GROningen MAchine for Chemical Simulation
95940
    1G5    HO5'    1   6.700   5.768   3.659
    1G5     O5'    2   6.766   5.804   3.719
    1G5     C5'    3   6.892   5.778   3.666
    1G5     H5'    4   6.896   5.669   3.655
    1G5    H5''    5   6.967   5.810   3.738
    1G5     C4'    6   6.905   5.857   3.533
    1G5     H4'    7   6.910   5.966   3.543
    1G5     O4'    8   7.022   5.813   3.463
    1G5     C1'    9   6.995   5.781   3.328
    1G5     H1'   10   7.063   5.821   3.252
    1G5      N9   11   6.985   5.633   3.303
    1G5      C8   12   7.005   5.531   3.390
    1G5      H8   13   7.034   5.546   3.493
    1G5      N7   14   6.992   5.412   3.338
    1G5      C5   15   6.982   5.441   3.204
    1G5      C6   16   6.984   5.356   3.085
    1G5      O6   17   6.977   5.232   3.077
    1G5      N1   18   6.983   5.426   2.962
    1G5      H1   19   7.016   5.378   2.880
    1G5      C2   20   6.968   5.557   2.950
    1G5      N2   21   6.952   5.602   2.829
    1G5     H21   22   6.943   5.533   2.756
    1G5     H22   23   6.940   5.700   2.806
    1G5      N3   24   6.959   5.641   3.054
    1G5      C4   25   6.974   5.576   3.178
    1G5     C3'   26   6.787   5.822   3.443
    1G5     H3'   27   6.768   5.715   3.445
    1G5     C2'   28   6.861   5.841   3.309
    1G5     H2'   29   6.796   5.783   3.243
    1G5     O2'   30   6.858   5.976   3.262
    1G5    HO2'   31   6.795   6.011   3.325
    1G5     O3'   32   6.688   5.920   3.445
    2G        P   33   6.539   5.871   3.437
    2G      OP1   34   6.442   5.981   3.458
    2G      OP2   35   6.532   5.760   3.533
    2G      O5'   36   6.528   5.819   3.293
    2G      C5'   37   6.513   5.904   3.177
    2G      H5'   38   6.588   5.983   3.184
    2G     H5''   39   6.418   5.956   3.186
    2G      C4'   40   6.523   5.828   3.039
    2G      H4'   41   6.525   5.903   2.960
    2G      O4'   42   6.634   5.736   3.053
    2G      C1'   43   6.610   5.628   2.967
    2G      H1'   44   6.675   5.635   2.880
    2G       N9   45   6.625   5.497   3.035
    2G       C8   46   6.630   5.466   3.168
    2G       H8   47   6.614   5.538   3.247
    2G       N7   48   6.636   5.341   3.197
    2G       C5   49   6.643   5.277   3.068
    2G       C6   50   6.646   5.139   3.032
    2G       O6   51   6.674   5.039   3.102
    2G       N1   52   6.647   5.118   2.895
    2G       H1   53   6.634   5.022   2.867
    2G       C2   54   6.645   5.219   2.808
    2G       N2   55   6.633   5.186   2.686
    2G      H21   56   6.634   5.091   2.653
    2G      H22   57   6.646   5.263   2.621
    2G       N3   58   6.638   5.351   2.829
    2G       C4   59   6.635   5.372   2.967
    2G      C3'   60   6.408   5.731   3.019
    2G      H3'   61   6.395   5.673   3.110
    2G      C2'   62   6.472   5.644   2.909
    2G      H2'   63   6.425   5.547   2.895
    2G      O2'   64   6.486   5.701   2.781
    2G     HO2'   65   6.401   5.708   2.738
    2G      O3'   66   6.293   5.804   2.973
    3G        P   67   6.146   5.772   3.031
    3G      OP1   68   6.045   5.858   2.970
    3G      OP2   69   6.157   5.769   3.179
    3G      O5'   70   6.123   5.620   2.982
    3G      C5'   71   6.113   5.596   2.845
    3G      H5'   72   6.183   5.661   2.794
    3G     H5''   73   6.017   5.631   2.807
    3G      C4'   74   6.128   5.445   2.806
    3G      H4'   75   6.130   5.450   2.697
    3G      O4'   76   6.243   5.384   2.854
    3G      C1'   77   6.219   5.252   2.907
    3G      H1'   78   6.262   5.172   2.847
    3G       N9   79   6.259   5.250   3.047
    3G       C8   80   6.250   5.339   3.155
    3G       H8   81   6.204   5.436   3.153
    3G       N7   82   6.302   5.292   3.265
    3G       C5   83   6.343   5.164   3.239
    3G       C6   84   6.402   5.056   3.314
    3G       O6   85   6.430   5.055   3.431
    3G       N1   86   6.411   4.937   3.256
    3G       H1   87   6.443   4.859   3.311
    3G       C2   88   6.367   4.926   3.132
    3G       N2   89   6.364   4.796   3.101
    3G      H21   90   6.402   4.726   3.164
    3G      H22   91   6.333   4.762   3.012
    3G       N3   92   6.309   5.013   3.053
    3G       C4   93   6.305   5.137   3.108
    3G      C3'   94   6.011   5.367   2.867
    3G      H3'   95   5.983   5.406   2.965
    3G      C2'   96   6.067   5.232   2.890
    3G      H2'   97   6.012   5.200   2.978
    3G      O2'   98   6.049   5.144   2.780
    3G     HO2'   99   5.955   5.123   2.774
    3G      O3'  100   5.907   5.362   2.774
    4U        P  101   5.755   5.348   2.830
    4U      OP1  102   5.670   5.356   2.719
    4U      OP2  103   5.735   5.437   2.948
    4U      O5'  104   5.756   5.196   2.889
    4U      C5'  105   5.687   5.095   2.810
    4U      H5'  106   5.731   5.080   2.711
    4U     H5''  107   5.585   5.127   2.786
    4U      C4'  108   5.674   4.965   2.882
    4U      H4'  109   5.623   4.898   2.813
    4U      O4'  110   5.802   4.914   2.903
    4U      C1'  111   5.795   4.833   3.013
    4U      H1'  112   5.822   4.729   2.991
    4U       N1  113   5.889   4.876   3.124
    4U       C6  114   5.906   5.010   3.160
    4U       H6  115   5.845   5.089   3.120
    4U       C5  116   5.985   5.043   3.258
    4U       H5  117   5.978   5.144   3.298
    4U       C4  118   6.065   4.944   3.335
    4U       O4  119   6.138   4.964   3.436
    4U       N3  120   6.053   4.819   3.282
    4U       H3  121   6.109   4.748   3.327
    4U       C2  122   5.959   4.776   3.194
    4U       O2  123   5.926   4.653   3.191
    4U      C3'  124   5.602   4.965   3.015
    4U      H3'  125   5.626   5.047   3.083
    4U      C2'  126   5.650   4.828   3.060
    4U      H2'  127   5.641   4.807   3.166
    4U      O2'  128   5.579   4.730   2.985
    4U     HO2'  129   5.485   4.751   2.991
    4U      O3'  130   5.461   4.954   2.990
    5U        P  131   5.344   4.955   3.105
    5U      OP1  132   5.213   4.977   3.040
    5U      OP2  133   5.380   5.051   3.214
    5U      O5'  134   5.341   4.813   3.167
    5U      C5'  135   5.245   4.702   3.131
    5U      H5'  136   5.277   4.659   3.036
    5U     H5''  137   5.150   4.756   3.126
    5U      C4'  138   5.251   4.588   3.225
    5U      H4'  139   5.174   4.603   3.301
    5U      O4'  140   5.215   4.470   3.155
    5U      C1'  141   5.326   4.381   3.154
    5U      H1'  142   5.312   4.323   3.245
    5U       N1  143   5.331   4.294   3.030
    5U       C6  144   5.341   4.155   3.042
    5U       H6  145   5.309   4.101   3.130
    5U       C5  146   5.388   4.076   2.941
    5U       H5  147   5.399   3.973   2.970
    5U       C4  148   5.428   4.129   2.820
    5U       O4  149   5.474   4.063   2.725
    5U       N3  150   5.421   4.268   2.812
    5U       H3  151   5.451   4.306   2.724
    5U       C2  152   5.352   4.346   2.900
    5U       O2  153   5.350   4.463   2.873
    5U      C3'  154   5.391   4.555   3.285
    5U      H3'  155   5.458   4.640   3.300
    5U      C2'  156   5.454   4.466   3.189
    5U      H2'  157   5.470   4.533   3.105
    5U      O2'  158   5.567   4.402   3.246
    5U     HO2'  159   5.520   4.351   3.312
    5U      O3'  160   5.372   4.477   3.401
    6A        P  161   5.357   4.544   3.548
    6A      OP1  162   5.287   4.439   3.622
    6A      OP2  163   5.292   4.683   3.548
    6A      O5'  164   5.505   4.560   3.608
    6A      C5'  165   5.574   4.453   3.683
    6A      H5'  166   5.582   4.360   3.627
    6A     H5''  167   5.523   4.429   3.776
    6A      C4'  168   5.708   4.511   3.732
    6A      H4'  169   5.759   4.432   3.789
    6A      O4'  170   5.793   4.555   3.621
    6A      C1'  171   5.836   4.688   3.644
    6A      H1'  172   5.942   4.702   3.625
    6A       N9  173   5.759   4.786   3.567
    6A       C8  174   5.667   4.753   3.464
    6A       H8  175   5.661   4.651   3.429
    6A       N7  176   5.613   4.850   3.407
    6A       C5  177   5.677   4.965   3.463
    6A       C6  178   5.694   5.096   3.422
    6A       N6  179   5.632   5.139   3.314
    6A      H61  180   5.643   5.234   3.282
    6A      H62  181   5.559   5.077   3.282
    6A       N1  182   5.774   5.177   3.488
    6A       C2  183   5.846   5.131   3.589
    6A       H2  184   5.914   5.203   3.632
    6A       N3  185   5.854   5.007   3.631
    6A       C4  186   5.764   4.927   3.563
    6A      C3'  187   5.686   4.626   3.828
    6A      H3'  188   5.592   4.675   3.805
    6A      C2'  189   5.808   4.717   3.787
    6A      H2'  190   5.778   4.820   3.805
    6A      O2'  191   5.917   4.689   3.871
    6A     HO2'  192   5.903   4.610   3.925
    6A      O3'  193   5.679   4.580   3.959
    7G        P  194   5.568   4.640   4.059
    7G      OP1  195   5.584   4.584   4.198
    7G      OP2  196   5.436   4.628   3.988
    7G      O5'  197   5.596   4.796   4.071
    7G      C5'  198   5.709   4.844   4.145
    7G      H5'  199   5.799   4.794   4.109
    7G     H5''  200   5.696   4.822   4.251
    7G      C4'  201   5.732   4.996   4.129
    7G      H4'  202   5.809   5.029   4.198
    7G      O4'  203   5.773   5.031   3.999
    7G      C1'  204   5.713   5.155   3.971
    7G      H1'  205   5.787   5.226   3.932
    7G       N9  206   5.611   5.127   3.864
    7G       C8  207   5.570   5.010   3.813
    7G       H8  208   5.604   4.916   3.856
    7G       N7  209   5.487   5.017   3.712
    7G       C5  210   5.465   5.152   3.695
    7G       C6  211   5.386   5.227   3.603
    7G       O6  212   5.315   5.189   3.504
    7G       N1  213   5.387   5.364   3.632
    7G       H1  214   5.352   5.430   3.564
    7G       C2  215   5.465   5.422   3.724
    7G       N2  216   5.464   5.552   3.733
    7G      H21  217   5.406   5.606   3.671
    7G      H22  218   5.530   5.598   3.795
    7G       N3  219   5.549   5.356   3.805
    7G       C4  220   5.542   5.222   3.789
    7G      C3'  221   5.609   5.074   4.160
    7G      H3'  222   5.517   5.033   4.119
    7G      C2'  223   5.647   5.204   4.099
    7G      H2'  224   5.556   5.262   4.082
    7G      O2'  225   5.742   5.277   4.176
    7G     HO2'  226   5.703   5.271   4.263
    7G      O3'  227   5.603   5.096   4.302
    8G        P  228   5.485   5.082   4.390
    8G      OP1  229   5.517   5.126   4.533
    8G      OP2  230   5.433   4.952   4.372
    8G      O5'  231   5.383   5.185   4.330
    8G      C5'  232   5.387   5.322   4.359
    8G      H5'  233   5.491   5.357   4.353
    8G     H5''  234   5.341   5.332   4.457
    8G      C4'  235   5.310   5.412   4.264
    8G      H4'  236   5.327   5.512   4.304
    8G      O4'  237   5.354   5.402   4.133
    8G      C1'  238   5.247   5.402   4.039
    8G      H1'  239   5.255   5.481   3.965
    8G       N9  240   5.228   5.268   3.974
    8G       C8  241   5.277   5.146   4.018
    8G       H8  242   5.324   5.130   4.114
    8G       N7  243   5.257   5.045   3.937
    8G       C5  244   5.182   5.105   3.838
    8G       C6  245   5.116   5.053   3.721
    8G       O6  246   5.130   4.942   3.665
    8G       N1  247   5.024   5.137   3.656
    8G       H1  248   4.988   5.109   3.566
    8G       C2  249   5.010   5.262   3.695
    8G       N2  250   4.921   5.328   3.629
    8G      H21  251   4.918   5.306   3.530
    8G      H22  252   4.894   5.419   3.665
    8G       N3  253   5.073   5.319   3.792
    8G       C4  254   5.153   5.239   3.862
    8G      C3'  255   5.160   5.381   4.261
    8G      H3'  256   5.148   5.272   4.256
    8G      C2'  257   5.123   5.437   4.119
    8G      H2'  258   5.032   5.386   4.086
    8G      O2'  259   5.115   5.576   4.117
    8G     HO2'  260   5.091   5.600   4.207
    8G      O3'  261   5.091   5.450   4.359
    9G        P  262   4.948   5.405   4.417
    9G      OP1  263   4.892   5.505   4.509
    9G      OP2  264   4.967   5.267   4.470
    9G      O5'  265   4.844   5.400   4.296
    9G      C5'  266   4.793   5.524   4.237
    9G      H5'  267   4.873   5.587   4.196
    9G     H5''  268   4.732   5.584   4.304
    9G      C4'  269   4.716   5.490   4.103
    9G      H4'  270   4.676   5.588   4.074
    9G      O4'  271   4.786   5.425   4.000
    9G      C1'  272   4.699   5.333   3.936
    9G      H1'  273   4.685   5.361   3.832
    9G       N9  274   4.758   5.198   3.937
    9G       C8  275   4.842   5.150   4.041
    9G       H8  276   4.860   5.201   4.135
    9G       N7  277   4.896   5.037   4.011
    9G       C5  278   4.849   5.005   3.885
    9G       C6  279   4.861   4.886   3.805
    9G       O6  280   4.920   4.781   3.821
    9G       N1  281   4.787   4.896   3.693
    9G       H1  282   4.801   4.820   3.628
    9G       C2  283   4.706   4.991   3.656
    9G       N2  284   4.656   4.976   3.536
    9G      H21  285   4.668   4.887   3.489
    9G      H22  286   4.593   5.047   3.501
    9G       N3  287   4.685   5.099   3.722
    9G       C4  288   4.756   5.101   3.839
    9G      C3'  289   4.595   5.398   4.138
    9G      H3'  290   4.635   5.326   4.210
    9G      C2'  291   4.562   5.334   4.008
    9G      H2'  292   4.512   5.238   4.008
    9G      O2'  293   4.472   5.410   3.926
    9G     HO2'  294   4.393   5.419   3.979
    9G      O3'  295   4.474   5.464   4.190
   10U        P  296   4.384   5.389   4.283
   10U      OP1  297   4.277   5.482   4.328
   10U      OP2  298   4.458   5.314   4.383
   10U      O5'  299   4.319   5.288   4.182
   10U      C5'  300   4.179   5.293   4.152
   10U      H5'  301   4.155   5.374   4.083
   10U     H5''  302   4.109   5.291   4.235
   10U      C4'  303   4.145   5.161   4.070
   10U      H4'  304   4.050   5.177   4.019
   10U      O4'  305   4.243   5.130   3.976
   10U      C1'  306   4.250   4.988   3.971
   10U      H1'  307   4.224   4.955   3.870
   10U       N1  308   4.390   4.937   4.008
   10U       C6  309   4.458   4.978   4.119
   10U       H6  310   4.421   5.057   4.183
   10U       C5  311   4.575   4.924   4.151
   10U       H5  312   4.629   4.958   4.238
   10U       C4  313   4.629   4.812   4.076
   10U       O4  314   4.736   4.755   4.101
   10U       N3  315   4.554   4.767   3.970
   10U       H3  316   4.579   4.671   3.948
   10U       C2  317   4.434   4.826   3.930
   10U       O2  318   4.368   4.779   3.837
   10U      C3'  319   4.126   5.050   4.166
   10U      H3'  320   4.209   5.060   4.236
   10U      C2'  321   4.154   4.929   4.073
   10U      H2'  322   4.194   4.845   4.131
   10U      O2'  323   4.041   4.881   4.012
   10U     HO2'  324   3.967   4.890   4.073
   10U      O3'  325   3.995   5.039   4.224
   11U        P  326   3.974   4.944   4.353
   11U      OP1  327   3.857   4.993   4.428
   11U      OP2  328   4.104   4.936   4.429
   11U      O5'  329   3.954   4.798   4.302
   11U      C5'  330   3.833   4.742   4.252
   11U      H5'  331   3.808   4.792   4.159
   11U     H5''  332   3.752   4.762   4.322
   11U      C4'  333   3.833   4.586   4.229
   11U      H4'  334   3.730   4.559   4.205
   11U      O4'  335   3.914   4.541   4.120
   11U      C1'  336   3.979   4.419   4.155
   11U      H1'  337   3.955   4.356   4.069
   11U       N1  338   4.129   4.436   4.168
   11U       C6  339   4.184   4.561   4.194
   11U       H6  340   4.121   4.647   4.213
   11U       C5  341   4.318   4.576   4.179
   11U       H5  342   4.352   4.679   4.177
   11U       C4  343   4.407   4.467   4.166
   11U       O4  344   4.528   4.478   4.164
   11U       N3  345   4.349   4.343   4.158
   11U       H3  346   4.410   4.277   4.112
   11U       C2  347   4.213   4.325   4.150
   11U       O2  348   4.168   4.211   4.127
   11U      C3'  349   3.877   4.500   4.352
   11U      H3'  350   3.966   4.554   4.385
   11U      C2'  351   3.901   4.372   4.279
   11U      H2'  352   3.958   4.292   4.327
   11U      O2'  353   3.778   4.303   4.244
   11U     HO2'  354   3.721   4.324   4.319
   11U      O3'  355   3.773   4.485   4.449
   12A        P  356   3.794   4.471   4.601
   12A      OP1  357   3.675   4.404   4.658
   12A      OP2  358   3.827   4.612   4.646
   12A      O5'  359   3.916   4.382   4.636
   12A      C5'  360   3.914   4.239   4.619
   12A      H5'  361   3.848   4.213   4.536
   12A     H5''  362   3.876   4.201   4.714
   12A      C4'  363   4.050   4.180   4.591
   12A      H4'  364   4.041   4.072   4.577
   12A      O4'  365   4.119   4.236   4.478
   12A      C1'  366   4.262   4.227   4.497
   12A      H1'  367   4.318   4.172   4.421
   12A       N9  368   4.324   4.357   4.517
   12A       C8  369   4.261   4.479   4.537
   12A       H8  370   4.153   4.483   4.532
   12A       N7  371   4.337   4.583   4.549
   12A       C5  372   4.459   4.531   4.525
   12A       C6  373   4.585   4.578   4.501
   12A       N6  374   4.615   4.706   4.492
   12A      H61  375   4.712   4.734   4.480
   12A      H62  376   4.543   4.774   4.473
   12A       N1  377   4.694   4.503   4.484
   12A       C2  378   4.677   4.371   4.487
   12A       H2  379   4.765   4.311   4.471
   12A       N3  380   4.562   4.306   4.497
   12A       C4  381   4.457   4.392   4.521
   12A      C3'  382   4.152   4.189   4.702
   12A      H3'  383   4.166   4.291   4.737
   12A      C2'  384   4.282   4.152   4.631
   12A      H2'  385   4.369   4.183   4.690
   12A      O2'  386   4.288   4.013   4.615
   12A     HO2'  387   4.254   3.967   4.693
   12A      O3'  388   4.118   4.108   4.812
   13G        P  389   4.143   4.158   4.959
   13G      OP1  390   4.117   4.033   5.034
   13G      OP2  391   4.066   4.279   4.992
   13G      O5'  392   4.301   4.196   4.971
   13G      C5'  393   4.406   4.105   4.970
   13G      H5'  394   4.392   4.045   4.880
   13G     H5''  395   4.407   4.043   5.059
   13G      C4'  396   4.545   4.154   4.945
   13G      H4'  397   4.613   4.070   4.933
   13G      O4'  398   4.558   4.232   4.829
   13G      C1'  399   4.629   4.352   4.859
   13G      H1'  400   4.704   4.365   4.781
   13G       N9  401   4.537   4.473   4.858
   13G       C8  402   4.398   4.484   4.867
   13G       H8  403   4.341   4.395   4.891
   13G       N7  404   4.351   4.601   4.863
   13G       C5  405   4.464   4.674   4.842
   13G       C6  406   4.479   4.817   4.821
   13G       O6  407   4.389   4.898   4.808
   13G       N1  408   4.610   4.858   4.829
   13G       H1  409   4.636   4.955   4.817
   13G       C2  410   4.719   4.774   4.830
   13G       N2  411   4.831   4.835   4.836
   13G      H21  412   4.838   4.935   4.820
   13G      H22  413   4.908   4.770   4.846
   13G       N3  414   4.706   4.645   4.854
   13G       C4  415   4.579   4.601   4.860
   13G      C3'  416   4.597   4.232   5.065
   13G      H3'  417   4.508   4.286   5.099
   13G      C2'  418   4.692   4.327   4.994
   13G      H2'  419   4.711   4.417   5.052
   13G      O2'  420   4.817   4.262   4.960
   13G     HO2'  421   4.891   4.323   4.954
   13G      O3'  422   4.639   4.143   5.167
   14G        P  423   4.640   4.186   5.314
   14G      OP1  424   4.733   4.098   5.389
   14G      OP2  425   4.500   4.174   5.359
   14G      O5'  426   4.696   4.339   5.319
   14G      C5'  427   4.833   4.367   5.322
   14G      H5'  428   4.885   4.309   5.246
   14G     H5''  429   4.868   4.331   5.419
   14G      C4'  430   4.846   4.522   5.307
   14G      H4'  431   4.953   4.540   5.313
   14G      O4'  432   4.797   4.569   5.188
   14G      C1'  433   4.735   4.691   5.205
   14G      H1'  434   4.770   4.767   5.135
   14G       N9  435   4.586   4.687   5.207
   14G       C8  436   4.508   4.576   5.206
   14G       H8  437   4.545   4.475   5.216
   14G       N7  438   4.381   4.593   5.176
   14G       C5  439   4.380   4.727   5.160
   14G       C6  440   4.269   4.814   5.134
   14G       O6  441   4.149   4.788   5.124
   14G       N1  442   4.306   4.948   5.122
   14G       H1  443   4.233   5.014   5.098
   14G       C2  444   4.434   4.996   5.122
   14G       N2  445   4.452   5.122   5.104
   14G      H21  446   4.375   5.184   5.084
   14G      H22  447   4.545   5.161   5.100
   14G       N3  448   4.537   4.919   5.156
   14G       C4  449   4.501   4.784   5.177
   14G      C3'  450   4.777   4.601   5.417
   14G      H3'  451   4.681   4.553   5.432
   14G      C2'  452   4.763   4.737   5.350
   14G      H2'  453   4.681   4.792   5.396
   14G      O2'  454   4.884   4.814   5.348
   14G     HO2'  455   4.866   4.904   5.320
   14G      O3'  456   4.846   4.605   5.535
   15G        P  457   4.765   4.582   5.673
   15G      OP1  458   4.863   4.591   5.781
   15G      OP2  459   4.682   4.460   5.662
   15G      O5'  460   4.672   4.712   5.680
   15G      C5'  461   4.735   4.839   5.690
   15G      H5'  462   4.815   4.844   5.617
   15G     H5''  463   4.780   4.848   5.789
   15G      C4'  464   4.629   4.948   5.672
   15G      H4'  465   4.682   5.043   5.670
   15G      O4'  466   4.563   4.921   5.549
   15G      C1'  467   4.437   4.982   5.560
   15G      H1'  468   4.417   5.055   5.481
   15G       N9  469   4.347   4.867   5.546
   15G       C8  470   4.377   4.734   5.523
   15G       H8  471   4.476   4.692   5.532
   15G       N7  472   4.270   4.661   5.495
   15G       C5  473   4.165   4.751   5.501
   15G       C6  474   4.031   4.737   5.457
   15G       O6  475   3.988   4.632   5.404
   15G       N1  476   3.952   4.844   5.471
   15G       H1  477   3.857   4.843   5.438
   15G       C2  478   4.007   4.968   5.502
   15G       N2  479   3.920   5.065   5.497
   15G      H21  480   3.826   5.040   5.471
   15G      H22  481   3.940   5.161   5.524
   15G       N3  482   4.135   4.991   5.532
   15G       C4  483   4.209   4.879   5.532
   15G      C3'  484   4.521   4.957   5.778
   15G      H3'  485   4.485   4.856   5.795
   15G      C2'  486   4.417   5.038   5.703
   15G      H2'  487   4.318   5.017   5.743
   15G      O2'  488   4.435   5.181   5.697
   15G     HO2'  489   4.477   5.215   5.776
   15G      O3'  490   4.560   5.019   5.899
   16U        P  491   4.501   4.972   6.042
   16U      OP1  492   4.560   5.055   6.147
   16U      OP2  493   4.487   4.826   6.056
   16U      O5'  494   4.350   5.026   6.018
   16U      C5'  495   4.324   5.161   6.041
   16U      H5'  496   4.392   5.219   5.978
   16U     H5''  497   4.344   5.187   6.145
   16U      C4'  498   4.182   5.200   6.004
   16U      H4'  499   4.181   5.308   6.010
   16U      O4'  500   4.136   5.147   5.880
   16U      C1'  501   3.997   5.122   5.874
   16U      H1'  502   3.950   5.183   5.797
   16U       N1  503   3.974   4.979   5.863
   16U       C6  504   4.073   4.884   5.869
   16U       H6  505   4.168   4.909   5.914
   16U       C5  506   4.054   4.756   5.820
   16U       H5  507   4.131   4.681   5.819
   16U       C4  508   3.930   4.706   5.773
   16U       O4  509   3.901   4.599   5.720
   16U       N3  510   3.835   4.800   5.780
   16U       H3  511   3.748   4.771   5.737
   16U       C2  512   3.848   4.935   5.808
   16U       O2  513   3.755   5.005   5.772
   16U      C3'  514   4.078   5.139   6.092
   16U      H3'  515   4.094   5.031   6.100
   16U      C2'  516   3.953   5.169   6.009
   16U      H2'  517   3.874   5.102   6.042
   16U      O2'  518   3.914   5.306   6.002
   16U     HO2'  519   3.937   5.344   6.087
   16U      O3'  520   4.075   5.203   6.216
   17U        P  521   4.000   5.128   6.342
   17U      OP1  522   3.917   5.012   6.300
   17U      OP2  523   3.950   5.223   6.435
   17U      O5'  524   4.133   5.067   6.404
   17U      C5'  525   4.204   4.961   6.339
   17U      H5'  526   4.251   5.005   6.250
   17U     H5''  527   4.151   4.883   6.286
   17U      C4'  528   4.297   4.886   6.440
   17U      H4'  529   4.332   4.792   6.397
   17U      O4'  530   4.409   4.959   6.464
   17U      C1'  531   4.449   4.940   6.602
   17U      H1'  532   4.534   4.873   6.612
   17U       N1  533   4.475   5.065   6.679
   17U       C6  534   4.385   5.173   6.675
   17U       H6  535   4.296   5.162   6.615
   17U       C5  536   4.419   5.287   6.736
   17U       H5  537   4.346   5.367   6.742
   17U       C4  538   4.548   5.297   6.806
   17U       O4  539   4.573   5.402   6.869
   17U       N3  540   4.639   5.199   6.784
   17U       H3  541   4.730   5.196   6.828
   17U       C2  542   4.605   5.081   6.731
   17U       O2  543   4.684   4.985   6.740
   17U      C3'  544   4.226   4.854   6.572
   17U      H3'  545   4.156   4.936   6.590
   17U      C2'  546   4.341   4.852   6.670
   17U      H2'  547   4.316   4.887   6.770
   17U      O2'  548   4.399   4.722   6.687
   17U     HO2'  549   4.354   4.675   6.756
   17U      O3'  550   4.162   4.736   6.562
   18A        P  551   4.053   4.696   6.666
   18A      OP1  552   3.975   4.586   6.603
   18A      OP2  553   3.983   4.816   6.707
   18A      O5'  554   4.125   4.629   6.801
   18A      C5'  555   4.183   4.499   6.804
   18A      H5'  556   4.248   4.494   6.717
   18A     H5''  557   4.105   4.422   6.799
   18A      C4'  558   4.280   4.474   6.920
   18A      H4'  559   4.327   4.376   6.920
   18A      O4'  560   4.388   4.566   6.921
   18A      C1'  561   4.404   4.622   7.049
   18A      H1'  562   4.509   4.610   7.072
   18A       N9  563   4.390   4.769   7.050
   18A       C8  564   4.272   4.838   7.031
   18A       H8  565   4.180   4.790   7.004
   18A       N7  566   4.291   4.967   7.027
   18A       C5  567   4.430   4.991   7.047
   18A       C6  568   4.504   5.105   7.081
   18A       N6  569   4.446   5.224   7.098
   18A      H61  570   4.506   5.297   7.132
   18A      H62  571   4.350   5.238   7.071
   18A       N1  572   4.632   5.089   7.116
   18A       C2  573   4.691   4.972   7.110
   18A       H2  574   4.795   4.973   7.137
   18A       N3  575   4.627   4.854   7.092
   18A       C4  576   4.491   4.867   7.064
   18A      C3'  577   4.209   4.494   7.053
   18A      H3'  578   4.125   4.561   7.035
   18A      C2'  579   4.319   4.546   7.145
   18A      H2'  580   4.284   4.618   7.218
   18A      O2'  581   4.400   4.445   7.218
   18A     HO2'  582   4.339   4.409   7.283
   18A      O3'  583   4.149   4.378   7.105
   19G        P  584   4.060   4.382   7.230
   19G      OP1  585   4.006   4.247   7.234
   19G      OP2  586   3.978   4.500   7.218
   19G      O5'  587   4.161   4.409   7.361
   19G      C5'  588   4.203   4.301   7.445
   19G      H5'  589   4.268   4.236   7.387
   19G     H5''  590   4.120   4.241   7.483
   19G      C4'  591   4.286   4.352   7.568
   19G      H4'  592   4.334   4.262   7.606
   19G      O4'  593   4.386   4.442   7.523
   19G      C1'  594   4.370   4.562   7.594
   19G      H1'  595   4.464   4.602   7.630
   19G       N9  596   4.320   4.679   7.514
   19G       C8  597   4.192   4.700   7.463
   19G       H8  598   4.105   4.636   7.470
   19G       N7  599   4.186   4.806   7.392
   19G       C5  600   4.302   4.877   7.418
   19G       C6  601   4.346   5.008   7.379
   19G       O6  602   4.301   5.090   7.301
   19G       N1  603   4.473   5.045   7.436
   19G       H1  604   4.514   5.127   7.395
   19G       C2  605   4.564   4.953   7.504
   19G       N2  606   4.665   5.010   7.552
   19G      H21  607   4.700   5.091   7.503
   19G      H22  608   4.730   4.954   7.604
   19G       N3  609   4.520   4.825   7.528
   19G       C4  610   4.389   4.796   7.484
   19G      C3'  611   4.193   4.419   7.669
   19G      H3'  612   4.102   4.455   7.621
   19G      C2'  613   4.276   4.537   7.712
   19G      H2'  614   4.206   4.620   7.724
   19G      O2'  615   4.357   4.522   7.832
   19G     HO2'  616   4.304   4.476   7.898
   19G      O3'  617   4.159   4.332   7.772
   20G        P  618   4.040   4.363   7.873
   20G      OP1  619   3.988   4.227   7.920
   20G      OP2  620   3.948   4.461   7.810
   20G      O5'  621   4.113   4.440   7.991
   20G      C5'  622   4.187   4.370   8.086
   20G      H5'  623   4.264   4.311   8.035
   20G     H5''  624   4.117   4.305   8.139
   20G      C4'  625   4.256   4.463   8.196
   20G      H4'  626   4.288   4.388   8.268
   20G      O4'  627   4.376   4.533   8.145
   20G      C1'  628   4.362   4.669   8.161
   20G      H1'  629   4.455   4.714   8.196
   20G       N9  630   4.327   4.747   8.040
   20G       C8  631   4.206   4.747   7.970
   20G       H8  632   4.123   4.679   7.982
   20G       N7  633   4.195   4.843   7.875
   20G       C5  634   4.323   4.891   7.875
   20G       C6  635   4.381   5.008   7.805
   20G       O6  636   4.325   5.084   7.725
   20G       N1  637   4.512   5.040   7.843
   20G       H1  638   4.552   5.128   7.813
   20G       C2  639   4.584   4.969   7.934
   20G       N2  640   4.688   5.030   7.979
   20G      H21  641   4.714   5.116   7.933
   20G      H22  642   4.747   4.988   8.049
   20G       N3  643   4.532   4.871   8.004
   20G       C4  644   4.399   4.841   7.972
   20G      C3'  645   4.169   4.577   8.260
   20G      H3'  646   4.102   4.606   8.179
   20G      C2'  647   4.263   4.693   8.277
   20G      H2'  648   4.208   4.786   8.266
   20G      O2'  649   4.337   4.691   8.395
   20G     HO2'  650   4.281   4.727   8.464
   20G      O3'  651   4.104   4.536   8.375
   21G3       P  652   3.997   4.621   8.455
   21G3     OP1  653   3.926   4.534   8.557
   21G3     OP2  654   3.907   4.697   8.363
   21G3     O5'  655   4.071   4.716   8.544
   21G3     C5'  656   4.134   4.685   8.674
   21G3     H5'  657   4.194   4.594   8.666
   21G3    H5''  658   4.045   4.658   8.731
   21G3     C4'  659   4.205   4.810   8.731
   21G3     H4'  660   4.266   4.775   8.814
   21G3     O4'  661   4.286   4.873   8.634
   21G3     C1'  662   4.252   5.013   8.613
   21G3     H1'  663   4.328   5.078   8.656
   21G3      N9  664   4.228   5.035   8.469
   21G3      C8  665   4.115   5.005   8.393
   21G3      H8  666   4.030   4.946   8.426
   21G3      N7  667   4.128   5.048   8.274
   21G3      C5  668   4.255   5.103   8.262
   21G3      C6  669   4.324   5.165   8.152
   21G3      O6  670   4.280   5.202   8.046
   21G3      N1  671   4.454   5.208   8.180
   21G3      H1  672   4.477   5.284   8.117
   21G3      C2  673   4.506   5.197   8.306
   21G3      N2  674   4.608   5.270   8.338
   21G3     H21  675   4.673   5.308   8.271
   21G3     H22  676   4.637   5.267   8.435
   21G3      N3  677   4.448   5.129   8.408
   21G3      C4  678   4.321   5.084   8.381
   21G3     C3'  679   4.098   4.911   8.769
   21G3     H3'  680   4.003   4.879   8.726
   21G3     C2'  681   4.135   5.050   8.707
   21G3     H2'  682   4.053   5.101   8.655
   21G3     O2'  683   4.185   5.124   8.812
   21G3    HO2'  684   4.154   5.066   8.882
   21G3     O3'  685   4.082   4.920   8.910
   21G3    HO3'  686   4.012   4.860   8.935
   22Cl-    Cl-  687   8.374   3.153   1.216
   23Cl-    Cl-  688   5.553   6.178   9.115
   24Cl-    Cl-  689   5.405   7.385   2.075
   25Cl-    Cl-  690   0.946   3.599   2.929
   26Cl-    Cl-  691   6.729   2.502   4.264
   27Cl-    Cl-  692   2.617   3.725   7.707
   28Cl-    Cl-  693   0.527   2.980   4.478
   29Cl-    Cl-  694   5.776   9.493   6.209
   30Cl-    Cl-  695   9.223   6.744   5.029
   31Cl-    Cl-  696   0.830   8.242   8.525
   32Cl-    Cl-  697   8.486   8.300   3.034
   33Cl-    Cl-  698   5.622   5.253   8.036
   34Cl-    Cl-  699   6.860   0.349   0.948
   35Cl-    Cl-  700   2.900   5.936   0.633
   36Cl-    Cl-  701   4.491   7.476   9.072
   37Cl-    Cl-  702   9.673   5.875   1.942
   38Cl-    Cl-  703   9.403   1.100   8.742
   39Cl-    Cl-  704   3.893   3.254   8.877
   40Cl-    Cl-  705   4.614   4.753   2.291
   41Cl-    Cl-  706   4.138   7.158   8.567
   42Cl-    Cl-  707   7.227   0.719   6.736
   43Cl-    Cl-  708   7.878   7.657   1.480
   44Cl-    Cl-  709   0.478   1.261   8.042
   45Cl-    Cl-  710   0.813   6.576   6.822
   46Cl-    Cl-  711   7.077   7.695   6.369
   47Cl-    Cl-  712   5.400   5.510   6.076
   48Cl-    Cl-  713   1.329   8.733   2.430
   49Cl-    Cl-  714   1.691   3.271   8.434
   50Cl-    Cl-  715   9.196   4.859   1.701
   51Cl-    Cl-  716   3.496   5.960   7.131
   52Cl-    Cl-  717   3.014   8.882   3.907
   53Cl-    Cl-  718   6.544   4.267   3.569
   54Cl-    Cl-  719   7.794   4.667   1.064
   55Cl-    Cl-  720   3.874   2.460   1.679
   56Cl-    Cl-  721   9.331   0.006   1.948
   57Cl-    Cl-  722   0.059   3.432   5.929
   58Cl-    Cl-  723   2.421   3.757   2.411
   59Cl-    Cl-  724   0.105   3.372   3.973
   60Cl-    Cl-  725   9.486   5.514   5.829
   61Cl-    Cl-  726   6.698   9.652   0.404
   62Cl-    Cl-  727   8.472   6.504   6.739
   63Cl-    Cl-  728   3.477   6.367   4.102
   64Cl-    Cl-  729   5.598   1.137   8.617
   65Cl-    Cl-  730   0.589   9.603   2.043
   66Cl-    Cl-  731   8.357   3.338   7.942
   67Cl-    Cl-  732   1.648   9.126   6.845
   68Cl-    Cl-  733   4.997   9.743   9.853
   69Cl-    Cl-  734   3.240   2.887   9.068
   70Cl-    Cl-  735   7.988   4.214   9.891
   71Cl-    Cl-  736   0.537   7.131   5.053
   72Cl-    Cl-  737   4.288   6.197   0.308
   73Cl-    Cl-  738   9.170   6.619   2.587
   74Cl-    Cl-  739   5.767   7.412   0.131
   75Cl-    Cl-  740   2.667   8.725   5.297
   76Cl-    Cl-  741   4.252   7.762   2.990
   77Cl-    Cl-  742   7.207   0.796   0.109
   78Cl-    Cl-  743   9.714   8.497   9.767
   79Cl-    Cl-  744   2.971   9.432   8.248
   80Cl-    Cl-  745   9.164   4.157   8.344
   81Cl-    Cl-  746   3.044   8.416   9.344
   82Cl-    Cl-  747   9.728   8.729   6.955
   83Cl-    Cl-  748   8.475   8.538   8.303
   84Cl-    Cl-  749   8.062   3.537   5.339
   85Cl-    Cl-  750   3.915   0.902   1.280
   86Cl-    Cl-  751   6.083   4.252   8.438
   87Cl-    Cl-  752   6.796   8.797   4.259
   88Cl-    Cl-  753   8.828   7.494   5.185
   89Cl-    Cl-  754   5.151   8.666   2.167
   90Cl-    Cl-  755   2.553   6.546   1.270
   91Cl-    Cl-  756   8.837   4.257   2.904
   92Cl-    Cl-  757   9.878   5.033   6.641
   93Cl-    Cl-  758   1.909   3.811   1.329
   94Cl-    Cl-  759   4.789   0.234   7.792
   95Cl-    Cl-  760   6.882   7.085   2.947
   96Cl-    Cl-  761   0.185   4.460   2.428
   97Cl-    Cl-  762   8.062   6.781   5.569
   98Cl-    Cl-  763   0.245   2.230   2.326
   99Cl-    Cl-  764   9.883   7.113   9.389
  100Cl-    Cl-  765   3.798   3.867   6.065
  101Cl-    Cl-  766   9.760   1.967   8.631
  102Cl-    Cl-  767   2.136   0.561   6.779
  103Cl-    Cl-  768   5.576   1.516   4.796
  104Cl-    Cl-  769   4.079   2.719   8.469
  105Cl-    Cl-  770   5.529   0.433   3.846
  106Cl-    Cl-  771   0.061   3.076   8.641
  107K+      K+  772   4.923   2.168   2.649
  108K+      K+  773   5.602   1.466   5.679
  109K+      K+  774   5.516   5.149   9.490
  110K+      K+  775   7.547   5.876   9.433
  111K+      K+  776   9.026   3.385   8.481
  112K+      K+  777   7.223   0.071   1.230
  113K+      K+  778   5.307   4.926   3.466
  114K+      K+  779   4.175   4.410   5.509
  115K+      K+  780   5.011   4.775   4.137
  116K+      K+  781   0.702   9.791   0.764
  117K+      K+  782   2.053   6.005   6.507
  118K+      K+  783   4.621   9.326   0.334
  119K+      K+  784   9.800   4.470   8.650
  120K+      K+  785   1.421   7.577   1.435
  121K+      K+  786   4.425   0.490   6.167
  122K+      K+  787   3.940   3.314   8.541
  123K+      K+  788   5.091   4.728   5.499
  124K+      K+  789   4.040   5.016   7.218
  125K+      K+  790   7.452   5.216   2.554
  126K+      K+  791   5.912   2.570   1.140
  127K+      K+  792   5.065   5.730   2.300
  128K+      K+  793   5.636   6.176   6.609
  129K+      K+  794   2.634   5.298   8.065
  130K+      K+  795   8.743   6.016   7.486
  131K+      K+  796   3.825   4.878   6.491
  132K+      K+  797   6.858   0.131   8.324
  133K+      K+  798   6.326   4.832   3.632
  134K+      K+  799   0.030   1.159   7.460
  135K+      K+  800   5.396   9.809   7.196
  136K+      K+  801   7.163   4.963   0.993
  137K+      K+  802   7.697   1.558   1.849
  138K+      K+  803   5.007   9.001   1.786
  139K+      K+  804   6.296   1.184   8.448
  140K+      K+  805   8.768   3.568   3.229
  141K+      K+  806   6.691   6.623   2.666
  142K+      K+  807   7.719   7.725   9.363
  143K+      K+  808   6.740   2.444   5.963
  144K+      K+  809   2.934   4.291   2.408
  145K+      K+  810   4.351   8.846   8.808
  146K+      K+  811   5.136   9.316   4.498
  147K+      K+  812   6.812   3.856   6.358
  148K+      K+  813   7.163   2.755   2.024
  149K+      K+  814   6.199   5.926   3.387
  150K+      K+  815   2.271   2.909   7.941
  151K+      K+  816   0.180   2.641   8.912
  152K+      K+  817   6.667   2.136   6.760
  153K+      K+  818   4.137   4.759   4.857
  154K+      K+  819   5.299   5.311   3.259
  155K+      K+  820   3.207   5.265   5.706
  156K+      K+  821   9.392   5.169   1.042
  157K+      K+  822   8.614   6.688   6.289
  158K+      K+  823   9.663   5.943   2.346
  159K+      K+  824   8.390   3.539   4.692
  160K+      K+  825   5.608   8.799   9.804
  161K+      K+  826   8.765   5.569   5.649
  162K+      K+  827   5.326   0.663   8.193
  163K+      K+  828   5.385   9.096   7.298
  164K+      K+  829   7.037   3.442   8.422
  165K+      K+  830   7.488   7.720   4.862
  166K+      K+  831   2.478   7.513   1.050
  167K+      K+  832   5.724   7.214   9.147
  168K+      K+  833   7.913   4.036   0.795
  169K+      K+  834   9.085   7.939   1.455
  170K+      K+  835   4.798   4.499   4.209
  171K+      K+  836   7.928   5.615   5.147
  172K+      K+  837   3.681   4.215   4.006
  173K+      K+  838   3.780   4.467   7.012
  174K+      K+  839   8.530   0.114   3.261
  175K+      K+  840   6.251   9.021   3.655
  176K+      K+  841   9.838   5.380   6.347
  177K+      K+  842   3.355   6.253   2.311
  178K+      K+  843   4.322   4.411   5.931
  179K+      K+  844   1.828   0.879   2.828
  180K+      K+  845   3.906   4.615   5.137
  181K+      K+  846   8.988   7.576   0.725
  182K+      K+  847   3.973   5.069   8.018
  183K+      K+  848   9.545   1.990   4.021
  184K+      K+  849   5.228   5.629   5.709
  185K+      K+  850   2.476   1.636   7.407
  186K+      K+  851   8.695   7.913   6.217
  187K+      K+  852   7.123   8.955   7.745
  188K+      K+  853   6.351   5.650   4.624
  189K+      K+  854   6.889   4.997   3.535
  190K+      K+  855   5.111   4.675   3.708
  191K+      K+  856   1.137   7.690   1.925
  192K+      K+  857   9.349   1.893   9.890
  193K+      K+  858   9.720   1.814   1.673
  194K+      K+  859   3.135   9.327   6.979
  195K+      K+  860   4.451   3.917   6.785
  196K+      K+  861   8.682   7.291   3.931
  197K+      K+  862   9.717   8.061   7.772
  198K+      K+  863   3.948   2.182   1.567
  199K+      K+  864   7.861   7.507   2.940
  200K+      K+  865   2.670   4.739   3.906
  201K+      K+  866   9.413   8.497   2.452
  202K+      K+  867   9.667   3.754   9.746
  203K+      K+  868   0.887   5.484   7.107
  204K+      K+  869   7.131   7.311   6.034
  205K+      K+  870   1.790   7.242   8.388
  206K+      K+  871   3.463   9.507   6.024
  207K+      K+  872   6.803   5.933   2.478
  208K+      K+  873   4.189   6.983   9.174
  209K+      K+  874   1.787   1.568   5.179
  210K+      K+  875   2.484   8.164   9.831
  211K+      K+  876   2.286   5.203   4.611
  212WAT      O  877   5.857   3.405   8.404
  212WAT     H1  878   5.767   3.443   8.426
  212WAT     H2  879   5.876   3.418   8.307
  213WAT      O  880   6.887   4.887   1.463
  213WAT     H1  881   6.810   4.851   1.410
  213WAT     H2  882   6.973   4.855   1.423
  214WAT      O  883   1.874   0.556   8.489
  214WAT     H1  884   1.780   0.549   8.454
  214WAT     H2  885   1.882   0.504   8.574
  215WAT      O  886   0.415   1.628   0.801
  215WAT     H1  887   0.431   1.712   0.852
  215WAT     H2  888   0.465   1.552   0.844
  216WAT      O  889   8.997   7.657   4.835
  216WAT     H1  890   8.904   7.620   4.835
  216WAT     H2  891   9.054   7.606   4.771
  217WAT      O  892   4.820   7.881   5.651
  217WAT     H1  893   4.729   7.895   5.689
  217WAT     H2  894   4.887   7.877   5.725
  218WAT      O  895   8.023   8.000   3.466
  218WAT     H1  896   8.040   8.033   3.558
  218WAT     H2  897   8.098   7.939   3.438
  219WAT      O  898   7.865   6.096   4.447
  219WAT     H1  899   7.840   6.000   4.439
  219WAT     H2  900   7.816   6.138   4.523
  220WAT      O  901   2.254   3.902   8.835
  220WAT     H1  902   2.265   3.842   8.914
  220WAT     H2  903   2.250   3.846   8.752
  221WAT      O  904   6.289   6.109   2.925
  221WAT     H1  905   6.372   6.152   2.962
  221WAT     H2  906   6.278   6.018   2.965
  222WAT      O  907   6.619   1.001   4.082
  222WAT     H1  908   6.549   0.961   4.141
  222WAT     H2  909   6.696   1.032   4.137
  223WAT      O  910   8.352   0.133   0.483
  223WAT     H1  911   8.311   0.214   0.526
  223WAT     H2  912   8.295   0.053   0.503
  224WAT      O  913   0.222   5.553   4.614
  224WAT     H1  914   0.258   5.540   4.522
  224WAT     H2  915   0.150   5.622   4.612
  225WAT      O  916   7.502   7.903   7.712
  225WAT     H1  917   7.500   7.938   7.618
  225WAT     H2  918   7.499   7.803   7.709
  226WAT      O  919   4.533   3.302   4.278
  226WAT     H1  920   4.434   3.287   4.281
  226WAT     H2  921   4.573   3.247   4.205
  227WAT      O  922   0.634   2.842   2.330
  227WAT     H1  923   0.536   2.862   2.339
  227WAT     H2  924   0.673   2.825   2.420
  228WAT      O  925   1.738   3.841   4.939
  228WAT     H1  926   1.809   3.837   5.009
  228WAT     H2  927   1.781   3.853   4.849
  229WAT      O  928   8.241   6.533   1.405
  229WAT     H1  929   8.290   6.464   1.458
  229WAT     H2  930   8.227   6.615   1.461
  230WAT      O  931   6.471   2.486   3.956
  230WAT     H1  932   6.497   2.515   4.048
  230WAT     H2  933   6.373   2.464   3.954
  231WAT      O  934   2.311   1.524   2.684
  231WAT     H1  935   2.285   1.428   2.685
  231WAT     H2  936   2.369   1.543   2.605
  232WAT      O  937   6.366   4.346   6.446
  232WAT     H1  938   6.311   4.341   6.529
  232WAT     H2  939   6.383   4.254   6.412
  233WAT      O  940   5.408   6.456   9.249
  233WAT     H1  941   5.410   6.477   9.347
  233WAT     H2  942   5.454   6.368   9.233
  234WAT      O  943   3.758   0.272   9.666
  234WAT     H1  944   3.704   0.354   9.648
  234WAT     H2  945   3.772   0.263   9.765
  235WAT      O  946   6.244   5.219   1.358
  235WAT     H1  947   6.200   5.265   1.281
  235WAT     H2  948   6.340   5.202   1.336
  236WAT      O  949   7.172   1.949   8.371
  236WAT     H1  950   7.175   2.041   8.409
  236WAT     H2  951   7.134   1.952   8.279
  237WAT      O  952   5.064   4.747   8.309
  237WAT     H1  953   5.101   4.815   8.246
  237WAT     H2  954   5.101   4.762   8.401
  238WAT      O  955   7.906   0.093   4.359
  238WAT     H1  956   7.894   0.146   4.443
  238WAT     H2  957   7.929   0.154   4.283
  239WAT      O  958   3.604   5.878   3.191
  239WAT     H1  959   3.628   5.871   3.287
  239WAT     H2  960   3.582   5.974   3.169
  240WAT      O  961   5.163   4.034   9.422
  240WAT     H1  962   5.140   3.983   9.505
  240WAT     H2  963   5.248   4.084   9.436
  241WAT      O  964   1.419   8.683   6.745
  241WAT     H1  965   1.449   8.778   6.743
  241WAT     H2  966   1.319   8.679   6.744
  242WAT      O  967   8.321   0.189   8.348
  242WAT     H1  968   8.281   0.214   8.260
  242WAT     H2  969   8.332   0.090   8.353
  243WAT      O  970   1.843   6.337   1.637
  243WAT     H1  971   1.854   6.274   1.714
  243WAT     H2  972   1.925   6.394   1.628
  244WAT      O  973   0.795   5.607   0.525
  244WAT     H1  974   0.834   5.584   0.436
  244WAT     H2  975   0.728   5.680   0.514
  245WAT      O  976   3.134   3.481   2.907
  245WAT     H1  977   3.201   3.556   2.910
  245WAT     H2  978   3.087   3.482   2.819
  246WAT      O  979   8.493   7.072   1.912
  246WAT     H1  980   8.404   7.097   1.873
  246WAT     H2  981   8.564   7.084   1.843
  247WAT      O  982   1.555   6.586   9.694
  247WAT     H1  983   1.503   6.576   9.609
  247WAT     H2  984   1.584   6.496   9.726
  248WAT      O  985   5.717   0.571   7.222
  248WAT     H1  986   5.741   0.666   7.240
  248WAT     H2  987   5.617   0.563   7.213
  249WAT      O  988   3.073   9.437   5.555
  249WAT     H1  989   3.079   9.373   5.478
  249WAT     H2  990   3.136   9.408   5.627
  250WAT      O  991   6.990   9.299   7.091
  250WAT     H1  992   6.899   9.281   7.053
  250WAT     H2  993   7.060   9.269   7.026
  251WAT      O  994   0.265   7.640   0.699
  251WAT     H1  995   0.348   7.607   0.654
  251WAT     H2  996   0.233   7.571   0.765
  252WAT      O  997   8.765   4.644   7.272
  252WAT     H1  998   8.860   4.633   7.301
  252WAT     H2  999   8.754   4.603   7.182
  253WAT      O 1000   4.528   7.742   6.776
  253WAT     H1 1001   4.604   7.783   6.826
  253WAT     H2 1002   4.546   7.645   6.760
  254WAT      O 1003   6.144   1.263   4.510
  254WAT     H1 1004   6.097   1.349   4.534
  254WAT     H2 1005   6.076   1.192   4.495
  255WAT      O 1006   8.979   7.788   7.958
  255WAT     H1 1007   9.018   7.697   7.943
  255WAT     H2 1008   8.881   7.786   7.939
  256WAT      O 1009   9.759   9.473   4.901
  256WAT     H1 1010   9.788   9.477   4.805
  256WAT     H2 1011   9.691   9.401   4.912
  257WAT      O 1012   4.685   7.469   5.704
  257WAT     H1 1013   4.689   7.369   5.698
  257WAT     H2 1014   4.673   7.507   5.613
  258WAT      O 1015   5.845   4.241   9.773
  258WAT     H1 1016   5.791   4.324   9.788
  258WAT     H2 1017   5.826   4.205   9.681
  259WAT      O 1018   2.069   5.082   0.674
  259WAT     H1 1019   2.022   5.054   0.590
  259WAT     H2 1020   2.167   5.070   0.663
  260WAT      O 1021   7.856   9.830   9.273
  260WAT     H1 1022   7.872   9.782   9.186
  260WAT     H2 1023   7.921   9.905   9.282
  261WAT      O 1024   2.750   3.208   7.635
  261WAT     H1 1025   2.801   3.226   7.551
  261WAT     H2 1026   2.679   3.140   7.616
  262WAT      O 1027   9.477   7.851   5.434
  262WAT     H1 1028   9.522   7.815   5.353
  262WAT     H2 1029   9.546   7.882   5.499
  263WAT      O 1030   9.821   5.841   5.111
  263WAT     H1 1031   9.839   5.936   5.138
  263WAT     H2 1032   9.757   5.799   5.175
  264WAT      O 1033   7.621   0.634   6.002
  264WAT     H1 1034   7.547   0.660   5.940
  264WAT     H2 1035   7.709   0.648   5.955
  265WAT      O 1036   8.636   1.193   1.041
  265WAT     H1 1037   8.656   1.140   1.123
  265WAT     H2 1038   8.550   1.162   1.001
  266WAT      O 1039   8.598   3.637   1.374
  266WAT     H1 1040   8.613   3.642   1.473
  266WAT     H2 1041   8.623   3.725   1.332
  267WAT      O 1042   0.423   5.344   7.916
  267WAT     H1 1043   0.349   5.305   7.862
  267WAT     H2 1044   0.422   5.304   8.008
  268WAT      O 1045   5.556   0.841   6.769
  268WAT     H1 1046   5.580   0.886   6.855
  268WAT     H2 1047   5.477   0.782   6.783
  269WAT      O 1048   8.131   3.548   3.967
  269WAT     H1 1049   8.192   3.608   4.019
  269WAT     H2 1050   8.063   3.603   3.918
  270WAT      O 1051   4.490   0.920   2.822
  270WAT     H1 1052   4.552   0.849   2.855
  270WAT     H2 1053   4.460   0.977   2.899
  271WAT      O 1054   2.337   4.252   5.427
  271WAT     H1 1055   2.377   4.172   5.382
  271WAT     H2 1056   2.410   4.308   5.466
  272WAT      O 1057   0.363   1.034   6.106
  272WAT     H1 1058   0.423   1.113   6.103
  272WAT     H2 1059   0.338   1.008   6.013
  273WAT      O 1060   2.730   3.341   0.770
  273WAT     H1 1061   2.764   3.367   0.861
  273WAT     H2 1062   2.646   3.288   0.780
  274WAT      O 1063   1.147   9.265   3.570
  274WAT     H1 1064   1.174   9.352   3.611
  274WAT     H2 1065   1.224   9.202   3.574
  275WAT      O 1066   8.508   5.915   4.072
  275WAT     H1 1067   8.587   5.939   4.014
  275WAT     H2 1068   8.541   5.870   4.155
  276WAT      O 1069   8.769   8.692   5.869
  276WAT     H1 1070   8.812   8.602   5.871
  276WAT     H2 1071   8.673   8.684   5.892
  277WAT      O 1072   1.204   4.186   0.434
  277WAT     H1 1073   1.128   4.190   0.368
  277WAT     H2 1074   1.184   4.244   0.512
  278WAT      O 1075   6.000   9.638   3.389
  278WAT     H1 1076   5.968   9.711   3.329
  278WAT     H2 1077   6.079   9.671   3.442
  279WAT      O 1078   8.059   8.231   6.090
  279WAT     H1 1079   8.122   8.153   6.096
  279WAT     H2 1080   8.017   8.247   6.179
  280WAT      O 1081   7.157   1.126   8.209
  280WAT     H1 1082   7.251   1.106   8.235
  280WAT     H2 1083   7.140   1.090   8.117
  281WAT      O 1084   3.550   0.643   0.330
  281WAT     H1 1085   3.456   0.626   0.302
  281WAT     H2 1086   3.611   0.580   0.283
  282WAT      O 1087   7.047   4.138   0.097
  282WAT     H1 1088   6.960   4.091   0.080
  282WAT     H2 1089   7.099   4.088   0.166
  283WAT      O 1090   6.365   1.846   7.082
  283WAT     H1 1091   6.385   1.764   7.135
  283WAT     H2 1092   6.296   1.826   7.013
  284WAT      O 1093   2.616   2.542   7.683
  284WAT     H1 1094   2.597   2.445   7.669
  284WAT     H2 1095   2.594   2.592   7.600
  285WAT      O 1096   4.560   6.934   2.292
  285WAT     H1 1097   4.487   6.885   2.245
  285WAT     H2 1098   4.576   7.022   2.247
  286WAT      O 1099   9.221   5.171   4.373
  286WAT     H1 1100   9.241   5.266   4.394
  286WAT     H2 1101   9.240   5.153   4.276
  287WAT      O 1102   7.730   4.884   8.641
  287WAT     H1 1103   7.710   4.979   8.615
  287WAT     H2 1104   7.646   4.830   8.636
  288WAT      O 1105   7.424   4.203   9.028
  288WAT     H1 1106   7.465   4.205   9.119
  288WAT     H2 1107   7.496   4.211   8.959
  289WAT      O 1108   7.007   6.491   9.761
  289WAT     H1 1109   7.036   6.519   9.670
  289WAT     H2 1110   6.981   6.394   9.761
  290WAT      O 1111   1.486   1.054   2.110
  290WAT     H1 1112   1.464   1.119   2.038
  290WAT     H2 1113   1.520   0.970   2.069
  291WAT      O 1114   7.844  -0.003   2.695
  291WAT     H1 1115   7.890   0.032   2.614
  291WAT     H2 1116   7.882   0.040   2.777
  292WAT      O 1117   5.710   1.702   9.319
  292WAT     H1 1118   5.748   1.694   9.412
  292WAT     H2 1119   5.769   1.762   9.264
  293WAT      O 1120   3.253   3.402   0.439
  293WAT     H1 1121   3.192   3.331   0.475
  293WAT     H2 1122   3.336   3.359   0.403
  294WAT      O 1123   6.053   9.640   3.688
  294WAT     H1 1124   5.963   9.685   3.688
  294WAT     H2 1125   6.058   9.575   3.764
  295WAT      O 1126   0.159   7.013   2.739
  295WAT     H1 1127   0.227   7.014   2.665
  295WAT     H2 1128   0.179   6.937   2.801
  296WAT      O 1129   8.514   5.391   8.391
  296WAT     H1 1130   8.499   5.463   8.323
  296WAT     H2 1131   8.477   5.305   8.356
  297WAT      O 1132   5.240   6.232   5.225
  297WAT     H1 1133   5.251   6.132   5.219
  297WAT     H2 1134   5.144   6.256   5.211
  298WAT      O 1135   5.227   3.615   0.471
  298WAT     H1 1136   5.284   3.552   0.419
  298WAT     H2 1137   5.231   3.591   0.568
  299WAT      O 1138   3.812   7.571   9.868
  299WAT     H1 1139   3.891   7.552   9.810
  299WAT     H2 1140   3.794   7.491   9.926
  300WAT      O 1141   1.782   7.290   6.349
  300WAT     H1 1142   1.760   7.195   6.326
  300WAT     H2 1143   1.799   7.297   6.447
  301WAT      O 1144   9.317   0.796   2.921
  301WAT     H1 1145   9.394   0.783   2.984
  301WAT     H2 1146   9.268   0.880   2.945
  302WAT      O 1147   3.157   1.735   3.135
  302WAT     H1 1148   3.221   1.669   3.173
  302WAT     H2 1149   3.087   1.686   3.081
  303WAT      O 1150   9.034   4.187   0.470
  303WAT     H1 1151   9.041   4.112   0.405
  303WAT     H2 1152   9.115   4.187   0.529
  304WAT      O 1153   1.287   7.913   3.333
  304WAT     H1 1154   1.271   8.002   3.288
  304WAT     H2 1155   1.382   7.886   3.320
  305WAT      O 1156   9.057   4.014   4.055
  305WAT     H1 1157   9.125   3.997   4.126
  305WAT     H2 1158   9.099   4.065   3.980
  306WAT      O 1159   9.629   2.087   4.449
  306WAT     H1 1160   9.689   2.079   4.369
  306WAT     H2 1161   9.671   2.149   4.516
  307WAT      O 1162   2.335   2.300   5.892
  307WAT     H1 1163   2.336   2.258   5.801
  307WAT     H2 1164   2.415   2.270   5.944
  308WAT      O 1165   2.792   5.075   5.286
  308WAT     H1 1166   2.785   5.162   5.238
  308WAT     H2 1167   2.722   5.070   5.357
  309WAT      O 1168   2.024   7.034   2.086
  309WAT     H1 1169   1.995   6.986   2.170
  309WAT     H2 1170   2.122   7.023   2.074
  310WAT      O 1171   5.812   2.152   4.567
  310WAT     H1 1172   5.714   2.133   4.568
  310WAT     H2 1173   5.862   2.072   4.599
  311WAT      O 1174   7.842   1.586   4.616
  311WAT     H1 1175   7.804   1.581   4.709
  311WAT     H2 1176   7.878   1.496   4.591
  312WAT      O 1177   7.383   7.783   7.223
  312WAT     H1 1178   7.385   7.706   7.161
  312WAT     H2 1179   7.289   7.799   7.254
  313WAT      O 1180   7.169   1.194   1.848
  313WAT     H1 1181   7.075   1.162   1.838
  313WAT     H2 1182   7.182   1.277   1.794
  314WAT      O 1183   3.483   7.218   1.019
  314WAT     H1 1184   3.432   7.145   0.971
  314WAT     H2 1185   3.483   7.300   0.962
  315WAT      O 1186   4.988   8.869   8.311
  315WAT     H1 1187   5.039   8.923   8.245
  315WAT     H2 1188   4.893   8.860   8.280
  316WAT      O 1189   4.024   6.854   2.040
  316WAT     H1 1190   4.063   6.893   1.957
  316WAT     H2 1191   4.071   6.891   2.120
  317WAT      O 1192   8.601   5.665   5.893
  317WAT     H1 1193   8.520   5.722   5.878
  317WAT     H2 1194   8.677   5.721   5.926
  318WAT      O 1195   8.788   1.374   8.885
  318WAT     H1 1196   8.852   1.435   8.932
  318WAT     H2 1197   8.836   1.327   8.810
  319WAT      O 1198   7.741   6.261   5.953
  319WAT     H1 1199   7.655   6.305   5.927
  319WAT     H2 1200   7.803   6.259   5.875
  320WAT      O 1201   6.710   5.671   7.682
  320WAT     H1 1202   6.802   5.707   7.664
  320WAT     H2 1203   6.653   5.743   7.721
  321WAT      O 1204   4.848   1.567   3.596
  321WAT     H1 1205   4.849   1.468   3.583
  321WAT     H2 1206   4.795   1.610   3.523
  322WAT      O 1207   9.184   4.522   3.781
  322WAT     H1 1208   9.239   4.453   3.828
  322WAT     H2 1209   9.236   4.607   3.774
  323WAT      O 1210   6.202   0.604   7.765
  323WAT     H1 1211   6.291   0.574   7.800
  323WAT     H2 1212   6.200   0.704   7.761
  324WAT      O 1213   7.267   4.786   8.529
  324WAT     H1 1214   7.360   4.763   8.501
  324WAT     H2 1215   7.238   4.870   8.484
  325WAT      O 1216   9.700   9.643   8.173
  325WAT     H1 1217   9.656   9.733   8.184
  325WAT     H2 1218   9.633   9.571   8.188
  326WAT      O 1219   1.611   5.961   3.358
  326WAT     H1 1220   1.678   6.035   3.348
  326WAT     H2 1221   1.652   5.887   3.412
  327WAT      O 1222   1.919   7.717   1.291
  327WAT     H1 1223   1.959   7.807   1.310
  327WAT     H2 1224   1.950   7.652   1.360
  328WAT      O 1225   9.376   4.692   5.902
  328WAT     H1 1226   9.408   4.726   5.814
  328WAT     H2 1227   9.288   4.735   5.924
  329WAT      O 1228   1.512   6.198   4.796
  329WAT     H1 1229   1.602   6.194   4.753
  329WAT     H2 1230   1.521   6.189   4.895
  330WAT      O 1231   2.240   0.579   0.659
  330WAT     H1 1232   2.160   0.622   0.617
  330WAT     H2 1233   2.215   0.489   0.692
  331WAT      O 1234   6.679   5.090   5.264
  331WAT     H1 1235   6.579   5.094   5.272
  331WAT     H2 1236   6.710   5.160   5.199
  332WAT      O 1237   4.928   5.366   9.876
  332WAT     H1 1238   4.876   5.450   9.893
  332WAT     H2 1239   4.895   5.293   9.935
  333WAT      O 1240   7.731   5.444   5.046
  333WAT     H1 1241   7.752   5.403   5.135
  333WAT     H2 1242   7.705   5.372   4.982
  334WAT      O 1243   7.085   8.537   1.699
  334WAT     H1 1244   7.053   8.588   1.619
  334WAT     H2 1245   7.162   8.479   1.673
  335WAT      O 1246   2.110   8.198   3.829
  335WAT     H1 1247   2.185   8.134   3.846
  335WAT     H2 1248   2.093   8.204   3.731
  336WAT      O 1249   3.391   0.665   3.599
  336WAT     H1 1250   3.308   0.710   3.566
  336WAT     H2 1251   3.368   0.607   3.678
  337WAT      O 1252   3.959   2.306   8.422
  337WAT     H1 1253   3.897   2.227   8.420
  337WAT     H2 1254   3.995   2.318   8.515
  338WAT      O 1255   9.779   2.800   9.679
  338WAT     H1 1256   9.705   2.821   9.615
  338WAT     H2 1257   9.746   2.812   9.772
  339WAT      O 1258   6.762   6.650   9.239
  339WAT     H1 1259   6.814   6.598   9.171
  339WAT     H2 1260   6.700   6.713   9.192
  340WAT      O 1261   4.921   8.383   2.472
  340WAT     H1 1262   4.907   8.309   2.537
  340WAT     H2 1263   4.957   8.346   2.386
  341WAT      O 1264   3.003   5.958   1.722
  341WAT     H1 1265   2.925   6.005   1.763
  341WAT     H2 1266   2.990   5.859   1.731
  342WAT      O 1267   3.281   6.624   1.773
  342WAT     H1 1268   3.333   6.542   1.795
  342WAT     H2 1269   3.258   6.673   1.858
  343WAT      O 1270   3.645   1.161   6.925
  343WAT     H1 1271   3.681   1.194   7.012
  343WAT     H2 1272   3.707   1.092   6.887
  344WAT      O 1273   5.935   4.304   3.980
  344WAT     H1 1274   6.035   4.306   3.973
  344WAT     H2 1275   5.907   4.349   4.065
  345WAT      O 1276   4.577   6.204   7.372
  345WAT     H1 1277   4.653   6.246   7.323
  345WAT     H2 1278   4.610   6.124   7.424
  346WAT      O 1279   3.375   6.897   6.861
  346WAT     H1 1280   3.349   6.801   6.859
  346WAT     H2 1281   3.407   6.925   6.771
  347WAT      O 1282   3.092   7.860   9.115
  347WAT     H1 1283   3.026   7.829   9.047
  347WAT     H2 1284   3.043   7.890   9.197
  348WAT      O 1285   3.953   6.504   0.756
  348WAT     H1 1286   3.953   6.407   0.779
  348WAT     H2 1287   3.975   6.515   0.659
  349WAT      O 1288   7.298   3.785   0.168
  349WAT     H1 1289   7.344   3.814   0.084
  349WAT     H2 1290   7.284   3.864   0.227
  350WAT      O 1291   2.234   2.530   6.850
  350WAT     H1 1292   2.216   2.439   6.887
  350WAT     H2 1293   2.326   2.559   6.876
  351WAT      O 1294   6.737   3.477   8.369
  351WAT     H1 1295   6.646   3.515   8.386
  351WAT     H2 1296   6.777   3.522   8.290
  352WAT      O 1297   9.410   6.294   5.582
  352WAT     H1 1298   9.485   6.356   5.606
  352WAT     H2 1299   9.322   6.341   5.599
  353WAT      O 1300   8.362   4.641   8.434
  353WAT     H1 1301   8.369   4.673   8.340
  353WAT     H2 1302   8.267   4.650   8.465
  354WAT      O 1303   2.036   3.505   7.173
  354WAT     H1 1304   1.989   3.588   7.144
  354WAT     H2 1305   2.018   3.488   7.270
  355WAT      O 1306   1.879   0.565   9.842
  355WAT     H1 1307   1.863   0.467   9.859
  355WAT     H2 1308   1.933   0.603   9.917
  356WAT      O 1309   2.578   0.037   8.130
  356WAT     H1 1310   2.668   0.082   8.125
  356WAT     H2 1311   2.576  -0.040   8.067
  357WAT      O 1312   1.330   2.169   3.789
  357WAT     H1 1313   1.353   2.246   3.729
  357WAT     H2 1314   1.234   2.144   3.776
  358WAT      O 1315   3.109   8.380   7.660
  358WAT     H1 1316   3.095   8.437   7.579
  358WAT     H2 1317   3.146   8.292   7.633
  359WAT      O 1318   6.055   3.324   7.890
  359WAT     H1 1319   6.080   3.279   7.804
  359WAT     H2 1320   6.000   3.406   7.870
  360WAT      O 1321   4.710   5.056   3.169
  360WAT     H1 1322   4.649   5.105   3.231
  360WAT     H2 1323   4.731   5.113   3.089
  361WAT      O 1324   4.190   1.103   4.247
  361WAT     H1 1325   4.107   1.090   4.301
  361WAT     H2 1326   4.201   1.199   4.224
  362WAT      O 1327   7.851   5.728   6.724
  362WAT     H1 1328   7.828   5.775   6.809
  362WAT     H2 1329   7.920   5.781   6.674
  363WAT      O 1330   9.423   0.194   9.726
  363WAT     H1 1331   9.435   0.117   9.663
  363WAT     H2 1332   9.484   0.269   9.700
  364WAT      O 1333   8.245   1.729   5.604
  364WAT     H1 1334   8.324   1.696   5.656
  364WAT     H2 1335   8.191   1.792   5.660
  365WAT      O 1336   5.372   1.224   7.020
  365WAT     H1 1337   5.416   1.137   7.041
  365WAT     H2 1338   5.274   1.210   7.007
  366WAT      O 1339   9.066   8.144   0.426
  366WAT     H1 1340   9.108   8.105   0.344
  366WAT     H2 1341   9.057   8.243   0.414
  367WAT      O 1342   0.677   8.466   8.373
  367WAT     H1 1343   0.709   8.384   8.420
  367WAT     H2 1344   0.665   8.447   8.275
  368WAT      O 1345   1.116   4.400   8.180
  368WAT     H1 1346   1.124   4.302   8.199
  368WAT     H2 1347   1.204   4.445   8.194
  369WAT      O 1348   3.055   3.472   6.404
  369WAT     H1 1349   3.049   3.471   6.305
  369WAT     H2 1350   3.104   3.391   6.436
  370WAT      O 1351   5.544   9.167   6.596
  370WAT     H1 1352   5.616   9.174   6.526
  370WAT     H2 1353   5.495   9.254   6.602
  371WAT      O 1354   8.984   4.228   7.074
  371WAT     H1 1355   8.948   4.182   6.993
  371WAT     H2 1356   9.036   4.309   7.045
  372WAT      O 1357   3.084   4.834   8.615
  372WAT     H1 1358   3.037   4.917   8.586
  372WAT     H2 1359   3.018   4.759   8.621
  373WAT      O 1360   1.953   7.928   3.420
  373WAT     H1 1361   2.047   7.960   3.404
  373WAT     H2 1362   1.896   8.006   3.446
  374WAT      O 1363   3.902   6.620   5.965
  374WAT     H1 1364   3.870   6.690   5.901
  374WAT     H2 1365   4.001   6.627   5.975
  375WAT      O 1366   1.396   1.607   1.036
  375WAT     H1 1367   1.384   1.702   1.065
  375WAT     H2 1368   1.474   1.600   0.974
  376WAT      O 1369   0.591   3.999   3.868
  376WAT     H1 1370   0.575   3.955   3.956
  376WAT     H2 1371   0.554   3.942   3.795
  377WAT      O 1372   4.628   2.902   3.912
  377WAT     H1 1373   4.693   2.851   3.857
  377WAT     H2 1374   4.664   2.913   4.005
  378WAT      O 1375   7.673   0.356   4.820
  378WAT     H1 1376   7.583   0.313   4.825
  378WAT     H2 1377   7.663   0.455   4.815
  379WAT      O 1378   7.524   3.121   3.979
  379WAT     H1 1379   7.558   3.135   4.072
  379WAT     H2 1380   7.453   3.050   3.981
  380WAT      O 1381   3.547   8.494   7.632
  380WAT     H1 1382   3.613   8.523   7.701
  380WAT     H2 1383   3.547   8.395   7.625
  381WAT      O 1384   4.816   6.410   5.685
  381WAT     H1 1385   4.848   6.416   5.779
  381WAT     H2 1386   4.877   6.464   5.626
  382WAT      O 1387   1.925   2.720   0.953
  382WAT     H1 1388   1.847   2.782   0.949
  382WAT     H2 1389   1.909   2.642   0.892
  383WAT      O 1390   6.764   7.369   2.309
  383WAT     H1 1391   6.746   7.291   2.369
  383WAT     H2 1392   6.732   7.347   2.216
  384WAT      O 1393   9.068   5.347   7.198
  384WAT     H1 1394   8.986   5.394   7.229
  384WAT     H2 1395   9.046   5.287   7.121
  385WAT      O 1396   5.041   3.722   8.345
  385WAT     H1 1397   5.100   3.722   8.426
  385WAT     H2 1398   5.085   3.668   8.272
  386WAT      O 1399   2.125   8.683   6.688
  386WAT     H1 1400   2.156   8.727   6.604
  386WAT     H2 1401   2.032   8.647   6.674
  387WAT      O 1402   5.166   5.504   0.413
  387WAT     H1 1403   5.230   5.432   0.440
  387WAT     H2 1404   5.117   5.536   0.494
  388WAT      O 1405   1.964   4.079   0.173
  388WAT     H1 1406   1.885   4.101   0.116
  388WAT     H2 1407   1.989   4.160   0.227
  389WAT      O 1408   0.854   5.404   7.880
  389WAT     H1 1409   0.938   5.456   7.890
  389WAT     H2 1410   0.798   5.415   7.962
  390WAT      O 1411   7.265   3.679   9.096
  390WAT     H1 1412   7.268   3.702   8.999
  390WAT     H2 1413   7.171   3.690   9.130
  391WAT      O 1414   7.674   6.505   0.257
  391WAT     H1 1415   7.695   6.504   0.355
  391WAT     H2 1416   7.617   6.427   0.234
  392WAT      O 1417   9.226   8.899   6.500
  392WAT     H1 1418   9.150   8.962   6.514
  392WAT     H2 1419   9.257   8.865   6.589
  393WAT      O 1420   8.902   1.073   0.246
  393WAT     H1 1421   8.815   1.070   0.198
  393WAT     H2 1422   8.886   1.063   0.344
  394WAT      O 1423   5.831   2.160   2.981
  394WAT     H1 1424   5.837   2.103   3.063
  394WAT     H2 1425   5.918   2.157   2.932
  395WAT      O 1426   1.251   1.992   4.624
  395WAT     H1 1427   1.337   1.944   4.610
  395WAT     H2 1428   1.201   1.996   4.537
  396WAT      O 1429   0.657   6.386   4.484
  396WAT     H1 1430   0.675   6.305   4.428
  396WAT     H2 1431   0.741   6.412   4.532
  397WAT      O 1432   6.042   7.748   4.452
  397WAT     H1 1433   6.100   7.824   4.424
  397WAT     H2 1434   5.963   7.741   4.391
  398WAT      O 1435   9.566   4.005   8.979
  398WAT     H1 1436   9.660   3.987   8.952
  398WAT     H2 1437   9.527   3.925   9.024
  399WAT      O 1438   0.655   0.344   6.412
  399WAT     H1 1439   0.640   0.298   6.499
  399WAT     H2 1440   0.680   0.277   6.342
  400WAT      O 1441   0.758   6.577   0.793
  400WAT     H1 1442   0.757   6.623   0.882
  400WAT     H2 1443   0.841   6.602   0.744
  401WAT      O 1444   1.939   5.927   0.209
  401WAT     H1 1445   1.858   5.984   0.199
  401WAT     H2 1446   1.946   5.895   0.304
  402WAT      O 1447   8.871   2.203   2.899
  402WAT     H1 1448   8.892   2.229   2.805
  402WAT     H2 1449   8.790   2.252   2.930
  403WAT      O 1450   8.688   8.836   7.155
  403WAT     H1 1451   8.688   8.838   7.055
  403WAT     H2 1452   8.736   8.916   7.190
  404WAT      O 1453   4.431   2.228   7.088
  404WAT     H1 1454   4.489   2.236   7.168
  404WAT     H2 1455   4.357   2.295   7.093
  405WAT      O 1456   5.769   9.085   8.003
  405WAT     H1 1457   5.740   9.060   8.095
  405WAT     H2 1458   5.840   9.022   7.972
  406WAT      O 1459   6.249   8.610   8.994
  406WAT     H1 1460   6.183   8.608   8.919
  406WAT     H2 1461   6.342   8.607   8.956
  407WAT      O 1462   2.941   8.788   7.574
  407WAT     H1 1463   2.926   8.854   7.648
  407WAT     H2 1464   2.951   8.838   7.488
  408WAT      O 1465   1.782   0.018   4.187
  408WAT     H1 1466   1.727   0.058   4.260
  408WAT     H2 1467   1.723  -0.009   4.111
  409WAT      O 1468   4.027   7.004   5.859
  409WAT     H1 1469   4.080   7.072   5.808
  409WAT     H2 1470   4.087   6.951   5.919
  410WAT      O 1471   9.384   7.734   7.569
  410WAT     H1 1472   9.333   7.729   7.655
  410WAT     H2 1473   9.464   7.793   7.581
  411WAT      O 1474   1.984   8.283   6.132
  411WAT     H1 1475   1.973   8.357   6.199
  411WAT     H2 1476   1.984   8.195   6.178
  412WAT      O 1477   5.002   0.179   6.100
  412WAT     H1 1478   4.987   0.081   6.088
  412WAT     H2 1479   4.958   0.230   6.025
  413WAT      O 1480   5.637   9.268   3.389
  413WAT     H1 1481   5.642   9.199   3.461
  413WAT     H2 1482   5.692   9.347   3.415
  414WAT      O 1483   8.499   8.643   6.090
  414WAT     H1 1484   8.550   8.609   6.169
  414WAT     H2 1485   8.468   8.566   6.035
  415WAT      O 1486   4.088   7.571   8.166
  415WAT     H1 1487   4.001   7.534   8.195
  415WAT     H2 1488   4.095   7.667   8.195
  416WAT      O 1489   5.070   0.537   0.653
  416WAT     H1 1490   5.160   0.551   0.611
  416WAT     H2 1491   5.038   0.445   0.632
  417WAT      O 1492   8.751   2.900   5.368
  417WAT     H1 1493   8.839   2.863   5.337
  417WAT     H2 1494   8.712   2.959   5.298
  418WAT      O 1495   8.428   0.617   7.544
  418WAT     H1 1496   8.389   0.537   7.500
  418WAT     H2 1497   8.506   0.589   7.600
  419WAT      O 1498   7.556   1.341   5.170
  419WAT     H1 1499   7.575   1.324   5.267
  419WAT     H2 1500   7.605   1.274   5.114
  420WAT      O 1501   0.957   7.962   6.038
  420WAT     H1 1502   0.910   8.004   6.116
  420WAT     H2 1503   0.934   7.865   6.033
  421WAT      O 1504   2.455   3.492   5.707
  421WAT     H1 1505   2.380   3.509   5.771
  421WAT     H2 1506   2.536   3.462   5.757
  422WAT      O 1507   4.061   2.241   1.310
  422WAT     H1 1508   4.095   2.159   1.264
  422WAT     H2 1509   4.059   2.317   1.246
  423WAT      O 1510   6.843   8.579   0.413
  423WAT     H1 1511   6.822   8.597   0.317
  423WAT     H2 1512   6.942   8.588   0.428
  424WAT      O 1513   9.630   6.061   7.861
  424WAT     H1 1514   9.540   6.100   7.878
  424WAT     H2 1515   9.622   5.961   7.852
  425WAT      O 1516   4.902   0.725   7.219
  425WAT     H1 1517   4.820   0.780   7.235
  425WAT     H2 1518   4.904   0.696   7.123
  426WAT      O 1519   9.571   0.921   8.221
  426WAT     H1 1520   9.517   0.976   8.285
  426WAT     H2 1521   9.581   0.971   8.135
  427WAT      O 1522   6.611   1.583   1.691
  427WAT     H1 1523   6.512   1.570   1.684
  427WAT     H2 1524   6.656   1.495   1.703
  428WAT      O 1525   2.430   7.587   5.737
  428WAT     H1 1526   2.478   7.653   5.795
  428WAT     H2 1527   2.456   7.602   5.641
  429WAT      O 1528   1.766   7.226   1.231
  429WAT     H1 1529   1.691   7.227   1.298
  429WAT     H2 1530   1.761   7.308   1.175
  430WAT      O 1531   4.176   3.591   7.776
  430WAT     H1 1532   4.135   3.675   7.810
  430WAT     H2 1533   4.159   3.517   7.841
  431WAT      O 1534   4.303   7.431   9.829
  431WAT     H1 1535   4.326   7.406   9.734
  431WAT     H2 1536   4.355   7.373   9.891
  432WAT      O 1537   7.596   8.194   0.884
  432WAT     H1 1538   7.683   8.202   0.837
  432WAT     H2 1539   7.594   8.110   0.938
  433WAT      O 1540   1.592   4.627   9.002
  433WAT     H1 1541   1.588   4.716   9.046
  433WAT     H2 1542   1.676   4.619   8.948
  434WAT      O 1543   1.737   3.126   0.969
  434WAT     H1 1544   1.835   3.136   0.986
  434WAT     H2 1545   1.705   3.202   0.911
  435WAT      O 1546   2.099   9.487   5.054
  435WAT     H1 1547   2.150   9.564   5.093
  435WAT     H2 1548   2.118   9.404   5.107
  436WAT      O 1549   6.563   9.493   7.449
  436WAT     H1 1550   6.632   9.464   7.383
  436WAT     H2 1551   6.601   9.488   7.542
  437WAT      O 1552   9.352   8.602   3.303
  437WAT     H1 1553   9.382   8.506   3.309
  437WAT     H2 1554   9.296   8.614   3.221
  438WAT      O 1555   1.468   1.767   4.602
  438WAT     H1 1556   1.527   1.847   4.615
  438WAT     H2 1557   1.452   1.723   4.691
  439WAT      O 1558   2.767   1.297   7.411
  439WAT     H1 1559   2.712   1.217   7.437
  439WAT     H2 1560   2.835   1.270   7.344
  440WAT      O 1561   7.948   8.373   8.911
  440WAT     H1 1562   7.903   8.377   9.000
  440WAT     H2 1563   8.014   8.448   8.904
  441WAT      O 1564   0.105   8.730   5.033
  441WAT     H1 1565   0.116   8.827   5.054
  441WAT     H2 1566   0.103   8.677   5.119
  442WAT      O 1567   9.604   1.403   3.170
  442WAT     H1 1568   9.571   1.467   3.240
  442WAT     H2 1569   9.657   1.454   3.102
  443WAT      O 1570   7.869   6.238   0.931
  443WAT     H1 1571   7.780   6.283   0.924
  443WAT     H2 1572   7.922   6.280   1.005
  444WAT      O 1573   3.439   2.595   3.692
  444WAT     H1 1574   3.443   2.512   3.636
  444WAT     H2 1575   3.510   2.658   3.662
  445WAT      O 1576   6.089   7.410   9.108
  445WAT     H1 1577   6.080   7.310   9.109
  445WAT     H2 1578   6.086   7.443   9.014
  446WAT      O 1579   6.472   1.024   6.579
  446WAT     H1 1580   6.498   0.929   6.596
  446WAT     H2 1581   6.553   1.078   6.558
  447WAT      O 1582   6.454   6.322   8.546
  447WAT     H1 1583   6.476   6.277   8.633
  447WAT     H2 1584   6.388   6.396   8.563
  448WAT      O 1585   7.637   0.111   1.780
  448WAT     H1 1586   7.540   0.121   1.758
  448WAT     H2 1587   7.647   0.094   1.878
  449WAT      O 1588   7.642   3.900   6.469
  449WAT     H1 1589   7.571   3.900   6.398
  449WAT     H2 1590   7.607   3.946   6.551
  450WAT      O 1591   4.417   0.327   1.093
  450WAT     H1 1592   4.423   0.239   1.046
  450WAT     H2 1593   4.418   0.401   1.026
  451WAT      O 1594   6.287   8.671   2.763
  451WAT     H1 1595   6.277   8.575   2.733
  451WAT     H2 1596   6.361   8.678   2.829
  452WAT      O 1597   9.105   1.182   4.754
  452WAT     H1 1598   9.201   1.190   4.727
  452WAT     H2 1599   9.056   1.265   4.726
  453WAT      O 1600   5.848   4.243   8.235
  453WAT     H1 1601   5.936   4.233   8.283
  453WAT     H2 1602   5.802   4.325   8.268
  454WAT      O 1603   2.027   7.987   2.577
  454WAT     H1 1604   1.992   7.908   2.627
  454WAT     H2 1605   1.951   8.040   2.541
  455WAT      O 1606   3.315   4.788   1.299
  455WAT     H1 1607   3.351   4.803   1.391
  455WAT     H2 1608   3.391   4.773   1.236
  456WAT      O 1609   4.834   4.246   6.267
  456WAT     H1 1610   4.796   4.303   6.340
  456WAT     H2 1611   4.933   4.243   6.276
  457WAT      O 1612   5.152   8.284   5.045
  457WAT     H1 1613   5.132   8.343   5.123
  457WAT     H2 1614   5.123   8.190   5.067
  458WAT      O 1615   7.543   3.101   0.728
  458WAT     H1 1616   7.461   3.158   0.720
  458WAT     H2 1617   7.583   3.113   0.818
  459WAT      O 1618   7.294   5.310   1.377
  459WAT     H1 1619   7.325   5.354   1.462
  459WAT     H2 1620   7.242   5.376   1.323
  460WAT      O 1621   6.191   7.194   5.896
  460WAT     H1 1622   6.255   7.240   5.958
  460WAT     H2 1623   6.147   7.118   5.943
  461WAT      O 1624   0.372   2.917   3.053
  461WAT     H1 1625   0.464   2.943   3.083
  461WAT     H2 1626   0.373   2.822   3.023
  462WAT      O 1627   3.917   8.695   7.634
  462WAT     H1 1628   3.846   8.755   7.596
  462WAT     H2 1629   3.895   8.600   7.613
  463WAT      O 1630   3.891   6.120   2.893
  463WAT     H1 1631   3.929   6.212   2.906
  463WAT     H2 1632   3.849   6.114   2.802
  464WAT      O 1633   7.700   8.717   3.914
  464WAT     H1 1634   7.660   8.703   4.005
  464WAT     H2 1635   7.794   8.684   3.914
  465WAT      O 1636   6.715   3.510   0.119
  465WAT     H1 1637   6.746   3.537   0.028
  465WAT     H2 1638   6.617   3.489   0.115
  466WAT      O 1639   7.901   5.194   1.356
  466WAT     H1 1640   7.989   5.188   1.308
  466WAT     H2 1641   7.857   5.281   1.333
  467WAT      O 1642   9.434   5.323   4.767
  467WAT     H1 1643   9.494   5.373   4.830
  467WAT     H2 1644   9.350   5.297   4.814
  468WAT      O 1645   7.764   4.770   7.957
  468WAT     H1 1646   7.827   4.789   7.882
  468WAT     H2 1647   7.799   4.692   8.010
  469WAT      O 1648   2.814   6.571   7.770
  469WAT     H1 1649   2.786   6.556   7.676
  469WAT     H2 1650   2.907   6.537   7.784
  470WAT      O 1651   7.701   3.701   0.912
  470WAT     H1 1652   7.701   3.701   1.012
  470WAT     H2 1653   7.776   3.643   0.879
  471WAT      O 1654   1.271   2.167   3.114
  471WAT     H1 1655   1.285   2.254   3.065
  471WAT     H2 1656   1.340   2.101   3.084
  472WAT      O 1657   3.959   7.939   6.893
  472WAT     H1 1658   4.042   7.891   6.920
  472WAT     H2 1659   3.964   7.961   6.795
  473WAT      O 1660   7.488   0.739   1.976
  473WAT     H1 1661   7.488   0.834   1.946
  473WAT     H2 1662   7.551   0.686   1.918
  474WAT      O 1663   3.255   9.028   1.953
  474WAT     H1 1664   3.323   9.066   2.016
  474WAT     H2 1665   3.225   8.939   1.986
  475WAT      O 1666   0.913   0.014   9.036
  475WAT     H1 1667   0.947   0.084   8.973
  475WAT     H2 1668   0.815   0.028   9.051
  476WAT      O 1669   1.865   3.487   7.425
  476WAT     H1 1670   1.917   3.450   7.502
  476WAT     H2 1671   1.788   3.427   7.405
  477WAT      O 1672   5.832   3.843   9.171
  477WAT     H1 1673   5.760   3.883   9.114
  477WAT     H2 1674   5.838   3.892   9.258
  478WAT      O 1675   1.272   7.060   0.175
  478WAT     H1 1676   1.306   7.059   0.081
  478WAT     H2 1677   1.172   7.070   0.174
  479WAT      O 1678   6.323   9.181   6.651
  479WAT     H1 1679   6.307   9.158   6.747
  479WAT     H2 1680   6.235   9.185   6.603
  480WAT      O 1681   4.503   0.444   0.362
  480WAT     H1 1682   4.534   0.506   0.434
  480WAT     H2 1683   4.581   0.397   0.322
  481WAT      O 1684   4.048   0.433   0.996
  481WAT     H1 1685   4.141   0.420   0.961
  481WAT     H2 1686   4.051   0.487   1.080
  482WAT      O 1687   0.752   0.321   7.637
  482WAT     H1 1688   0.832   0.311   7.697
  482WAT     H2 1689   0.669   0.308   7.691
  483WAT      O 1690   6.472   4.776   4.637
  483WAT     H1 1691   6.424   4.773   4.550
  483WAT     H2 1692   6.513   4.867   4.650
  484WAT      O 1693   9.708   6.927   5.665
  484WAT     H1 1694   9.730   6.929   5.567
  484WAT     H2 1695   9.712   6.833   5.698
  485WAT      O 1696   4.934   5.086   8.886
  485WAT     H1 1697   4.904   4.990   8.886
  485WAT     H2 1698   4.902   5.130   8.802
  486WAT      O 1699   4.094   9.189   3.833
  486WAT     H1 1700   4.186   9.168   3.867
  486WAT     H2 1701   4.100   9.236   3.745
  487WAT      O 1702   5.306   2.809   0.007
  487WAT     H1 1703   5.314   2.719  -0.036
  487WAT     H2 1704   5.320   2.880  -0.062
  488WAT      O 1705   3.413   1.943   7.155
  488WAT     H1 1706   3.437   1.853   7.193
  488WAT     H2 1707   3.377   1.931   7.062
  489WAT      O 1708   9.222   9.554   4.600
  489WAT     H1 1709   9.231   9.597   4.511
  489WAT     H2 1710   9.232   9.623   4.672
  490WAT      O 1711   0.100   0.447   8.112
  490WAT     H1 1712   0.132   0.539   8.135
  490WAT     H2 1713   0.076   0.398   8.196
  491WAT      O 1714   0.909   2.720   3.026
  491WAT     H1 1715   0.815   2.754   3.024
  491WAT     H2 1716   0.913   2.637   3.081
  492WAT      O 1717   1.923   0.706   3.112
  492WAT     H1 1718   1.949   0.613   3.084
  492WAT     H2 1719   1.917   0.711   3.211
  493WAT      O 1720   1.541   7.610   4.789
  493WAT     H1 1721   1.558   7.704   4.757
  493WAT     H2 1722   1.445   7.588   4.775
  494WAT      O 1723   5.045   4.495  -0.000
  494WAT     H1 1724   4.994   4.458   0.078
  494WAT     H2 1725   4.982   4.541  -0.062
  495WAT      O 1726   6.799   0.587   8.905
  495WAT     H1 1727   6.780   0.640   8.988
  495WAT     H2 1728   6.873   0.523   8.924
  496WAT      O 1729   1.194   7.018   1.772
  496WAT     H1 1730   1.292   7.034   1.762
  496WAT     H2 1731   1.147   7.105   1.789
  497WAT      O 1732   4.081   0.167   3.872
  497WAT     H1 1733   4.178   0.184   3.855
  497WAT     H2 1734   4.067   0.071   3.895
  498WAT      O 1735   3.449   5.895   6.828
  498WAT     H1 1736   3.367   5.930   6.784
  498WAT     H2 1737   3.443   5.911   6.926
  499WAT      O 1738   9.687   1.472   2.329
  499WAT     H1 1739   9.640   1.402   2.274
  499WAT     H2 1740   9.621   1.516   2.390
  500WAT      O 1741   1.982   0.057   8.311
  500WAT     H1 1742   2.041  -0.008   8.359
  500WAT     H2 1743   1.999   0.149   8.345
  501WAT      O 1744   7.168   8.185   3.951
  501WAT     H1 1745   7.093   8.119   3.949
  501WAT     H2 1746   7.166   8.241   3.868
  502WAT      O 1747   9.676   4.334   3.284
  502WAT     H1 1748   9.703   4.240   3.307
  502WAT     H2 1749   9.746   4.375   3.226
  503WAT      O 1750   7.079   9.399   5.056
  503WAT     H1 1751   7.123   9.310   5.057
  503WAT     H2 1752   7.046   9.421   5.148
  504WAT      O 1753   7.522   6.685   5.403
  504WAT     H1 1754   7.482   6.681   5.311
  504WAT     H2 1755   7.620   6.700   5.396
  505WAT      O 1756   4.302   7.914   9.170
  505WAT     H1 1757   4.289   8.003   9.215
  505WAT     H2 1758   4.212   7.873   9.153
  506WAT      O 1759   6.488   8.251   7.801
  506WAT     H1 1760   6.576   8.267   7.757
  506WAT     H2 1761   6.415   8.286   7.743
  507WAT      O 1762   6.426   7.448   2.863
  507WAT     H1 1763   6.449   7.470   2.958
  507WAT     H2 1764   6.335   7.483   2.841
  508WAT      O 1765   1.419   0.339   1.949
  508WAT     H1 1766   1.367   0.293   2.021
  508WAT     H2 1767   1.417   0.438   1.964
  509WAT      O 1768   1.468   9.419   3.796
  509WAT     H1 1769   1.477   9.454   3.703
  509WAT     H2 1770   1.382   9.369   3.805
  510WAT      O 1771   9.477   5.167   6.909
  510WAT     H1 1772   9.379   5.168   6.929
  510WAT     H2 1773   9.491   5.165   6.810
  511WAT      O 1774   7.525   7.030   8.006
  511WAT     H1 1775   7.462   6.969   7.959
  511WAT     H2 1776   7.492   7.124   7.999
  512WAT      O 1777   3.932   7.701   2.691
  512WAT     H1 1778   3.894   7.612   2.713
  512WAT     H2 1779   3.908   7.766   2.763
  513WAT      O 1780   5.422   3.743   9.629
  513WAT     H1 1781   5.406   3.727   9.531
  513WAT     H2 1782   5.513   3.781   9.642
  514WAT      O 1783   6.080   6.503   6.317
  514WAT     H1 1784   6.133   6.477   6.236
  514WAT     H2 1785   6.139   6.553   6.380
  515WAT      O 1786   3.306   2.843   5.658
  515WAT     H1 1787   3.321   2.939   5.680
  515WAT     H2 1788   3.372   2.814   5.588
  516WAT      O 1789   1.167   5.924   6.906
  516WAT     H1 1790   1.106   5.965   6.839
  516WAT     H2 1791   1.179   5.827   6.885
  517WAT      O 1792   6.290   4.733   4.867
  517WAT     H1 1793   6.222   4.804   4.848
  517WAT     H2 1794   6.363   4.738   4.799
  518WAT      O 1795   0.450   2.221   4.456
  518WAT     H1 1796   0.522   2.276   4.499
  518WAT     H2 1797   0.412   2.158   4.523
  519WAT      O 1798   5.636   0.730   9.724
  519WAT     H1 1799   5.585   0.731   9.809
  519WAT     H2 1800   5.647   0.636   9.692
  520WAT      O 1801   8.910   8.193   2.728
  520WAT     H1 1802   8.816   8.212   2.700
  520WAT     H2 1803   8.973   8.250   2.675
  521WAT      O 1804   1.600   1.063   5.968
  521WAT     H1 1805   1.617   0.986   5.907
  521WAT     H2 1806   1.677   1.074   6.031
  522WAT      O 1807   3.930   0.063   6.443
  522WAT     H1 1808   3.846   0.014   6.466
  522WAT     H2 1809   3.931   0.084   6.346
  523WAT      O 1810   9.608   4.286   9.278
  523WAT     H1 1811   9.569   4.295   9.186
  523WAT     H2 1812   9.655   4.371   9.302
  524WAT      O 1813   9.321   2.992   7.939
  524WAT     H1 1814   9.272   3.050   7.873
  524WAT     H2 1815   9.272   2.907   7.952
  525WAT      O 1816   7.810   0.060   1.285
  525WAT     H1 1817   7.736  -0.006   1.294
  525WAT     H2 1818   7.887   0.032   1.343
  526WAT      O 1819   6.330   3.267   2.222
  526WAT     H1 1820   6.250   3.234   2.173
  526WAT     H2 1821   6.413   3.240   2.173
  527WAT      O 1822   1.582   2.015   5.086
  527WAT     H1 1823   1.538   2.040   5.173
  527WAT     H2 1824   1.637   1.932   5.100
  528WAT      O 1825   1.530   2.630   1.210
  528WAT     H1 1826   1.480   2.693   1.152
  528WAT     H2 1827   1.472   2.552   1.233
  529WAT      O 1828   0.235   7.220   9.068
  529WAT     H1 1829   0.305   7.217   8.997
  529WAT     H2 1830   0.175   7.298   9.051
  530WAT      O 1831   0.623   3.898   0.936
  530WAT     H1 1832   0.674   3.928   0.856
  530WAT     H2 1833   0.561   3.970   0.966
  531WAT      O 1834   5.633   9.788   2.510
  531WAT     H1 1835   5.609   9.695   2.536
  531WAT     H2 1836   5.550   9.842   2.499
  532WAT      O 1837   4.171   7.018   2.209
  532WAT     H1 1838   4.258   6.973   2.189
  532WAT     H2 1839   4.189   7.105   2.256
  533WAT      O 1840   1.660   5.713   6.413
  533WAT     H1 1841   1.681   5.615   6.409
  533WAT     H2 1842   1.586   5.734   6.349
  534WAT      O 1843   6.775   7.655   4.237
  534WAT     H1 1844   6.781   7.564   4.279
  534WAT     H2 1845   6.796   7.649   4.140
  535WAT      O 1846   5.622   4.738   6.124
  535WAT     H1 1847   5.645   4.770   6.032
  535WAT     H2 1848   5.639   4.811   6.190
  536WAT      O 1849   7.720   3.564   6.197
  536WAT     H1 1850   7.667   3.485   6.167
  536WAT     H2 1851   7.691   3.590   6.289
  537WAT      O 1852   1.658   4.082   4.991
  537WAT     H1 1853   1.631   4.092   5.086
  537WAT     H2 1854   1.677   3.985   4.972
  538WAT      O 1855   5.180   7.613   0.128
  538WAT     H1 1856   5.114   7.686   0.109
  538WAT     H2 1857   5.145   7.555   0.201
  539WAT      O 1858   7.513   9.136   4.322
  539WAT     H1 1859   7.528   9.231   4.351
  539WAT     H2 1860   7.582   9.110   4.256
  540WAT      O 1861   1.483   5.997   7.919
  540WAT     H1 1862   1.560   5.973   7.860
  540WAT     H2 1863   1.491   5.948   8.006
  541WAT      O 1864   9.484   0.112   8.848
  541WAT     H1 1865   9.448   0.019   8.857
  541WAT     H2 1866   9.408   0.177   8.846
  542WAT      O 1867   2.649   0.923   4.510
  542WAT     H1 1868   2.602   0.876   4.585
  542WAT     H2 1869   2.633   0.873   4.424
  543WAT      O 1870   2.681   3.769   0.247
  543WAT     H1 1871   2.780   3.779   0.255
  543WAT     H2 1872   2.654   3.676   0.273
  544WAT      O 1873   9.639   1.146   4.782
  544WAT     H1 1874   9.694   1.102   4.710
  544WAT     H2 1875   9.698   1.204   4.838
  545WAT      O 1876   1.930   5.014   1.596
  545WAT     H1 1877   2.029   5.029   1.592
  545WAT     H2 1878   1.911   4.917   1.584
  546WAT      O 1879   2.422   9.579   8.983
  546WAT     H1 1880   2.499   9.519   9.003
  546WAT     H2 1881   2.408   9.641   9.059
  547WAT      O 1882   8.234   7.754   0.670
  547WAT     H1 1883   8.295   7.743   0.592
  547WAT     H2 1884   8.166   7.680   0.669
  548WAT      O 1885   2.350   8.699   7.334
  548WAT     H1 1886   2.358   8.795   7.362
  548WAT     H2 1887   2.298   8.693   7.249
  549WAT      O 1888   0.964   4.178   9.239
  549WAT     H1 1889   0.999   4.119   9.166
  549WAT     H2 1890   1.024   4.171   9.319
  550WAT      O 1891   8.533   8.354   7.934
  550WAT     H1 1892   8.613   8.298   7.914
  550WAT     H2 1893   8.479   8.311   8.007
  551WAT      O 1894   2.669   6.145   3.504
  551WAT     H1 1895   2.613   6.098   3.572
  551WAT     H2 1896   2.630   6.131   3.413
  552WAT      O 1897   1.527   9.715   2.668
  552WAT     H1 1898   1.526   9.622   2.630
  552WAT     H2 1899   1.487   9.714   2.759
  553WAT      O 1900   1.357   2.551   2.283
  553WAT     H1 1901   1.439   2.494   2.280
  553WAT     H2 1902   1.317   2.547   2.375
  554WAT      O 1903   3.276   9.324   5.712
  554WAT     H1 1904   3.239   9.250   5.768
  554WAT     H2 1905   3.312   9.286   5.627
  555WAT      O 1906   7.606   8.338   8.911
  555WAT     H1 1907   7.594   8.268   8.840
  555WAT     H2 1908   7.658   8.415   8.873
  556WAT      O 1909   4.202   9.206   0.645
  556WAT     H1 1910   4.180   9.253   0.559
  556WAT     H2 1911   4.220   9.273   0.716
  557WAT      O 1912   8.318   1.452   1.614
  557WAT     H1 1913   8.309   1.462   1.515
  557WAT     H2 1914   8.275   1.530   1.660
  558WAT      O 1915   5.237   4.214   2.132
  558WAT     H1 1916   5.335   4.225   2.119
  558WAT     H2 1917   5.191   4.301   2.117
  559WAT      O 1918   6.751   0.257   1.410
  559WAT     H1 1919   6.683   0.186   1.430
  559WAT     H2 1920   6.813   0.224   1.338
  560WAT      O 1921   5.629   8.933   9.579
  560WAT     H1 1922   5.563   8.920   9.506
  560WAT     H2 1923   5.719   8.952   9.539
  561WAT      O 1924   0.103   2.842   1.294
  561WAT     H1 1925   0.157   2.763   1.324
  561WAT     H2 1926   0.045   2.873   1.369
  562WAT      O 1927   6.786   6.312   0.876
  562WAT     H1 1928   6.800   6.213   0.866
  562WAT     H2 1929   6.844   6.346   0.950
  563WAT      O 1930   4.619   9.637   0.568
  563WAT     H1 1931   4.634   9.683   0.655
  563WAT     H2 1932   4.582   9.546   0.585
  564WAT      O 1933   1.869   3.000   2.182
  564WAT     H1 1934   1.911   2.951   2.106
  564WAT     H2 1935   1.940   3.044   2.238
  565WAT      O 1936   7.502   7.088   9.871
  565WAT     H1 1937   7.588   7.062   9.829
  565WAT     H2 1938   7.457   7.007   9.909
  566WAT      O 1939   2.608   7.589   0.578
  566WAT     H1 1940   2.645   7.497   0.566
  566WAT     H2 1941   2.672   7.656   0.540
  567WAT      O 1942   5.500   7.956   8.108
  567WAT     H1 1943   5.410   7.965   8.150
  567WAT     H2 1944   5.569   7.947   8.180
  568WAT      O 1945   3.453   7.718   7.878
  568WAT     H1 1946   3.448   7.780   7.957
  568WAT     H2 1947   3.365   7.716   7.832
  569WAT      O 1948   8.696   1.035   5.360
  569WAT     H1 1949   8.609   1.018   5.408
  569WAT     H2 1950   8.763   0.968   5.390
  570WAT      O 1951   0.117   4.751   5.859
  570WAT     H1 1952   0.121   4.669   5.803
  570WAT     H2 1953   0.164   4.735   5.946
  571WAT      O 1954   3.588   0.129   3.124
  571WAT     H1 1955   3.506   0.072   3.122
  571WAT     H2 1956   3.657   0.087   3.183
  572WAT      O 1957   6.389   4.984   6.197
  572WAT     H1 1958   6.470   4.983   6.139
  572WAT     H2 1959   6.410   5.030   6.283
  573WAT      O 1960   0.363   4.424   2.838
  573WAT     H1 1961   0.270   4.442   2.805
  573WAT     H2 1962   0.422   4.400   2.761
  574WAT      O 1963   7.250   7.829   3.705
  574WAT     H1 1964   7.207   7.855   3.792
  574WAT     H2 1965   7.309   7.750   3.719
  575WAT      O 1966   7.575   6.809   6.297
  575WAT     H1 1967   7.633   6.774   6.371
  575WAT     H2 1968   7.493   6.851   6.335
  576WAT      O 1969   5.308   2.247   1.363
  576WAT     H1 1970   5.307   2.290   1.453
  576WAT     H2 1971   5.273   2.311   1.294
  577WAT      O 1972   1.284   2.617   6.420
  577WAT     H1 1973   1.361   2.626   6.357
  577WAT     H2 1974   1.290   2.686   6.491
  578WAT      O 1975   0.343   9.211   2.784
  578WAT     H1 1976   0.291   9.148   2.726
  578WAT     H2 1977   0.331   9.185   2.880
  579WAT      O 1978   6.111   0.872   1.972
  579WAT     H1 1979   6.065   0.814   1.905
  579WAT     H2 1980   6.077   0.852   2.064
  580WAT      O 1981   5.699   1.607   3.972
  580WAT     H1 1982   5.779   1.616   3.912
  580WAT     H2 1983   5.725   1.552   4.052
  581WAT      O 1984   5.968   6.177   4.954
  581WAT     H1 1985   5.973   6.103   5.021
  581WAT     H2 1986   5.949   6.138   4.863
  582WAT      O 1987   9.597   6.777   1.569
  582WAT     H1 1988   9.593   6.783   1.669
  582WAT     H2 1989   9.510   6.744   1.533
  583WAT      O 1990   4.102   5.903   6.306
  583WAT     H1 1991   4.128   5.989   6.349
  583WAT     H2 1992   4.048   5.921   6.224
  584WAT      O 1993   6.624   9.005   4.443
  584WAT     H1 1994   6.668   8.935   4.386
  584WAT     H2 1995   6.651   9.096   4.411
  585WAT      O 1996   7.805   7.002   2.904
  585WAT     H1 1997   7.749   6.933   2.949
  585WAT     H2 1998   7.851   6.961   2.825
  586WAT      O 1999   5.808   2.595   4.067
  586WAT     H1 2000   5.755   2.603   3.982
  586WAT     H2 2001   5.871   2.672   4.074
  587WAT      O 2002   6.941   8.806   9.488
  587WAT     H1 2003   6.937   8.709   9.513
  587WAT     H2 2004   7.034   8.829   9.460
  588WAT      O 2005   4.505   1.526   1.166
  588WAT     H1 2006   4.577   1.578   1.213
  588WAT     H2 2007   4.475   1.450   1.225
  589WAT      O 2008   4.219   5.032   2.370
  589WAT     H1 2009   4.255   5.053   2.461
  589WAT     H2 2010   4.233   5.111   2.310
  590WAT      O 2011   4.141   3.962   9.329
  590WAT     H1 2012   4.058   4.007   9.361
  590WAT     H2 2013   4.204   4.031   9.293
  591WAT      O 2014   7.515   8.031   6.630
  591WAT     H1 2015   7.553   7.965   6.696
  591WAT     H2 2016   7.448   7.985   6.572
  592WAT      O 2017   8.133   3.018   8.997
  592WAT     H1 2018   8.207   2.978   8.942
  592WAT     H2 2019   8.116   2.960   9.076
  593WAT      O 2020   7.607   9.420   2.666
  593WAT     H1 2021   7.515   9.383   2.672
  593WAT     H2 2022   7.602   9.520   2.662
  594WAT      O 2023   8.123   3.977   1.009
  594WAT     H1 2024   8.150   4.065   0.970
  594WAT     H2 2025   8.179   3.956   1.089
  595WAT      O 2026   4.196   7.556   5.406
  595WAT     H1 2027   4.230   7.497   5.479
  595WAT     H2 2028   4.246   7.642   5.405
  596WAT      O 2029   7.149   3.805   3.944
  596WAT     H1 2030   7.073   3.830   4.004
  596WAT     H2 2031   7.211   3.883   3.934
  597WAT      O 2032   5.657   5.476   5.385
  597WAT     H1 2033   5.601   5.401   5.419
  597WAT     H2 2034   5.609   5.563   5.399
  598WAT      O 2035   9.279   8.582   6.963
  598WAT     H1 2036   9.343   8.591   7.039
  598WAT     H2 2037   9.189   8.555   6.997
  599WAT      O 2038   7.053   8.383   1.011
  599WAT     H1 2039   7.025   8.434   0.929
  599WAT     H2 2040   7.004   8.296   1.014
  600WAT      O 2041   6.806   4.756   9.172
  600WAT     H1 2042   6.812   4.827   9.102
  600WAT     H2 2043   6.743   4.785   9.244
  601WAT      O 2044   4.446   8.565   3.320
  601WAT     H1 2045   4.449   8.593   3.416
  601WAT     H2 2046   4.378   8.492   3.308
  602WAT      O 2047   6.805   7.954   1.020
  602WAT     H1 2048   6.716   7.928   1.056
  602WAT     H2 2049   6.832   7.889   0.949
  603WAT      O 2050   5.702   6.009   6.265
  603WAT     H1 2051   5.714   5.968   6.175
  603WAT     H2 2052   5.716   5.939   6.336
  604WAT      O 2053   2.235   4.579   7.445
  604WAT     H1 2054   2.154   4.573   7.387
  604WAT     H2 2055   2.315   4.601   7.389
  605WAT      O 2056   3.664   3.924   5.457
  605WAT     H1 2057   3.735   3.883   5.400
  605WAT     H2 2058   3.689   3.914   5.553
  606WAT      O 2059   8.311   4.502   7.970
  606WAT     H1 2060   8.268   4.530   7.884
  606WAT     H2 2061   8.376   4.428   7.952
  607WAT      O 2062   0.895   9.183   3.510
  607WAT     H1 2063   0.866   9.097   3.468
  607WAT     H2 2064   0.983   9.169   3.556
  608WAT      O 2065   1.536   6.435   1.742
  608WAT     H1 2066   1.625   6.477   1.761
  608WAT     H2 2067   1.464   6.491   1.783
  609WAT      O 2068   1.680   4.008   7.586
  609WAT     H1 2069   1.601   3.983   7.530
  609WAT     H2 2070   1.763   3.996   7.532
  610WAT      O 2071   4.176   1.308   8.750
  610WAT     H1 2072   4.102   1.286   8.813
  610WAT     H2 2073   4.224   1.389   8.781
  611WAT      O 2074   2.299   3.931   3.423
  611WAT     H1 2075   2.222   3.994   3.436
  611WAT     H2 2076   2.349   3.921   3.509
  612WAT      O 2077   6.306   2.601   0.185
  612WAT     H1 2078   6.207   2.614   0.182
  612WAT     H2 2079   6.340   2.577   0.094
  613WAT      O 2080   5.727   6.677   8.773
  613WAT     H1 2081   5.744   6.623   8.690
  613WAT     H2 2082   5.689   6.618   8.844
  614WAT      O 2083   0.105   5.422   9.088
  614WAT     H1 2084   0.083   5.405   9.184
  614WAT     H2 2085   0.198   5.391   9.068
  615WAT      O 2086   3.409   8.565   7.211
  615WAT     H1 2087   3.472   8.602   7.279
  615WAT     H2 2088   3.408   8.465   7.218
  616WAT      O 2089   8.024   7.933   8.963
  616WAT     H1 2090   7.940   7.935   9.017
  616WAT     H2 2091   8.042   7.839   8.934
  617WAT      O 2092   8.137   0.313   8.550
  617WAT     H1 2093   8.046   0.296   8.512
  617WAT     H2 2094   8.205   0.303   8.478
  618WAT      O 2095   2.673   1.974   8.407
  618WAT     H1 2096   2.698   1.908   8.478
  618WAT     H2 2097   2.691   1.935   8.317
  619WAT      O 2098   7.318   0.538   9.706
  619WAT     H1 2099   7.373   0.620   9.722
  619WAT     H2 2100   7.281   0.505   9.793
  620WAT      O 2101   6.151   1.181   6.456
  620WAT     H1 2102   6.178   1.087   6.476
  620WAT     H2 2103   6.154   1.196   6.357
  621WAT      O 2104   1.954   9.188   9.304
  621WAT     H1 2105   1.983   9.179   9.209
  621WAT     H2 2106   1.893   9.112   9.328
  622WAT      O 2107   9.638   4.176   0.681
  622WAT     H1 2108   9.702   4.166   0.605
  622WAT     H2 2109   9.581   4.257   0.667
  623WAT      O 2110   8.828   0.574   2.471
  623WAT     H1 2111   8.752   0.542   2.528
  623WAT     H2 2112   8.890   0.498   2.453
  624WAT      O 2113   5.235   7.049   6.156
  624WAT     H1 2114   5.218   7.147   6.151
  624WAT     H2 2115   5.258   7.014   6.065
  625WAT      O 2116   1.642   4.882   3.314
  625WAT     H1 2117   1.739   4.903   3.318
  625WAT     H2 2118   1.589   4.967   3.313
  626WAT      O 2119   0.072   7.424   8.950
  626WAT     H1 2120  -0.024   7.446   8.928
  626WAT     H2 2121   0.131   7.498   8.917
  627WAT      O 2122   4.002   0.576   3.932
  627WAT     H1 2123   3.939   0.652   3.949
  627WAT     H2 2124   4.096   0.605   3.948
  628WAT      O 2125   0.859   9.265   3.099
  628WAT     H1 2126   0.917   9.346   3.094
  628WAT     H2 2127   0.820   9.246   3.009
  629WAT      O 2128   1.173   4.162   5.064
  629WAT     H1 2129   1.252   4.222   5.055
  629WAT     H2 2130   1.139   4.138   4.973
  630WAT      O 2131   3.282   0.124   2.925
  630WAT     H1 2132   3.331   0.039   2.906
  630WAT     H2 2133   3.347   0.197   2.943
  631WAT      O 2134   5.277   8.685   5.003
  631WAT     H1 2135   5.357   8.627   5.016
  631WAT     H2 2136   5.198   8.628   4.979
  632WAT      O 2137   6.790   3.993   0.278
  632WAT     H1 2138   6.832   3.957   0.194
  632WAT     H2 2139   6.734   3.923   0.320
  633WAT      O 2140   9.009   6.960   6.011
  633WAT     H1 2141   9.037   6.922   5.923
  633WAT     H2 2142   9.008   6.888   6.080
  634WAT      O 2143   5.096   5.559   0.914
  634WAT     H1 2144   5.012   5.575   0.966
  634WAT     H2 2145   5.133   5.470   0.938
  635WAT      O 2146   5.306   1.904   6.774
  635WAT     H1 2147   5.297   1.852   6.689
  635WAT     H2 2148   5.403   1.922   6.791
  636WAT      O 2149   3.676   9.612   7.785
  636WAT     H1 2150   3.768   9.648   7.767
  636WAT     H2 2151   3.657   9.535   7.724
  637WAT      O 2152   5.962   3.411   8.156
  637WAT     H1 2153   6.051   3.383   8.192
  637WAT     H2 2154   5.963   3.401   8.056
  638WAT      O 2155   4.743   0.296   1.550
  638WAT     H1 2156   4.693   0.312   1.466
  638WAT     H2 2157   4.763   0.383   1.595
  639WAT      O 2158   7.577   5.812   8.910
  639WAT     H1 2159   7.492   5.835   8.958
  639WAT     H2 2160   7.635   5.893   8.904
  640WAT      O 2161   2.836   5.289   0.392
  640WAT     H1 2162   2.765   5.354   0.419
  640WAT     H2 2163   2.879   5.320   0.307
  641WAT      O 2164   2.653   7.207   7.351
  641WAT     H1 2165   2.598   7.190   7.269
  641WAT     H2 2166   2.592   7.235   7.426
  642WAT      O 2167   4.533   6.731   4.320
  642WAT     H1 2168   4.528   6.688   4.229
  642WAT     H2 2169   4.526   6.830   4.310
  643WAT      O 2170   4.631   1.722   7.668
  643WAT     H1 2171   4.553   1.665   7.642
  643WAT     H2 2172   4.603   1.789   7.736
  644WAT      O 2173   6.703   1.727   3.670
  644WAT     H1 2174   6.787   1.725   3.616
  644WAT     H2 2175   6.672   1.822   3.682
  645WAT      O 2176   0.365   9.306   7.142
  645WAT     H1 2177   0.418   9.239   7.195
  645WAT     H2 2178   0.311   9.259   7.073
  646WAT      O 2179   1.637   3.195   4.214
  646WAT     H1 2180   1.602   3.217   4.305
  646WAT     H2 2181   1.732   3.163   4.222
  647WAT      O 2182   1.999   0.307   6.246
  647WAT     H1 2183   1.992   0.271   6.339
  647WAT     H2 2184   1.907   0.317   6.207
  648WAT      O 2185   7.878   2.014   8.157
  648WAT     H1 2186   7.903   1.920   8.134
  648WAT     H2 2187   7.895   2.073   8.078
  649WAT      O 2188   6.930   4.089   3.485
  649WAT     H1 2189   6.944   4.167   3.424
  649WAT     H2 2190   7.018   4.044   3.502
  650WAT      O 2191   3.319   1.368   6.355
  650WAT     H1 2192   3.419   1.374   6.353
  650WAT     H2 2193   3.292   1.274   6.335
  651WAT      O 2194   4.476   0.289   1.709
  651WAT     H1 2195   4.556   0.295   1.649
  651WAT     H2 2196   4.470   0.197   1.746
  652WAT      O 2197   6.060   6.974   8.583
  652WAT     H1 2198   6.127   7.045   8.562
  652WAT     H2 2199   6.012   6.948   8.499
  653WAT      O 2200   8.861   2.336   3.934
  653WAT     H1 2201   8.878   2.388   3.850
  653WAT     H2 2202   8.770   2.295   3.930
  654WAT      O 2203   5.611   2.037   2.477
  654WAT     H1 2204   5.599   2.068   2.571
  654WAT     H2 2205   5.604   1.937   2.474
  655WAT      O 2206   3.385   0.998   2.796
  655WAT     H1 2207   3.389   1.065   2.870
  655WAT     H2 2208   3.294   0.956   2.794
  656WAT      O 2209   0.482   4.730   1.722
  656WAT     H1 2210   0.488   4.726   1.622
  656WAT     H2 2211   0.542   4.803   1.755
  657WAT      O 2212   7.632   4.353   8.168
  657WAT     H1 2213   7.716   4.407   8.173
  657WAT     H2 2214   7.597   4.337   8.261
  658WAT      O 2215   5.389   5.795   9.395
  658WAT     H1 2216   5.327   5.815   9.470
  658WAT     H2 2217   5.370   5.857   9.319
  659WAT      O 2218   9.364   7.009   0.642
  659WAT     H1 2219   9.463   7.002   0.650
  659WAT     H2 2220   9.330   6.943   0.575
  660WAT      O 2221   1.203   9.737   6.121
  660WAT     H1 2222   1.111   9.702   6.105
  660WAT     H2 2223   1.269   9.676   6.076
  661WAT      O 2224   0.173   1.657   1.600
  661WAT     H1 2225   0.161   1.580   1.663
  661WAT     H2 2226   0.104   1.652   1.528
  662WAT      O 2227   2.013   4.887   9.175
  662WAT     H1 2228   1.980   4.965   9.228
  662WAT     H2 2229   1.978   4.802   9.215
  663WAT      O 2230   3.791   5.454   4.168
  663WAT     H1 2231   3.873   5.493   4.208
  663WAT     H2 2232   3.775   5.363   4.208
  664WAT      O 2233   5.074   1.162   5.916
  664WAT     H1 2234   5.075   1.183   6.014
  664WAT     H2 2235   4.980   1.153   5.884
  665WAT      O 2236   6.114   9.080   7.521
  665WAT     H1 2237   6.128   9.016   7.596
  665WAT     H2 2238   6.141   9.037   7.435
  666WAT      O 2239   5.500   7.964   0.824
  666WAT     H1 2240   5.518   7.957   0.922
  666WAT     H2 2241   5.402   7.971   0.808
  667WAT      O 2242   1.738   0.159   9.445
  667WAT     H1 2243   1.818   0.163   9.505
  667WAT     H2 2244   1.733   0.069   9.402
  668WAT      O 2245   7.236   9.699   7.065
  668WAT     H1 2246   7.303   9.741   7.003
  668WAT     H2 2247   7.154   9.756   7.068
  669WAT      O 2248   1.158   1.677   5.804
  669WAT     H1 2249   1.105   1.647   5.725
  669WAT     H2 2250   1.249   1.635   5.802
  670WAT      O 2251   4.251   2.230   4.021
  670WAT     H1 2252   4.161   2.258   4.053
  670WAT     H2 2253   4.317   2.303   4.042
  671WAT      O 2254   0.743   2.967   9.189
  671WAT     H1 2255   0.807   2.904   9.145
  671WAT     H2 2256   0.654   2.923   9.197
  672WAT      O 2257   9.439   2.096   1.292
  672WAT     H1 2258   9.441   2.047   1.379
  672WAT     H2 2259   9.526   2.085   1.245
  673WAT      O 2260   1.816   7.706   0.898
  673WAT     H1 2261   1.773   7.704   0.988
  673WAT     H2 2262   1.873   7.787   0.890
  674WAT      O 2263   4.947   9.741   2.530
  674WAT     H1 2264   4.917   9.775   2.441
  674WAT     H2 2265   4.963   9.642   2.525
  675WAT      O 2266   0.353   7.789   7.401
  675WAT     H1 2267   0.341   7.887   7.421
  675WAT     H2 2268   0.344   7.773   7.303
  676WAT      O 2269   9.062   1.627   5.212
  676WAT     H1 2270   9.053   1.716   5.167
  676WAT     H2 2271   9.115   1.638   5.296
  677WAT      O 2272   0.603   6.716   3.897
  677WAT     H1 2273   0.606   6.631   3.951
  677WAT     H2 2274   0.653   6.787   3.946
  678WAT      O 2275   9.049   4.278   2.524
  678WAT     H1 2276   9.039   4.372   2.558
  678WAT     H2 2277   8.959   4.245   2.494
  679WAT      O 2278   7.451   4.810   9.420
  679WAT     H1 2279   7.400   4.812   9.334
  679WAT     H2 2280   7.428   4.728   9.471
  680WAT      O 2281   6.484   9.631   5.582
  680WAT     H1 2282   6.400   9.621   5.634
  680WAT     H2 2283   6.557   9.578   5.625
  681WAT      O 2284   8.264   0.552   2.442
  681WAT     H1 2285   8.275   0.562   2.343
  681WAT     H2 2286   8.294   0.635   2.488
  682WAT      O 2287   8.596   8.064   5.566
  682WAT     H1 2288   8.560   8.123   5.639
  682WAT     H2 2289   8.586   8.111   5.478
  683WAT      O 2290   6.334   3.341   7.918
  683WAT     H1 2291   6.236   3.326   7.931
  683WAT     H2 2292   6.384   3.266   7.962
  684WAT      O 2293   5.774   7.844   3.821
  684WAT     H1 2294   5.719   7.923   3.795
  684WAT     H2 2295   5.792   7.847   3.920
  685WAT      O 2296   4.562   3.291   5.716
  685WAT     H1 2297   4.486   3.356   5.715
  685WAT     H2 2298   4.626   3.315   5.642
  686WAT      O 2299   2.597   4.412   8.818
  686WAT     H1 2300   2.572   4.493   8.871
  686WAT     H2 2301   2.515   4.374   8.775
  687WAT      O 2302   8.903   8.945   5.977
  687WAT     H1 2303   8.959   8.920   6.056
  687WAT     H2 2304   8.849   8.866   5.948
  688WAT      O 2305   1.563   1.093   4.267
  688WAT     H1 2306   1.631   1.026   4.238
  688WAT     H2 2307   1.556   1.166   4.198
  689WAT      O 2308   1.517   9.208   2.193
  689WAT     H1 2309   1.471   9.120   2.205
  689WAT     H2 2310   1.549   9.215   2.098
  690WAT      O 2311   0.830   7.751   4.798
  690WAT     H1 2312   0.919   7.788   4.773
  690WAT     H2 2313   0.839   7.695   4.880
  691WAT      O 2314   6.037   1.883   6.545
  691WAT     H1 2315   5.943   1.867   6.573
  691WAT     H2 2316   6.044   1.871   6.446
  692WAT      O 2317   5.800   1.260   2.063
  692WAT     H1 2318   5.778   1.307   1.978
  692WAT     H2 2319   5.895   1.281   2.089
  693WAT      O 2320   1.779   0.692   3.907
  693WAT     H1 2321   1.722   0.623   3.863
  693WAT     H2 2322   1.779   0.776   3.851
  694WAT      O 2323   4.022   2.915   8.220
  694WAT     H1 2324   4.018   2.839   8.285
  694WAT     H2 2325   4.117   2.939   8.204
  695WAT      O 2326   4.415   0.011   5.155
  695WAT     H1 2327   4.498   0.028   5.102
  695WAT     H2 2328   4.437  -0.045   5.235
  696WAT      O 2329   7.932   7.606   6.046
  696WAT     H1 2330   8.021   7.598   6.000
  696WAT     H2 2331   7.919   7.701   6.076
  697WAT      O 2332   5.151   1.727   4.328
  697WAT     H1 2333   5.137   1.765   4.237
  697WAT     H2 2334   5.230   1.665   4.327
  698WAT      O 2335   8.893   1.549   2.452
  698WAT     H1 2336   8.835   1.566   2.372
  698WAT     H2 2337   8.843   1.573   2.535
  699WAT      O 2338   3.228   8.200   2.959
  699WAT     H1 2339   3.292   8.248   3.019
  699WAT     H2 2340   3.255   8.214   2.863
  700WAT      O 2341   1.532   7.525   8.468
  700WAT     H1 2342   1.528   7.503   8.371
  700WAT     H2 2343   1.627   7.521   8.500
  701WAT      O 2344   1.054   3.284   8.832
  701WAT     H1 2345   0.996   3.215   8.876
  701WAT     H2 2346   0.996   3.347   8.780
  702WAT      O 2347   6.686   8.232   9.333
  702WAT     H1 2348   6.589   8.207   9.330
  702WAT     H2 2349   6.741   8.150   9.348
  703WAT      O 2350   9.609   4.256   3.838
  703WAT     H1 2351   9.577   4.244   3.744
  703WAT     H2 2352   9.703   4.290   3.837
  704WAT      O 2353   2.108   5.100   4.170
  704WAT     H1 2354   2.113   5.009   4.212
  704WAT     H2 2355   2.016   5.116   4.135
  705WAT      O 2356   5.460   3.054   6.075
  705WAT     H1 2357   5.471   3.098   5.986
  705WAT     H2 2358   5.387   2.985   6.070
  706WAT      O 2359   8.778   6.339   4.317
  706WAT     H1 2360   8.821   6.389   4.242
  706WAT     H2 2361   8.701   6.285   4.282
  707WAT      O 2362   1.739   2.544   6.586
  707WAT     H1 2363   1.682   2.606   6.639
  707WAT     H2 2364   1.782   2.594   6.511
  708WAT      O 2365   2.689   4.380   9.562
  708WAT     H1 2366   2.735   4.302   9.605
  708WAT     H2 2367   2.617   4.346   9.501
  709WAT      O 2368   0.449   5.391   5.832
  709WAT     H1 2369   0.385   5.463   5.804
  709WAT     H2 2370   0.530   5.395   5.773
  710WAT      O 2371   8.438   6.906   6.225
  710WAT     H1 2372   8.495   6.989   6.233
  710WAT     H2 2373   8.363   6.924   6.161
  711WAT      O 2374   0.692   2.440   0.381
  711WAT     H1 2375   0.598   2.427   0.348
  711WAT     H2 2376   0.735   2.351   0.395
  712WAT      O 2377   3.752   5.226   4.318
  712WAT     H1 2378   3.813   5.162   4.364
  712WAT     H2 2379   3.657   5.199   4.336
  713WAT      O 2380   6.654   2.513   7.539
  713WAT     H1 2381   6.645   2.504   7.638
  713WAT     H2 2382   6.611   2.434   7.495
  714WAT      O 2383   2.171   3.106   6.681
  714WAT     H1 2384   2.161   3.086   6.778
  714WAT     H2 2385   2.255   3.157   6.666
  715WAT      O 2386   1.602   8.092   5.351
  715WAT     H1 2387   1.561   8.180   5.326
  715WAT     H2 2388   1.604   8.083   5.451
  716WAT      O 2389   3.597   4.968   9.122
  716WAT     H1 2390   3.688   5.006   9.114
  716WAT     H2 2391   3.536   5.034   9.166
  717WAT      O 2392   1.342   5.243   1.547
  717WAT     H1 2393   1.371   5.334   1.519
  717WAT     H2 2394   1.422   5.187   1.566
  718WAT      O 2395   7.998   2.773   9.808
  718WAT     H1 2396   8.067   2.792   9.878
  718WAT     H2 2397   7.913   2.742   9.851
  719WAT      O 2398   0.224   6.079   4.843
  719WAT     H1 2399   0.277   6.118   4.768
  719WAT     H2 2400   0.286   6.051   4.917
  720WAT      O 2401   6.333   8.882   7.994
  720WAT     H1 2402   6.433   8.884   7.983
  720WAT     H2 2403   6.305   8.956   8.055
  721WAT      O 2404   9.669   6.188   0.286
  721WAT     H1 2405   9.659   6.249   0.208
  721WAT     H2 2406   9.612   6.221   0.362
  722WAT      O 2407   0.131   9.435   1.236
  722WAT     H1 2408   0.092   9.414   1.326
  722WAT     H2 2409   0.130   9.353   1.179
  723WAT      O 2410   4.179   2.518   8.972
  723WAT     H1 2411   4.079   2.525   8.971
  723WAT     H2 2412   4.205   2.424   8.994
  724WAT      O 2413   6.771   1.893   7.729
  724WAT     H1 2414   6.699   1.962   7.726
  724WAT     H2 2415   6.822   1.902   7.815
  725WAT      O 2416   5.758   6.210   4.229
  725WAT     H1 2417   5.722   6.118   4.214
  725WAT     H2 2418   5.825   6.232   4.158
  726WAT      O 2419   1.088   5.886   0.819
  726WAT     H1 2420   1.146   5.808   0.794
  726WAT     H2 2421   1.061   5.935   0.736
  727WAT      O 2422   0.597   1.977   6.085
  727WAT     H1 2423   0.672   2.042   6.072
  727WAT     H2 2424   0.523   2.020   6.136
  728WAT      O 2425   4.215   7.044   5.434
  728WAT     H1 2426   4.261   7.090   5.357
  728WAT     H2 2427   4.119   7.069   5.435
  729WAT      O 2428   4.532   5.319   9.061
  729WAT     H1 2429   4.490   5.356   9.144
  729WAT     H2 2430   4.619   5.367   9.043
  730WAT      O 2431   3.433   2.256   3.898
  730WAT     H1 2432   3.473   2.345   3.917
  730WAT     H2 2433   3.448   2.233   3.802
  731WAT      O 2434   7.974   1.001   5.831
  731WAT     H1 2435   7.935   0.976   5.743
  731WAT     H2 2436   7.926   1.082   5.867
  732WAT      O 2437   1.841   7.459   7.502
  732WAT     H1 2438   1.759   7.498   7.544
  732WAT     H2 2439   1.853   7.365   7.532
  733WAT      O 2440   4.888   3.788   2.017
  733WAT     H1 2441   4.809   3.807   2.076
  733WAT     H2 2442   4.951   3.865   2.022
  734WAT      O 2443   9.295   8.142   3.605
  734WAT     H1 2444   9.204   8.113   3.576
  734WAT     H2 2445   9.318   8.228   3.560
  735WAT      O 2446   9.696   1.579   8.502
  735WAT     H1 2447   9.653   1.621   8.582
  735WAT     H2 2448   9.794   1.565   8.520
  736WAT      O 2449   0.911   7.244   3.134
  736WAT     H1 2450   1.003   7.266   3.102
  736WAT     H2 2451   0.874   7.169   3.080
  737WAT      O 2452   6.373   8.565   3.795
  737WAT     H1 2453   6.335   8.652   3.827
  737WAT     H2 2454   6.444   8.534   3.858
  738WAT      O 2455   8.623   0.510   8.532
  738WAT     H1 2456   8.560   0.505   8.610
  738WAT     H2 2457   8.619   0.602   8.493
  739WAT      O 2458   2.239   7.967   3.909
  739WAT     H1 2459   2.276   8.022   3.985
  739WAT     H2 2460   2.150   7.930   3.935
  740WAT      O 2461   1.037   7.046   2.205
  740WAT     H1 2462   1.113   6.995   2.246
  740WAT     H2 2463   1.066   7.140   2.187
  741WAT      O 2464   2.881   1.754   7.832
  741WAT     H1 2465   2.875   1.684   7.761
  741WAT     H2 2466   2.975   1.788   7.837
  742WAT      O 2467   2.120   5.213   3.261
  742WAT     H1 2468   2.075   5.142   3.207
  742WAT     H2 2469   2.125   5.184   3.356
  743WAT      O 2470   4.556   4.132   8.848
  743WAT     H1 2471   4.614   4.096   8.921
  743WAT     H2 2472   4.604   4.206   8.800
  744WAT      O 2473   6.570   9.558   2.209
  744WAT     H1 2474   6.505   9.521   2.275
  744WAT     H2 2475   6.651   9.500   2.205
  745WAT      O 2476   6.190   2.639   6.609
  745WAT     H1 2477   6.110   2.656   6.667
  745WAT     H2 2478   6.176   2.681   6.520
  746WAT      O 2479   2.577   0.330   6.882
  746WAT     H1 2480   2.670   0.358   6.861
  746WAT     H2 2481   2.529   0.308   6.796
  747WAT      O 2482   7.525   1.310   0.707
  747WAT     H1 2483   7.623   1.329   0.713
  747WAT     H2 2484   7.508   1.249   0.630
  748WAT      O 2485   7.567   3.083   7.191
  748WAT     H1 2486   7.510   3.086   7.108
  748WAT     H2 2487   7.655   3.041   7.169
  749WAT      O 2488   1.140   0.412   0.315
  749WAT     H1 2489   1.048   0.403   0.351
  749WAT     H2 2490   1.206   0.394   0.387
  750WAT      O 2491   5.520   4.205   5.189
  750WAT     H1 2492   5.495   4.189   5.284
  750WAT     H2 2493   5.515   4.303   5.169
  751WAT      O 2494   9.655   3.706   1.916
  751WAT     H1 2495   9.643   3.801   1.946
  751WAT     H2 2496   9.566   3.659   1.919
  752WAT      O 2497   2.131   3.375   2.469
  752WAT     H1 2498   2.175   3.445   2.525
  752WAT     H2 2499   2.199   3.327   2.415
  753WAT      O 2500   6.811   2.962   3.205
  753WAT     H1 2501   6.835   2.974   3.108
  753WAT     H2 2502   6.838   3.044   3.256
  754WAT      O 2503   5.758   1.218   2.520
  754WAT     H1 2504   5.704   1.155   2.576
  754WAT     H2 2505   5.702   1.297   2.495
  755WAT      O 2506   3.423   5.382   5.742
  755WAT     H1 2507   3.438   5.418   5.649
  755WAT     H2 2508   3.445   5.453   5.809
  756WAT      O 2509   8.863   3.782   5.825
  756WAT     H1 2510   8.883   3.689   5.856
  756WAT     H2 2511   8.934   3.844   5.857
  757WAT      O 2512  -0.001   6.747   9.768
  757WAT     H1 2513  -0.011   6.647   9.774
  757WAT     H2 2514   0.074   6.770   9.707
  758WAT      O 2515   1.064   3.197   4.958
  758WAT     H1 2516   1.052   3.253   4.876
  758WAT     H2 2517   1.047   3.101   4.936
  759WAT      O 2518   7.264   9.735   2.516
  759WAT     H1 2519   7.355   9.748   2.478
  759WAT     H2 2520   7.230   9.823   2.551
  760WAT      O 2521   6.247   0.876   7.736
  760WAT     H1 2522   6.196   0.943   7.682
  760WAT     H2 2523   6.333   0.917   7.768
  761WAT      O 2524   2.391   5.133   0.829
  761WAT     H1 2525   2.446   5.204   0.785
  761WAT     H2 2526   2.305   5.173   0.862
  762WAT      O 2527   3.547   7.371   8.306
  762WAT     H1 2528   3.578   7.282   8.338
  762WAT     H2 2529   3.567   7.440   8.375
  763WAT      O 2530   9.445   4.100   8.486
  763WAT     H1 2531   9.356   4.104   8.441
  763WAT     H2 2532   9.431   4.095   8.585
  764WAT      O 2533   6.562   4.043   8.651
  764WAT     H1 2534   6.564   3.999   8.561
  764WAT     H2 2535   6.474   4.087   8.665
  765WAT      O 2536   2.375   5.055   9.741
  765WAT     H1 2537   2.342   4.963   9.720
  765WAT     H2 2538   2.304   5.122   9.718
  766WAT      O 2539   7.434   2.761   6.691
  766WAT     H1 2540   7.466   2.747   6.785
  766WAT     H2 2541   7.444   2.857   6.666
  767WAT      O 2542   6.543   6.723   1.219
  767WAT     H1 2543   6.589   6.739   1.132
  767WAT     H2 2544   6.582   6.641   1.262
  768WAT      O 2545   5.175   2.750   7.454
  768WAT     H1 2546   5.092   2.793   7.490
  768WAT     H2 2547   5.153   2.699   7.371
  769WAT      O 2548   4.136   6.470   0.278
  769WAT     H1 2549   4.052   6.443   0.231
  769WAT     H2 2550   4.194   6.390   0.292
  770WAT      O 2551   5.456   4.007   6.124
  770WAT     H1 2552   5.548   4.022   6.160
  770WAT     H2 2553   5.397   3.975   6.198
  771WAT      O 2554   5.452   9.354   8.246
  771WAT     H1 2555   5.498   9.332   8.160
  771WAT     H2 2556   5.465   9.279   8.311
  772WAT      O 2557   1.261   4.576   2.022
  772WAT     H1 2558   1.350   4.557   2.064
  772WAT     H2 2559   1.196   4.504   2.047
  773WAT      O 2560   0.995   6.636   1.115
  773WAT     H1 2561   1.011   6.563   1.049
  773WAT     H2 2562   1.055   6.624   1.194
  774WAT      O 2563   6.955   7.352   9.458
  774WAT     H1 2564   7.028   7.351   9.526
  774WAT     H2 2565   6.910   7.442   9.459
  775WAT      O 2566   7.327   5.073   9.371
  775WAT     H1 2567   7.338   5.041   9.277
  775WAT     H2 2568   7.307   4.996   9.431
  776WAT      O 2569   0.661   1.350   1.510
  776WAT     H1 2570   0.564   1.370   1.530
  776WAT     H2 2571   0.718   1.408   1.568
  777WAT      O 2572   4.199   2.130   1.557
  777WAT     H1 2573   4.261   2.207   1.537
  777WAT     H2 2574   4.186   2.076   1.474
  778WAT      O 2575   4.123   1.595   6.333
  778WAT     H1 2576   4.175   1.680   6.325
  778WAT     H2 2577   4.158   1.542   6.410
  779WAT      O 2578   3.319   3.297   2.162
  779WAT     H1 2579   3.278   3.213   2.126
  779WAT     H2 2580   3.396   3.323   2.104
  780WAT      O 2581   2.408   5.499   5.553
  780WAT     H1 2582   2.465   5.572   5.514
  780WAT     H2 2583   2.392   5.518   5.650
  781WAT      O 2584   0.360   6.408   3.870
  781WAT     H1 2585   0.389   6.449   3.783
  781WAT     H2 2586   0.419   6.329   3.891
  782WAT      O 2587   6.219   1.362   8.242
  782WAT     H1 2588   6.246   1.459   8.242
  782WAT     H2 2589   6.121   1.355   8.258
  783WAT      O 2590   0.010   3.284   7.615
  783WAT     H1 2591  -0.028   3.271   7.523
  783WAT     H2 2592  -0.060   3.266   7.683
  784WAT      O 2593   1.166   3.205   3.243
  784WAT     H1 2594   1.137   3.186   3.150
  784WAT     H2 2595   1.260   3.171   3.256
  785WAT      O 2596   7.892   1.674   2.050
  785WAT     H1 2597   7.938   1.585   2.047
  785WAT     H2 2598   7.958   1.744   2.079
  786WAT      O 2599   1.674   7.811   6.724
  786WAT     H1 2600   1.750   7.861   6.764
  786WAT     H2 2601   1.710   7.737   6.667
  787WAT      O 2602   7.702   9.377   4.643
  787WAT     H1 2603   7.684   9.405   4.548
  787WAT     H2 2604   7.617   9.382   4.695
  788WAT      O 2605   7.902   1.780   4.207
  788WAT     H1 2606   7.942   1.821   4.289
  788WAT     H2 2607   7.847   1.701   4.233
  789WAT      O 2608   7.377   6.521   3.381
  789WAT     H1 2609   7.302   6.476   3.430
  789WAT     H2 2610   7.368   6.620   3.391
  790WAT      O 2611   8.900   3.639   2.999
  790WAT     H1 2612   8.903   3.680   2.908
  790WAT     H2 2613   8.966   3.686   3.058
  791WAT      O 2614   3.809   8.011   4.612
  791WAT     H1 2615   3.836   7.961   4.695
  791WAT     H2 2616   3.792   8.107   4.635
  792WAT      O 2617   2.117   5.373   0.643
  792WAT     H1 2618   2.157   5.368   0.551
  792WAT     H2 2619   2.088   5.281   0.671
  793WAT      O 2620   7.244   0.723   0.646
  793WAT     H1 2621   7.203   0.711   0.556
  793WAT     H2 2622   7.251   0.634   0.691
  794WAT      O 2623   7.778   3.043   8.045
  794WAT     H1 2624   7.849   2.972   8.051
  794WAT     H2 2625   7.718   3.023   7.968
  795WAT      O 2626   8.130   3.111   0.721
  795WAT     H1 2627   8.034   3.137   0.735
  795WAT     H2 2628   8.189   3.189   0.740
  796WAT      O 2629   3.504   4.586   4.179
  796WAT     H1 2630   3.437   4.631   4.238
  796WAT     H2 2631   3.499   4.487   4.192
  797WAT      O 2632   1.088   3.236   3.000
  797WAT     H1 2633   1.034   3.320   2.997
  797WAT     H2 2634   1.030   3.158   2.977
  798WAT      O 2635   4.453   1.068   9.475
  798WAT     H1 2636   4.531   1.039   9.529
  798WAT     H2 2637   4.476   1.065   9.378
  799WAT      O 2638   8.078   7.221   6.793
  799WAT     H1 2639   7.985   7.245   6.766
  799WAT     H2 2640   8.096   7.125   6.770
  800WAT      O 2641   3.954   6.966   8.199
  800WAT     H1 2642   3.953   6.924   8.108
  800WAT     H2 2643   3.940   6.896   8.269
  801WAT      O 2644   0.230   8.862   3.476
  801WAT     H1 2645   0.145   8.812   3.462
  801WAT     H2 2646   0.253   8.863   3.574
  802WAT      O 2647   0.682   9.372   2.725
  802WAT     H1 2648   0.703   9.291   2.778
  802WAT     H2 2649   0.691   9.453   2.783
  803WAT      O 2650   1.081   4.654   8.496
  803WAT     H1 2651   1.014   4.716   8.536
  803WAT     H2 2652   1.118   4.694   8.412
  804WAT      O 2653   9.473   5.174   2.086
  804WAT     H1 2654   9.549   5.177   2.021
  804WAT     H2 2655   9.487   5.098   2.150
  805WAT      O 2656   8.140   9.772   9.014
  805WAT     H1 2657   8.194   9.833   8.956
  805WAT     H2 2658   8.191   9.753   9.098
  806WAT      O 2659   0.832   1.093   6.961
  806WAT     H1 2660   0.756   1.158   6.952
  806WAT     H2 2661   0.817   1.014   6.902
  807WAT      O 2662   0.425   7.106   5.489
  807WAT     H1 2663   0.490   7.030   5.493
  807WAT     H2 2664   0.424   7.154   5.577
  808WAT      O 2665   3.500   8.068   0.202
  808WAT     H1 2666   3.596   8.047   0.188
  808WAT     H2 2667   3.490   8.134   0.277
  809WAT      O 2668   4.888   6.479   3.466
  809WAT     H1 2669   4.836   6.446   3.545
  809WAT     H2 2670   4.983   6.449   3.474
  810WAT      O 2671   1.875   9.163   4.694
  810WAT     H1 2672   1.797   9.213   4.733
  810WAT     H2 2673   1.843   9.077   4.654
  811WAT      O 2674   9.197   8.405   3.839
  811WAT     H1 2675   9.227   8.416   3.744
  811WAT     H2 2676   9.127   8.473   3.860
  812WAT      O 2677   0.464   0.880   5.542
  812WAT     H1 2678   0.524   0.961   5.544
  812WAT     H2 2679   0.520   0.797   5.544
  813WAT      O 2680   2.301   3.255   8.409
  813WAT     H1 2681   2.202   3.267   8.408
  813WAT     H2 2682   2.322   3.157   8.411
  814WAT      O 2683   3.129   5.764   8.328
  814WAT     H1 2684   3.188   5.748   8.407
  814WAT     H2 2685   3.176   5.824   8.264
  815WAT      O 2686   9.152   0.168   4.077
  815WAT     H1 2687   9.103   0.149   4.162
  815WAT     H2 2688   9.091   0.155   3.999
  816WAT      O 2689   3.098   0.871   8.489
  816WAT     H1 2690   3.092   0.946   8.423
  816WAT     H2 2691   3.086   0.784   8.442
  817WAT      O 2692   3.335   5.380   3.553
  817WAT     H1 2693   3.330   5.285   3.584
  817WAT     H2 2694   3.425   5.396   3.512
  818WAT      O 2695   0.109   6.512   0.203
  818WAT     H1 2696   0.181   6.577   0.226
  818WAT     H2 2697   0.062   6.483   0.287
  819WAT      O 2698   0.949   7.715   4.076
  819WAT     H1 2699   0.958   7.740   4.172
  819WAT     H2 2700   0.885   7.777   4.031
  820WAT      O 2701   2.893   0.375   4.323
  820WAT     H1 2702   2.978   0.375   4.271
  820WAT     H2 2703   2.815   0.374   4.261
  821WAT      O 2704   7.339   8.013   0.650
  821WAT     H1 2705   7.337   8.111   0.671
  821WAT     H2 2706   7.344   7.961   0.735
  822WAT      O 2707   3.136   4.439   1.725
  822WAT     H1 2708   3.162   4.401   1.636
  822WAT     H2 2709   3.052   4.395   1.757
  823WAT      O 2710   8.727   0.483   1.943
  823WAT     H1 2711   8.790   0.444   1.876
  823WAT     H2 2712   8.761   0.572   1.973
  824WAT      O 2713   4.141   6.775   0.075
  824WAT     H1 2714   4.087   6.854   0.046
  824WAT     H2 2715   4.085   6.693   0.071
  825WAT      O 2716   2.824   2.679   1.662
  825WAT     H1 2717   2.906   2.733   1.646
  825WAT     H2 2718   2.745   2.725   1.622
  826WAT      O 2719   4.363   6.189   9.878
  826WAT     H1 2720   4.321   6.209   9.967
  826WAT     H2 2721   4.462   6.207   9.883
  827WAT      O 2722   0.015   6.481   9.833
  827WAT     H1 2723   0.063   6.516   9.913
  827WAT     H2 2724  -0.078   6.454   9.858
  828WAT      O 2725   5.921   6.802   6.123
  828WAT     H1 2726   5.908   6.880   6.062
  828WAT     H2 2727   5.868   6.724   6.089
  829WAT      O 2728   0.006   8.035   2.126
  829WAT     H1 2729   0.001   7.995   2.035
  829WAT     H2 2730  -0.076   8.088   2.144
  830WAT      O 2731   6.231   4.322   3.973
  830WAT     H1 2732   6.246   4.242   3.916
  830WAT     H2 2733   6.300   4.391   3.954
  831WAT      O 2734   7.086   1.855   9.027
  831WAT     H1 2735   7.132   1.923   9.084
  831WAT     H2 2736   7.154   1.810   8.969
  832WAT      O 2737   3.661   5.826   4.699
  832WAT     H1 2738   3.597   5.865   4.765
  832WAT     H2 2739   3.726   5.896   4.670
  833WAT      O 2740   4.852   4.685   9.389
  833WAT     H1 2741   4.834   4.780   9.412
  833WAT     H2 2742   4.774   4.647   9.339
  834WAT      O 2743   1.333   8.578   1.546
  834WAT     H1 2744   1.270   8.511   1.586
  834WAT     H2 2745   1.288   8.625   1.470
  835WAT      O 2746   0.283   3.673   8.719
  835WAT     H1 2747   0.184   3.682   8.735
  835WAT     H2 2748   0.298   3.612   8.642
  836WAT      O 2749   7.883   1.068   1.537
  836WAT     H1 2750   7.966   1.021   1.567
  836WAT     H2 2751   7.803   1.026   1.580
  837WAT      O 2752   0.437   5.368   4.600
  837WAT     H1 2753   0.435   5.334   4.694
  837WAT     H2 2754   0.356   5.423   4.582
  838WAT      O 2755   2.056   1.158   5.623
  838WAT     H1 2756   2.116   1.237   5.636
  838WAT     H2 2757   1.990   1.178   5.551
  839WAT      O 2758   3.634   0.733   3.498
  839WAT     H1 2759   3.675   0.812   3.544
  839WAT     H2 2760   3.543   0.715   3.537
  840WAT      O 2761   8.269   6.348   0.236
  840WAT     H1 2762   8.294   6.286   0.310
  840WAT     H2 2763   8.207   6.301   0.172
  841WAT      O 2764   3.733   3.383   3.852
  841WAT     H1 2765   3.652   3.415   3.804
  841WAT     H2 2766   3.805   3.451   3.846
  842WAT      O 2767   7.750   3.300   2.593
  842WAT     H1 2768   7.832   3.326   2.543
  842WAT     H2 2769   7.700   3.382   2.620
  843WAT      O 2770   6.152   5.336   5.844
  843WAT     H1 2771   6.223   5.380   5.789
  843WAT     H2 2772   6.196   5.275   5.910
  844WAT      O 2773   5.294   6.737   1.374
  844WAT     H1 2774   5.347   6.811   1.331
  844WAT     H2 2775   5.267   6.765   1.466
  845WAT      O 2776   2.544   2.436   6.863
  845WAT     H1 2777   2.504   2.518   6.903
  845WAT     H2 2778   2.544   2.444   6.763
  846WAT      O 2779   9.009   9.687   9.771
  846WAT     H1 2780   8.993   9.604   9.718
  846WAT     H2 2781   8.934   9.702   9.834
  847WAT      O 2782   9.293   1.959   3.939
  847WAT     H1 2783   9.222   2.027   3.960
  847WAT     H2 2784   9.257   1.867   3.956
  848WAT      O 2785   9.529   9.139   5.991
  848WAT     H1 2786   9.501   9.228   6.026
  848WAT     H2 2787   9.455   9.073   6.004
  849WAT      O 2788   0.633   4.217   3.736
  849WAT     H1 2789   0.594   4.146   3.793
  849WAT     H2 2790   0.568   4.292   3.727
  850WAT      O 2791   8.138   7.381   4.948
  850WAT     H1 2792   8.181   7.340   5.028
  850WAT     H2 2793   8.042   7.355   4.945
  851WAT      O 2794   5.497   6.879   2.247
  851WAT     H1 2795   5.524   6.926   2.163
  851WAT     H2 2796   5.560   6.903   2.321
  852WAT      O 2797   8.152   7.281   8.196
  852WAT     H1 2798   8.076   7.217   8.202
  852WAT     H2 2799   8.203   7.265   8.112
  853WAT      O 2800   6.868   4.426   4.214
  853WAT     H1 2801   6.798   4.363   4.181
  853WAT     H2 2802   6.949   4.374   4.243
  854WAT      O 2803   5.626   5.064   1.869
  854WAT     H1 2804   5.581   5.015   1.795
  854WAT     H2 2805   5.641   5.003   1.947
  855WAT      O 2806   1.260   3.123   8.716
  855WAT     H1 2807   1.189   3.185   8.750
  855WAT     H2 2808   1.268   3.131   8.617
  856WAT      O 2809   7.832   7.477   9.427
  856WAT     H1 2810   7.907   7.426   9.467
  856WAT     H2 2811   7.748   7.424   9.434
  857WAT      O 2812   4.629   3.061   6.399
  857WAT     H1 2813   4.592   3.154   6.400
  857WAT     H2 2814   4.602   3.014   6.483
  858WAT      O 2815   5.573   8.225   0.221
  858WAT     H1 2816   5.474   8.212   0.228
  858WAT     H2 2817   5.620   8.147   0.263
  859WAT      O 2818   0.050   8.786   6.099
  859WAT     H1 2819   0.062   8.884   6.114
  859WAT     H2 2820   0.136   8.739   6.119
  860WAT      O 2821   5.708   4.373   5.410
  860WAT     H1 2822   5.739   4.308   5.480
  860WAT     H2 2823   5.742   4.344   5.320
  861WAT      O 2824   0.114   3.017   2.115
  861WAT     H1 2825   0.111   3.089   2.045
  861WAT     H2 2826   0.045   3.036   2.185
  862WAT      O 2827   0.773   8.155   0.510
  862WAT     H1 2828   0.683   8.192   0.533
  862WAT     H2 2829   0.791   8.171   0.413
  863WAT      O 2830   4.749   5.845   0.413
  863WAT     H1 2831   4.655   5.879   0.404
  863WAT     H2 2832   4.794   5.849   0.323
  864WAT      O 2833   1.022   4.657   5.880
  864WAT     H1 2834   1.073   4.696   5.803
  864WAT     H2 2835   1.000   4.729   5.946
  865WAT      O 2836   5.082   8.959   6.943
  865WAT     H1 2837   5.098   8.861   6.954
  865WAT     H2 2838   4.984   8.977   6.939
  866WAT      O 2839   6.564   4.187   1.803
  866WAT     H1 2840   6.475   4.192   1.757
  866WAT     H2 2841   6.575   4.096   1.843
  867WAT      O 2842   8.478   4.161   3.171
  867WAT     H1 2843   8.557   4.221   3.158
  867WAT     H2 2844   8.395   4.210   3.143
  868WAT      O 2845   7.548   4.495   4.568
  868WAT     H1 2846   7.556   4.501   4.468
  868WAT     H2 2847   7.522   4.402   4.594
  869WAT      O 2848   0.974   9.095   9.094
  869WAT     H1 2849   0.877   9.098   9.117
  869WAT     H2 2850   0.989   9.030   9.019
  870WAT      O 2851   0.794   7.496   8.972
  870WAT     H1 2852   0.809   7.529   8.879
  870WAT     H2 2853   0.701   7.462   8.980
  871WAT      O 2854   8.242   0.188   0.871
  871WAT     H1 2855   8.324   0.242   0.857
  871WAT     H2 2856   8.162   0.242   0.844
  872WAT      O 2857   9.654   5.954   0.141
  872WAT     H1 2858   9.559   5.933   0.120
  872WAT     H2 2859   9.658   6.041   0.190
  873WAT      O 2860   1.802   5.684   4.316
  873WAT     H1 2861   1.772   5.631   4.237
  873WAT     H2 2862   1.900   5.670   4.330
  874WAT      O 2863   0.965   3.675   5.075
  874WAT     H1 2864   0.881   3.716   5.039
  874WAT     H2 2865   1.013   3.628   5.001
  875WAT      O 2866   3.576   6.410   8.148
  875WAT     H1 2867   3.570   6.358   8.233
  875WAT     H2 2868   3.544   6.503   8.164
  876WAT      O 2869   7.279   0.604   8.995
  876WAT     H1 2870   7.238   0.551   9.069
  876WAT     H2 2871   7.299   0.544   8.918
  877WAT      O 2872   3.414   3.918   8.042
  877WAT     H1 2873   3.443   3.885   8.132
  877WAT     H2 2874   3.468   3.999   8.018
  878WAT      O 2875   4.882   4.944   0.911
  878WAT     H1 2876   4.879   4.846   0.926
  878WAT     H2 2877   4.795   4.976   0.874
  879WAT      O 2878   7.205   1.484   0.447
  879WAT     H1 2879   7.226   1.438   0.361
  879WAT     H2 2880   7.124   1.441   0.488
  880WAT      O 2881   8.238   9.079   7.226
  880WAT     H1 2882   8.327   9.092   7.271
  880WAT     H2 2883   8.186   9.164   7.232
  881WAT      O 2884   8.389   5.429   3.512
  881WAT     H1 2885   8.455   5.371   3.559
  881WAT     H2 2886   8.438   5.496   3.456
  882WAT      O 2887   1.311   8.804   4.866
  882WAT     H1 2888   1.252   8.742   4.814
  882WAT     H2 2889   1.349   8.755   4.945
  883WAT      O 2890   2.438   4.327   5.797
  883WAT     H1 2891   2.347   4.286   5.785
  883WAT     H2 2892   2.483   4.334   5.708
  884WAT      O 2893   0.362   7.973   6.643
  884WAT     H1 2894   0.401   8.025   6.719
  884WAT     H2 2895   0.336   8.036   6.569
  885WAT      O 2896   2.722   4.904   6.025
  885WAT     H1 2897   2.709   4.928   6.121
  885WAT     H2 2898   2.820   4.896   6.006
  886WAT      O 2899   3.746   1.939   0.594
  886WAT     H1 2900   3.715   2.013   0.534
  886WAT     H2 2901   3.817   1.886   0.547
  887WAT      O 2902   8.313   4.473   0.973
  887WAT     H1 2903   8.264   4.558   0.991
  887WAT     H2 2904   8.317   4.418   1.056
  888WAT      O 2905   8.555   5.554   4.038
  888WAT     H1 2906   8.603   5.609   4.106
  888WAT     H2 2907   8.522   5.615   3.965
  889WAT      O 2908   2.225   2.112   0.425
  889WAT     H1 2909   2.267   2.028   0.393
  889WAT     H2 2910   2.290   2.188   0.416
  890WAT      O 2911   5.236   2.647   1.939
  890WAT     H1 2912   5.253   2.688   1.849
  890WAT     H2 2913   5.201   2.554   1.928
  891WAT      O 2914   6.680   3.440   4.902
  891WAT     H1 2915   6.616   3.431   4.979
  891WAT     H2 2916   6.629   3.434   4.817
  892WAT      O 2917   8.899   4.704   0.817
  892WAT     H1 2918   8.960   4.687   0.894
  892WAT     H2 2919   8.953   4.725   0.736
  893WAT      O 2920   3.930   0.785   2.516
  893WAT     H1 2921   3.925   0.854   2.444
  893WAT     H2 2922   3.862   0.714   2.499
  894WAT      O 2923   1.112   5.656   5.284
  894WAT     H1 2924   1.085   5.652   5.187
  894WAT     H2 2925   1.184   5.589   5.300
  895WAT      O 2926   7.111   7.567   9.312
  895WAT     H1 2927   7.137   7.664   9.319
  895WAT     H2 2928   7.019   7.555   9.349
  896WAT      O 2929   3.460   6.679   0.738
  896WAT     H1 2930   3.383   6.742   0.728
  896WAT     H2 2931   3.486   6.673   0.834
  897WAT      O 2932   8.669   9.015   6.470
  897WAT     H1 2933   8.677   9.092   6.533
  897WAT     H2 2934   8.573   8.996   6.451
  898WAT      O 2935   2.147   9.183   9.048
  898WAT     H1 2936   2.223   9.245   9.031
  898WAT     H2 2937   2.160   9.099   8.994
  899WAT      O 2938   8.175   2.922   4.668
  899WAT     H1 2939   8.231   2.997   4.705
  899WAT     H2 2940   8.234   2.859   4.618
  900WAT      O 2941   3.558   4.376   2.908
  900WAT     H1 2942   3.475   4.321   2.906
  900WAT     H2 2943   3.618   4.343   2.981
  901WAT      O 2944   5.147   6.869   3.574
  901WAT     H1 2945   5.116   6.936   3.507
  901WAT     H2 2946   5.199   6.916   3.647
  902WAT      O 2947   8.574   2.810   8.144
  902WAT     H1 2948   8.504   2.766   8.087
  902WAT     H2 2949   8.535   2.892   8.186
  903WAT      O 2950   0.544   6.362   9.607
  903WAT     H1 2951   0.530   6.313   9.693
  903WAT     H2 2952   0.590   6.449   9.626
  904WAT      O 2953   3.905   8.158   7.732
  904WAT     H1 2954   3.890   8.143   7.830
  904WAT     H2 2955   3.818   8.184   7.689
  905WAT      O 2956   5.419   0.720   0.824
  905WAT     H1 2957   5.324   0.727   0.855
  905WAT     H2 2958   5.427   0.759   0.732
  906WAT      O 2959   3.524   7.296   7.493
  906WAT     H1 2960   3.556   7.214   7.446
  906WAT     H2 2961   3.588   7.320   7.566
  907WAT      O 2962   5.800   6.646   0.274
  907WAT     H1 2963   5.832   6.683   0.187
  907WAT     H2 2964   5.712   6.601   0.261
  908WAT      O 2965   6.077   4.556   8.497
  908WAT     H1 2966   5.991   4.597   8.526
  908WAT     H2 2967   6.066   4.457   8.490
  909WAT      O 2968   1.027   2.248   5.502
  909WAT     H1 2969   0.991   2.180   5.566
  909WAT     H2 2970   1.123   2.266   5.522
  910WAT      O 2971   5.277   0.626   7.436
  910WAT     H1 2972   5.222   0.581   7.507
  910WAT     H2 2973   5.263   0.725   7.440
  911WAT      O 2974   3.311   6.596   4.275
  911WAT     H1 2975   3.278   6.554   4.359
  911WAT     H2 2976   3.378   6.536   4.231
  912WAT      O 2977   9.794   2.360   5.185
  912WAT     H1 2978   9.764   2.415   5.263
  912WAT     H2 2979   9.885   2.323   5.204
  913WAT      O 2980   3.174   2.215   8.624
  913WAT     H1 2981   3.198   2.118   8.635
  913WAT     H2 2982   3.253   2.266   8.591
  914WAT      O 2983   5.578   8.434   0.695
  914WAT     H1 2984   5.675   8.410   0.707
  914WAT     H2 2985   5.537   8.450   0.785
  915WAT      O 2986   3.627   1.461   0.686
  915WAT     H1 2987   3.553   1.439   0.622
  915WAT     H2 2988   3.607   1.547   0.732
  916WAT      O 2989   5.037   7.009   4.357
  916WAT     H1 2990   5.040   7.107   4.339
  916WAT     H2 2991   4.968   6.967   4.298
  917WAT      O 2992   2.716   7.012   3.484
  917WAT     H1 2993   2.814   7.007   3.466
  917WAT     H2 2994   2.701   7.025   3.582
  918WAT      O 2995   9.069   6.144   8.960
  918WAT     H1 2996   9.030   6.058   8.925
  918WAT     H2 2997   9.059   6.146   9.060
  919WAT      O 2998   3.845   5.197   5.163
  919WAT     H1 2999   3.848   5.273   5.099
  919WAT     H2 3000   3.755   5.194   5.206
  920WAT      O 3001   7.701   9.517   7.653
  920WAT     H1 3002   7.711   9.444   7.585
  920WAT     H2 3003   7.737   9.485   7.741
  921WAT      O 3004   9.434   7.328   9.264
  921WAT     H1 3005   9.530   7.328   9.293
  921WAT     H2 3006   9.417   7.247   9.207
  922WAT      O 3007   0.133   6.263   5.763
  922WAT     H1 3008   0.163   6.260   5.858
  922WAT     H2 3009   0.139   6.171   5.723
  923WAT      O 3010   7.934   4.266   0.302
  923WAT     H1 3011   7.967   4.359   0.289
  923WAT     H2 3012   7.951   4.213   0.218
  924WAT      O 3013   6.247   0.142   9.058
  924WAT     H1 3014   6.303   0.108   9.133
  924WAT     H2 3015   6.246   0.075   8.984
  925WAT      O 3016   6.783   8.970   0.471
  925WAT     H1 3017   6.750   8.993   0.379
  925WAT     H2 3018   6.883   8.969   0.471
  926WAT      O 3019   5.719   1.762   5.544
  926WAT     H1 3020   5.788   1.697   5.579
  926WAT     H2 3021   5.718   1.759   5.444
  927WAT      O 3022   6.203   7.531   4.487
  927WAT     H1 3023   6.278   7.568   4.542
  927WAT     H2 3024   6.128   7.598   4.482
  928WAT      O 3025   1.341   6.348   0.980
  928WAT     H1 3026   1.432   6.331   0.941
  928WAT     H2 3027   1.351   6.390   1.070
  929WAT      O 3028   0.841   8.515   1.456
  929WAT     H1 3029   0.903   8.453   1.407
  929WAT     H2 3030   0.794   8.574   1.390
  930WAT      O 3031   1.080   0.888   7.923
  930WAT     H1 3032   1.100   0.880   8.020
  930WAT     H2 3033   1.145   0.832   7.871
  931WAT      O 3034   1.329   1.417   9.871
  931WAT     H1 3035   1.355   1.511   9.894
  931WAT     H2 3036   1.272   1.418   9.789
  932WAT      O 3037   8.285   8.343   5.772
  932WAT     H1 3038   8.377   8.310   5.749
  932WAT     H2 3039   8.284   8.443   5.769
  933WAT      O 3040   6.010   9.002   6.181
  933WAT     H1 3041   6.005   9.100   6.162
  933WAT     H2 3042   6.072   8.986   6.258
  934WAT      O 3043   9.752   4.785   9.081
  934WAT     H1 3044   9.664   4.736   9.080
  934WAT     H2 3045   9.817   4.737   9.023
  935WAT      O 3046   3.162   0.244   6.202
  935WAT     H1 3047   3.114   0.285   6.280
  935WAT     H2 3048   3.118   0.274   6.117
  936WAT      O 3049   7.231   1.791   1.978
  936WAT     H1 3050   7.244   1.856   2.053
  936WAT     H2 3051   7.201   1.703   2.014
  937WAT      O 3052   9.240   7.702   5.994
  937WAT     H1 3053   9.300   7.770   5.952
  937WAT     H2 3054   9.176   7.667   5.926
  938WAT      O 3055   8.458   8.759   5.130
  938WAT     H1 3056   8.541   8.807   5.161
  938WAT     H2 3057   8.386   8.826   5.113
  939WAT      O 3058   6.331   6.880   3.503
  939WAT     H1 3059   6.359   6.796   3.458
  939WAT     H2 3060   6.378   6.890   3.590
  940WAT      O 3061   2.145   1.487   1.800
  940WAT     H1 3062   2.234   1.499   1.756
  940WAT     H2 3063   2.135   1.392   1.829
  941WAT      O 3064   2.739   6.233   5.868
  941WAT     H1 3065   2.664   6.227   5.802
  941WAT     H2 3066   2.807   6.299   5.835
  942WAT      O 3067   9.696   0.266   7.568
  942WAT     H1 3068   9.758   0.313   7.506
  942WAT     H2 3069   9.747   0.197   7.619
  943WAT      O 3070   5.897   2.289   4.836
  943WAT     H1 3071   5.843   2.206   4.851
  943WAT     H2 3072   5.839   2.370   4.848
  944WAT      O 3073   4.898   3.671   6.639
  944WAT     H1 3074   4.874   3.714   6.552
  944WAT     H2 3075   4.847   3.586   6.650
  945WAT      O 3076   9.148   0.970   0.205
  945WAT     H1 3077   9.169   0.952   0.109
  945WAT     H2 3078   9.062   1.021   0.211
  946WAT      O 3079   9.346   2.185   5.134
  946WAT     H1 3080   9.331   2.282   5.116
  946WAT     H2 3081   9.382   2.173   5.226
  947WAT      O 3082   3.831   5.793   9.845
  947WAT     H1 3083   3.738   5.797   9.808
  947WAT     H2 3084   3.839   5.858   9.921
  948WAT      O 3085   6.575   1.043   0.536
  948WAT     H1 3086   6.670   1.028   0.565
  948WAT     H2 3087   6.526   0.956   0.537
  949WAT      O 3088   1.756   7.170   9.064
  949WAT     H1 3089   1.685   7.128   9.121
  949WAT     H2 3090   1.844   7.169   9.114
  950WAT      O 3091   5.436   1.073   7.384
  950WAT     H1 3092   5.338   1.083   7.404
  950WAT     H2 3093   5.481   1.162   7.395
  951WAT      O 3094   7.586   3.106   5.386
  951WAT     H1 3095   7.528   3.169   5.333
  951WAT     H2 3096   7.625   3.038   5.324
  952WAT      O 3097   7.868   2.806   3.546
  952WAT     H1 3098   7.860   2.719   3.595
  952WAT     H2 3099   7.885   2.788   3.449
  953WAT      O 3100   2.674   5.877   4.059
  953WAT     H1 3101   2.698   5.819   4.136
  953WAT     H2 3102   2.706   5.970   4.076
  954WAT      O 3103   8.173   3.061   1.893
  954WAT     H1 3104   8.188   3.061   1.794
  954WAT     H2 3105   8.154   2.968   1.924
  955WAT      O 3106   2.221   4.115   7.086
  955WAT     H1 3107   2.249   4.188   7.148
  955WAT     H2 3108   2.123   4.097   7.097
  956WAT      O 3109   6.089   5.323   7.780
  956WAT     H1 3110   6.032   5.315   7.861
  956WAT     H2 3111   6.185   5.315   7.806
  957WAT      O 3112   2.494   5.524   8.091
  957WAT     H1 3113   2.500   5.617   8.053
  957WAT     H2 3114   2.400   5.506   8.121
  958WAT      O 3115   3.477   2.176   5.744
  958WAT     H1 3116   3.551   2.176   5.678
  958WAT     H2 3117   3.492   2.248   5.811
  959WAT      O 3118   2.120   0.378   3.692
  959WAT     H1 3119   2.141   0.344   3.784
  959WAT     H2 3120   2.189   0.345   3.628
  960WAT      O 3121   1.330   5.796   2.951
  960WAT     H1 3122   1.405   5.767   2.891
  960WAT     H2 3123   1.365   5.861   3.019
  961WAT      O 3124   3.528   9.275   0.487
  961WAT     H1 3125   3.512   9.284   0.389
  961WAT     H2 3126   3.565   9.183   0.506
  962WAT      O 3127   6.572   4.021   0.516
  962WAT     H1 3128   6.579   3.951   0.445
  962WAT     H2 3129   6.662   4.064   0.529
  963WAT      O 3130   3.982   2.471   5.097
  963WAT     H1 3131   3.940   2.551   5.140
  963WAT     H2 3132   3.971   2.392   5.158
  964WAT      O 3133   5.570   3.493   3.492
  964WAT     H1 3134   5.588   3.541   3.578
  964WAT     H2 3135   5.652   3.493   3.435
  965WAT      O 3136   2.224   1.718   5.120
  965WAT     H1 3137   2.270   1.705   5.208
  965WAT     H2 3138   2.128   1.742   5.135
  966WAT      O 3139   3.066   5.147   5.896
  966WAT     H1 3140   2.991   5.083   5.912
  966WAT     H2 3141   3.084   5.199   5.980
  967WAT      O 3142   6.631   3.457   1.130
  967WAT     H1 3143   6.650   3.551   1.100
  967WAT     H2 3144   6.601   3.403   1.052
  968WAT      O 3145   5.855   9.006   7.423
  968WAT     H1 3146   5.791   8.961   7.486
  968WAT     H2 3147   5.937   9.033   7.472
  969WAT      O 3148   2.424   6.807   5.109
  969WAT     H1 3149   2.497   6.739   5.099
  969WAT     H2 3150   2.371   6.812   5.025
  970WAT      O 3151   4.196   5.683   6.190
  970WAT     H1 3152   4.180   5.767   6.242
  970WAT     H2 3153   4.274   5.695   6.129
  971WAT      O 3154   9.504   8.659   5.426
  971WAT     H1 3155   9.413   8.677   5.391
  971WAT     H2 3156   9.560   8.617   5.354
  972WAT      O 3157   3.830   3.223   9.190
  972WAT     H1 3158   3.849   3.231   9.092
  972WAT     H2 3159   3.732   3.208   9.203
  973WAT      O 3160   6.683   1.572   6.933
  973WAT     H1 3161   6.773   1.589   6.973
  973WAT     H2 3162   6.667   1.637   6.859
  974WAT      O 3163   0.601   0.778   1.311
  974WAT     H1 3164   0.545   0.858   1.333
  974WAT     H2 3165   0.603   0.717   1.390
  975WAT      O 3166   0.259   1.485   1.911
  975WAT     H1 3167   0.206   1.457   1.830
  975WAT     H2 3168   0.202   1.544   1.968
  976WAT      O 3169   0.327   5.051   0.021
  976WAT     H1 3170   0.378   5.037   0.106
  976WAT     H2 3171   0.233   5.078   0.043
  977WAT      O 3172   4.053   0.985   4.950
  977WAT     H1 3173   4.025   0.891   4.930
  977WAT     H2 3174   4.101   0.987   5.039
  978WAT      O 3175   4.148   3.133   1.749
  978WAT     H1 3176   4.089   3.053   1.761
  978WAT     H2 3177   4.133   3.172   1.658
  979WAT      O 3178   8.398   8.017   8.068
  979WAT     H1 3179   8.312   7.969   8.047
  979WAT     H2 3180   8.378   8.112   8.090
  980WAT      O 3181   8.735   4.530   9.291
  980WAT     H1 3182   8.715   4.487   9.379
  980WAT     H2 3183   8.651   4.568   9.252
  981WAT      O 3184   7.560   0.453   0.752
  981WAT     H1 3185   7.576   0.496   0.663
  981WAT     H2 3186   7.532   0.358   0.739
  982WAT      O 3187   2.064   0.521   4.851
  982WAT     H1 3188   2.127   0.512   4.928
  982WAT     H2 3189   2.115   0.517   4.765
  983WAT      O 3190   1.821   9.586   1.595
  983WAT     H1 3191   1.736   9.602   1.544
  983WAT     H2 3192   1.817   9.633   1.683
  984WAT      O 3193   7.546   1.931   5.766
  984WAT     H1 3194   7.577   1.848   5.813
  984WAT     H2 3195   7.599   1.943   5.682
  985WAT      O 3196   8.489   9.775   9.044
  985WAT     H1 3197   8.566   9.829   9.077
  985WAT     H2 3198   8.423   9.835   8.999
  986WAT      O 3199   5.169   1.450   9.821
  986WAT     H1 3200   5.269   1.449   9.824
  986WAT     H2 3201   5.138   1.501   9.742
  987WAT      O 3202   4.494   8.431   9.214
  987WAT     H1 3203   4.420   8.411   9.149
  987WAT     H2 3204   4.548   8.348   9.229
  988WAT      O 3205   7.312   8.332   8.647
  988WAT     H1 3206   7.241   8.383   8.598
  988WAT     H2 3207   7.306   8.235   8.623
  989WAT      O 3208   4.295   2.429   0.977
  989WAT     H1 3209   4.376   2.384   0.939
  989WAT     H2 3210   4.275   2.393   1.068
  990WAT      O 3211   2.198   0.717   4.386
  990WAT     H1 3212   2.102   0.693   4.401
  990WAT     H2 3213   2.204   0.814   4.362
  991WAT      O 3214   0.727   7.825   3.976
  991WAT     H1 3215   0.696   7.730   3.968
  991WAT     H2 3216   0.648   7.886   3.972
  992WAT      O 3217   7.972   0.714   6.066
  992WAT     H1 3218   8.061   0.757   6.087
  992WAT     H2 3219   7.958   0.713   5.967
  993WAT      O 3220   5.347   0.600   1.514
  993WAT     H1 3221   5.322   0.670   1.582
  993WAT     H2 3222   5.422   0.635   1.458
  994WAT      O 3223   4.127   4.050   2.383
  994WAT     H1 3224   4.045   4.103   2.364
  994WAT     H2 3225   4.205   4.089   2.333
  995WAT      O 3226   9.603   2.126   8.111
  995WAT     H1 3227   9.566   2.055   8.170
  995WAT     H2 3228   9.528   2.176   8.068
  996WAT      O 3229   4.458   3.195   3.317
  996WAT     H1 3230   4.502   3.252   3.386
  996WAT     H2 3231   4.359   3.199   3.328
  997WAT      O 3232   4.948   5.103   1.485
  997WAT     H1 3233   5.036   5.144   1.509
  997WAT     H2 3234   4.910   5.150   1.405
  998WAT      O 3235   7.262   2.038   3.633
  998WAT     H1 3236   7.179   2.073   3.590
  998WAT     H2 3237   7.306   1.972   3.573
  999WAT      O 3238   0.679   9.655   9.870
  999WAT     H1 3239   0.693   9.750   9.844
  999WAT     H2 3240   0.730   9.635   9.954
 1000WAT      O 3241   3.443   8.807   4.498
 1000WAT     H1 3242   3.390   8.738   4.449
 1000WAT     H2 3243   3.509   8.849   4.436
 1001WAT      O 3244   6.252   4.706   2.302
 1001WAT     H1 3245   6.177   4.750   2.253
 1001WAT     H2 3246   6.248   4.732   2.399
 1002WAT      O 3247   3.826   4.340   5.068
 1002WAT     H1 3248   3.923   4.321   5.055
 1002WAT     H2 3249   3.786   4.272   5.129
 1003WAT      O 3250   7.641   4.148   9.550
 1003WAT     H1 3251   7.710   4.076   9.558
 1003WAT     H2 3252   7.686   4.236   9.540
 1004WAT      O 3253   1.632   5.941   5.156
 1004WAT     H1 3254   1.642   6.005   5.232
 1004WAT     H2 3255   1.568   5.979   5.089
 1005WAT      O 3256   8.216   8.767   2.745
 1005WAT     H1 3257   8.197   8.794   2.650
 1005WAT     H2 3258   8.174   8.679   2.764
 1006WAT      O 3259   2.828   2.380   2.198
 1006WAT     H1 3260   2.835   2.284   2.173
 1006WAT     H2 3261   2.732   2.408   2.197
 1007WAT      O 3262   5.628   6.756   1.796
 1007WAT     H1 3263   5.560   6.731   1.727
 1007WAT     H2 3264   5.687   6.678   1.815
 1008WAT      O 3265   6.860   8.135   6.500
 1008WAT     H1 3266   6.845   8.076   6.580
 1008WAT     H2 3267   6.816   8.094   6.420
 1009WAT      O 3268   5.130   0.915   5.037
 1009WAT     H1 3269   5.036   0.937   5.066
 1009WAT     H2 3270   5.162   0.985   4.973
 1010WAT      O 3271   0.296   6.119   7.087
 1010WAT     H1 3272   0.362   6.189   7.059
 1010WAT     H2 3273   0.345   6.047   7.137
 1011WAT      O 3274   0.177   6.088   4.316
 1011WAT     H1 3275   0.267   6.056   4.345
 1011WAT     H2 3276   0.124   6.011   4.280
 1012WAT      O 3277   1.546   5.252   5.104
 1012WAT     H1 3278   1.612   5.180   5.128
 1012WAT     H2 3279   1.583   5.308   5.031
 1013WAT      O 3280   7.391   4.728   1.787
 1013WAT     H1 3281   7.301   4.766   1.811
 1013WAT     H2 3282   7.433   4.785   1.716
 1014WAT      O 3283   5.104   5.778   1.138
 1014WAT     H1 3284   5.030   5.774   1.071
 1014WAT     H2 3285   5.090   5.857   1.198
 1015WAT      O 3286   9.300   9.251   4.634
 1015WAT     H1 3287   9.370   9.230   4.566
 1015WAT     H2 3288   9.278   9.168   4.686
 1016WAT      O 3289   9.711   4.921   1.869
 1016WAT     H1 3290   9.698   4.839   1.925
 1016WAT     H2 3291   9.713   5.002   1.929
 1017WAT      O 3292   6.075   8.249   5.579
 1017WAT     H1 3293   6.130   8.315   5.528
 1017WAT     H2 3294   5.988   8.235   5.532
 1018WAT      O 3295   7.076   0.072   0.903
 1018WAT     H1 3296   7.164   0.121   0.898
 1018WAT     H2 3297   7.005   0.136   0.932
 1019WAT      O 3298   3.733   2.224   7.604
 1019WAT     H1 3299   3.794   2.259   7.675
 1019WAT     H2 3300   3.638   2.232   7.635
 1020WAT      O 3301   3.058   5.336   7.921
 1020WAT     H1 3302   3.100   5.248   7.945
 1020WAT     H2 3303   2.982   5.353   7.983
 1021WAT      O 3304   8.725   2.789   4.884
 1021WAT     H1 3305   8.699   2.693   4.886
 1021WAT     H2 3306   8.788   2.805   4.808
 1022WAT      O 3307   9.823   6.179   7.180
 1022WAT     H1 3308   9.870   6.145   7.262
 1022WAT     H2 3309   9.870   6.260   7.146
 1023WAT      O 3310   0.898   0.048   9.491
 1023WAT     H1 3311   0.991   0.034   9.523
 1023WAT     H2 3312   0.883  -0.004   9.407
 1024WAT      O 3313   2.849   6.747   2.758
 1024WAT     H1 3314   2.857   6.749   2.857
 1024WAT     H2 3315   2.797   6.666   2.730
 1025WAT      O 3316   3.607   0.379   2.581
 1025WAT     H1 3317   3.702   0.375   2.613
 1025WAT     H2 3318   3.602   0.435   2.498
 1026WAT      O 3319   1.573   2.109   0.163
 1026WAT     H1 3320   1.555   2.193   0.215
 1026WAT     H2 3321   1.651   2.061   0.203
 1027WAT      O 3322   6.614   4.552   4.180
 1027WAT     H1 3323   6.607   4.643   4.222
 1027WAT     H2 3324   6.709   4.523   4.177
 1028WAT      O 3325   0.174   6.809   1.271
 1028WAT     H1 3326   0.241   6.735   1.265
 1028WAT     H2 3327   0.219   6.896   1.249
 1029WAT      O 3328   0.602   4.425   4.947
 1029WAT     H1 3329   0.510   4.426   4.906
 1029WAT     H2 3330   0.631   4.331   4.962
 1030WAT      O 3331   2.111   1.090   2.772
 1030WAT     H1 3332   2.131   1.100   2.870
 1030WAT     H2 3333   2.104   0.992   2.750
 1031WAT      O 3334   7.899   4.342   4.778
 1031WAT     H1 3335   7.947   4.384   4.700
 1031WAT     H2 3336   7.964   4.290   4.833
 1032WAT      O 3337   1.212   1.075   4.786
 1032WAT     H1 3338   1.308   1.054   4.807
 1032WAT     H2 3339   1.181   1.151   4.843
 1033WAT      O 3340   8.992   3.923   1.825
 1033WAT     H1 3341   9.012   3.961   1.915
 1033WAT     H2 3342   8.901   3.882   1.826
 1034WAT      O 3343   7.732   8.153   6.471
 1034WAT     H1 3344   7.743   8.109   6.382
 1034WAT     H2 3345   7.655   8.112   6.519
 1035WAT      O 3346   6.487   0.787   5.140
 1035WAT     H1 3347   6.501   0.748   5.049
 1035WAT     H2 3348   6.561   0.758   5.200
 1036WAT      O 3349   4.692   1.291   0.448
 1036WAT     H1 3350   4.668   1.384   0.476
 1036WAT     H2 3351   4.650   1.271   0.360
 1037WAT      O 3352   5.618   8.838   4.451
 1037WAT     H1 3353   5.692   8.886   4.404
 1037WAT     H2 3354   5.630   8.739   4.441
 1038WAT      O 3355   8.584   3.597   5.501
 1038WAT     H1 3356   8.589   3.507   5.543
 1038WAT     H2 3357   8.593   3.589   5.402
 1039WAT      O 3358   6.888   6.374   8.002
 1039WAT     H1 3359   6.807   6.389   8.058
 1039WAT     H2 3360   6.970   6.377   8.060
 1040WAT      O 3361   5.011   3.545   9.046
 1040WAT     H1 3362   5.032   3.574   8.953
 1040WAT     H2 3363   4.991   3.447   9.047
 1041WAT      O 3364   8.253   4.019   6.184
 1041WAT     H1 3365   8.278   3.934   6.230
 1041WAT     H2 3366   8.297   4.096   6.229
 1042WAT      O 3367   2.998   5.397   7.379
 1042WAT     H1 3368   2.953   5.333   7.441
 1042WAT     H2 3369   2.960   5.489   7.392
 1043WAT      O 3370   1.847   3.953   9.233
 1043WAT     H1 3371   1.841   4.050   9.255
 1043WAT     H2 3372   1.924   3.938   9.170
 1044WAT      O 3373   8.127   7.693   2.860
 1044WAT     H1 3374   8.200   7.711   2.925
 1044WAT     H2 3375   8.043   7.738   2.890
 1045WAT      O 3376   9.270   2.173   2.555
 1045WAT     H1 3377   9.236   2.087   2.516
 1045WAT     H2 3378   9.352   2.154   2.610
 1046WAT      O 3379   8.611   3.320   9.229
 1046WAT     H1 3380   8.547   3.250   9.262
 1046WAT     H2 3381   8.614   3.396   9.295
 1047WAT      O 3382   6.909   3.505   0.559
 1047WAT     H1 3383   6.870   3.464   0.477
 1047WAT     H2 3384   6.852   3.483   0.638
 1048WAT      O 3385   9.794   3.075   5.594
 1048WAT     H1 3386   9.865   3.090   5.663
 1048WAT     H2 3387   9.712   3.127   5.619
 1049WAT      O 3388   5.837   0.177   8.341
 1049WAT     H1 3389   5.913   0.234   8.373
 1049WAT     H2 3390   5.763   0.236   8.309
 1050WAT      O 3391   9.717   3.689   1.641
 1050WAT     H1 3392   9.694   3.690   1.739
 1050WAT     H2 3393   9.633   3.695   1.588
 1051WAT      O 3394   7.595   2.546   4.823
 1051WAT     H1 3395   7.608   2.580   4.917
 1051WAT     H2 3396   7.660   2.592   4.763
 1052WAT      O 3397   8.319   0.113   2.858
 1052WAT     H1 3398   8.397   0.055   2.836
 1052WAT     H2 3399   8.350   0.191   2.912
 1053WAT      O 3400   9.551   3.067   5.876
 1053WAT     H1 3401   9.596   3.095   5.791
 1053WAT     H2 3402   9.455   3.044   5.856
 1054WAT      O 3403   7.867   7.367   3.587
 1054WAT     H1 3404   7.824   7.291   3.538
 1054WAT     H2 3405   7.845   7.361   3.684
 1055WAT      O 3406   7.589   2.229   8.336
 1055WAT     H1 3407   7.614   2.146   8.286
 1055WAT     H2 3408   7.500   2.216   8.380
 1056WAT      O 3409   2.624   3.022   9.034
 1056WAT     H1 3410   2.634   3.089   9.108
 1056WAT     H2 3411   2.689   3.042   8.961
 1057WAT      O 3412   5.448   7.470   3.160
 1057WAT     H1 3413   5.364   7.524   3.158
 1057WAT     H2 3414   5.426   7.376   3.184
 1058WAT      O 3415   0.285   3.189   7.594
 1058WAT     H1 3416   0.316   3.270   7.545
 1058WAT     H2 3417   0.191   3.203   7.625
 1059WAT      O 3418   7.807   4.163   2.353
 1059WAT     H1 3419   7.763   4.244   2.314
 1059WAT     H2 3420   7.887   4.139   2.298
 1060WAT      O 3421   9.397   7.532   2.692
 1060WAT     H1 3422   9.346   7.604   2.643
 1060WAT     H2 3423   9.337   7.491   2.762
 1061WAT      O 3424   8.373   3.612   1.063
 1061WAT     H1 3425   8.376   3.662   1.149
 1061WAT     H2 3426   8.306   3.537   1.070
 1062WAT      O 3427   4.238   9.643   5.905
 1062WAT     H1 3428   4.185   9.568   5.944
 1062WAT     H2 3429   4.320   9.606   5.859
 1063WAT      O 3430   8.101   7.838   5.375
 1063WAT     H1 3431   8.120   7.779   5.297
 1063WAT     H2 3432   8.185   7.882   5.405
 1064WAT      O 3433   0.521   3.228   7.774
 1064WAT     H1 3434   0.444   3.236   7.710
 1064WAT     H2 3435   0.503   3.281   7.856
 1065WAT      O 3436   2.538   6.620   0.376
 1065WAT     H1 3437   2.521   6.528   0.412
 1065WAT     H2 3438   2.538   6.685   0.452
 1066WAT      O 3439   8.321   7.958   9.872
 1066WAT     H1 3440   8.290   7.866   9.896
 1066WAT     H2 3441   8.394   7.953   9.804
 1067WAT      O 3442   1.855   6.096   2.660
 1067WAT     H1 3443   1.936   6.110   2.603
 1067WAT     H2 3444   1.855   6.002   2.696
 1068WAT      O 3445   7.986   2.031   4.695
 1068WAT     H1 3446   7.962   2.128   4.699
 1068WAT     H2 3447   8.081   2.019   4.725
 1069WAT      O 3448   1.784   9.164   9.038
 1069WAT     H1 3449   1.771   9.140   9.134
 1069WAT     H2 3450   1.729   9.245   9.016
 1070WAT      O 3451   5.368   9.320   3.377
 1070WAT     H1 3452   5.467   9.321   3.364
 1070WAT     H2 3453   5.342   9.236   3.426
 1071WAT      O 3454   3.567   4.955   7.415
 1071WAT     H1 3455   3.589   5.045   7.452
 1071WAT     H2 3456   3.471   4.954   7.385
 1072WAT      O 3457   5.957   5.765   3.551
 1072WAT     H1 3458   5.918   5.842   3.500
 1072WAT     H2 3459   5.886   5.724   3.608
 1073WAT      O 3460   0.972   3.657   7.436
 1073WAT     H1 3461   1.042   3.671   7.506
 1073WAT     H2 3462   0.898   3.600   7.473
 1074WAT      O 3463   7.826   8.238   8.239
 1074WAT     H1 3464   7.790   8.322   8.198
 1074WAT     H2 3465   7.796   8.232   8.334
 1075WAT      O 3466   8.281   5.514   8.186
 1075WAT     H1 3467   8.221   5.482   8.112
 1075WAT     H2 3468   8.240   5.492   8.274
 1076WAT      O 3469   3.694   1.898   5.519
 1076WAT     H1 3470   3.722   1.861   5.608
 1076WAT     H2 3471   3.730   1.839   5.446
 1077WAT      O 3472   0.394   9.527   3.426
 1077WAT     H1 3473   0.425   9.470   3.503
 1077WAT     H2 3474   0.339   9.471   3.363
 1078WAT      O 3475   8.039   8.259   3.670
 1078WAT     H1 3476   8.117   8.267   3.607
 1078WAT     H2 3477   7.963   8.313   3.634
 1079WAT      O 3478   0.529   7.455   9.624
 1079WAT     H1 3479   0.468   7.445   9.703
 1079WAT     H2 3480   0.611   7.504   9.652
 1080WAT      O 3481   0.857   9.151   5.711
 1080WAT     H1 3482   0.893   9.073   5.761
 1080WAT     H2 3483   0.783   9.121   5.651
 1081WAT      O 3484   4.977   7.178   5.448
 1081WAT     H1 3485   5.023   7.153   5.363
 1081WAT     H2 3486   4.972   7.278   5.455
 1082WAT      O 3487   1.869   9.178   5.011
 1082WAT     H1 3488   1.805   9.104   5.033
 1082WAT     H2 3489   1.838   9.224   4.928
 1083WAT      O 3490   6.518   8.036   6.831
 1083WAT     H1 3491   6.437   7.986   6.862
 1083WAT     H2 3492   6.556   8.089   6.907
 1084WAT      O 3493   4.762   3.630   2.743
 1084WAT     H1 3494   4.847   3.592   2.706
 1084WAT     H2 3495   4.706   3.557   2.780
 1085WAT      O 3496   3.937   0.334   1.323
 1085WAT     H1 3497   3.861   0.363   1.265
 1085WAT     H2 3498   3.939   0.390   1.406
 1086WAT      O 3499   4.754   1.433   2.237
 1086WAT     H1 3500   4.704   1.484   2.306
 1086WAT     H2 3501   4.727   1.464   2.146
 1087WAT      O 3502   1.602   0.368   8.116
 1087WAT     H1 3503   1.561   0.349   8.026
 1087WAT     H2 3504   1.682   0.310   8.129
 1088WAT      O 3505   6.066   0.811   6.292
 1088WAT     H1 3506   6.110   0.819   6.203
 1088WAT     H2 3507   5.967   0.823   6.281
 1089WAT      O 3508   1.538   0.136   3.437
 1089WAT     H1 3509   1.506   0.185   3.518
 1089WAT     H2 3510   1.631   0.102   3.454
 1090WAT      O 3511   0.057   8.412   8.223
 1090WAT     H1 3512   0.099   8.366   8.301
 1090WAT     H2 3513   0.064   8.354   8.142
 1091WAT      O 3514   0.443   4.621   8.066
 1091WAT     H1 3515   0.514   4.684   8.034
 1091WAT     H2 3516   0.468   4.589   8.158
 1092WAT      O 3517   9.178   2.928   4.396
 1092WAT     H1 3518   9.096   2.919   4.339
 1092WAT     H2 3519   9.248   2.979   4.346
 1093WAT      O 3520   6.606   8.938   3.060
 1093WAT     H1 3521   6.532   8.990   3.104
 1093WAT     H2 3522   6.630   8.982   2.974
 1094WAT      O 3523   4.588   9.414   3.924
 1094WAT     H1 3524   4.491   9.408   3.900
 1094WAT     H2 3525   4.608   9.350   3.998
 1095WAT      O 3526   1.172   4.495   3.416
 1095WAT     H1 3527   1.160   4.514   3.318
 1095WAT     H2 3528   1.140   4.403   3.436
 1096WAT      O 3529   7.381   7.186   9.123
 1096WAT     H1 3530   7.362   7.269   9.176
 1096WAT     H2 3531   7.394   7.210   9.027
 1097WAT      O 3532   5.641   3.926   0.519
 1097WAT     H1 3533   5.604   3.923   0.612
 1097WAT     H2 3534   5.731   3.968   0.520
 1098WAT      O 3535   2.419   0.548   2.456
 1098WAT     H1 3536   2.383   0.537   2.549
 1098WAT     H2 3537   2.504   0.601   2.460
 1099WAT      O 3538   8.498   7.604   3.732
 1099WAT     H1 3539   8.525   7.675   3.666
 1099WAT     H2 3540   8.573   7.540   3.744
 1100WAT      O 3541   3.370   8.461   6.337
 1100WAT     H1 3542   3.378   8.414   6.425
 1100WAT     H2 3543   3.282   8.509   6.333
 1101WAT      O 3544   5.476   2.689   5.840
 1101WAT     H1 3545   5.542   2.738   5.898
 1101WAT     H2 3546   5.506   2.594   5.828
 1102WAT      O 3547   3.415   2.370   6.806
 1102WAT     H1 3548   3.434   2.329   6.716
 1102WAT     H2 3549   3.474   2.329   6.875
 1103WAT      O 3550   1.912   7.211   7.584
 1103WAT     H1 3551   2.007   7.226   7.613
 1103WAT     H2 3552   1.857   7.185   7.663
 1104WAT      O 3553   9.750   1.899   9.248
 1104WAT     H1 3554   9.736   1.802   9.224
 1104WAT     H2 3555   9.685   1.955   9.198
 1105WAT      O 3556   2.981   5.830   0.948
 1105WAT     H1 3557   2.946   5.842   0.855
 1105WAT     H2 3558   2.928   5.759   0.995
 1106WAT      O 3559   9.483   0.665   8.637
 1106WAT     H1 3560   9.485   0.589   8.572
 1106WAT     H2 3561   9.394   0.668   8.683
 1107WAT      O 3562   9.175   2.289   9.526
 1107WAT     H1 3563   9.077   2.269   9.536
 1107WAT     H2 3564   9.224   2.206   9.502
 1108WAT      O 3565   8.794   9.798   5.621
 1108WAT     H1 3566   8.864   9.779   5.553
 1108WAT     H2 3567   8.708   9.756   5.593
 1109WAT      O 3568   0.430   0.037   2.091
 1109WAT     H1 3569   0.361   0.021   2.021
 1109WAT     H2 3570   0.489  -0.044   2.099
 1110WAT      O 3571   5.330   0.789   7.692
 1110WAT     H1 3572   5.390   0.806   7.613
 1110WAT     H2 3573   5.386   0.768   7.772
 1111WAT      O 3574   5.956   0.730   1.784
 1111WAT     H1 3575   5.947   0.662   1.711
 1111WAT     H2 3576   5.882   0.797   1.776
 1112WAT      O 3577   8.199   9.557   7.745
 1112WAT     H1 3578   8.268   9.489   7.719
 1112WAT     H2 3579   8.203   9.633   7.680
 1113WAT      O 3580   4.483   8.654   6.406
 1113WAT     H1 3581   4.438   8.647   6.495
 1113WAT     H2 3582   4.501   8.750   6.386
 1114WAT      O 3583   4.752   3.691   2.403
 1114WAT     H1 3584   4.838   3.640   2.412
 1114WAT     H2 3585   4.735   3.744   2.486
 1115WAT      O 3586   8.145   6.756   5.141
 1115WAT     H1 3587   8.067   6.779   5.200
 1115WAT     H2 3588   8.223   6.731   5.197
 1116WAT      O 3589   1.568   6.278   5.697
 1116WAT     H1 3590   1.575   6.192   5.748
 1116WAT     H2 3591   1.495   6.334   5.736
 1117WAT      O 3592   2.673   7.112   1.181
 1117WAT     H1 3593   2.769   7.084   1.183
 1117WAT     H2 3594   2.616   7.035   1.152
 1118WAT      O 3595   5.907   6.672   5.403
 1118WAT     H1 3596   5.930   6.729   5.482
 1118WAT     H2 3597   5.857   6.591   5.433
 1119WAT      O 3598   5.918   4.456   1.101
 1119WAT     H1 3599   5.910   4.531   1.035
 1119WAT     H2 3600   5.857   4.472   1.178
 1120WAT      O 3601   5.986   1.105   7.385
 1120WAT     H1 3602   5.984   1.017   7.338
 1120WAT     H2 3603   5.973   1.178   7.319
 1121WAT      O 3604   6.384   0.309   1.892
 1121WAT     H1 3605   6.451   0.298   1.965
 1121WAT     H2 3606   6.418   0.374   1.825
 1122WAT      O 3607   2.486   3.426   7.820
 1122WAT     H1 3608   2.403   3.432   7.765
 1122WAT     H2 3609   2.544   3.505   7.802
 1123WAT      O 3610   6.611   2.879   5.283
 1123WAT     H1 3611   6.525   2.851   5.241
 1123WAT     H2 3612   6.622   2.978   5.273
 1124WAT      O 3613   0.579   6.266   5.038
 1124WAT     H1 3614   0.608   6.297   5.129
 1124WAT     H2 3615   0.653   6.280   4.972
 1125WAT      O 3616   3.983   0.953   3.251
 1125WAT     H1 3617   4.051   0.889   3.216
 1125WAT     H2 3618   3.974   0.940   3.350
 1126WAT      O 3619   4.389   4.734   1.202
 1126WAT     H1 3620   4.359   4.807   1.140
 1126WAT     H2 3621   4.481   4.704   1.176
 1127WAT      O 3622   8.477   6.643   7.598
 1127WAT     H1 3623   8.466   6.732   7.554
 1127WAT     H2 3624   8.488   6.655   7.697
 1128WAT      O 3625   8.561   0.132   4.951
 1128WAT     H1 3626   8.573   0.228   4.977
 1128WAT     H2 3627   8.465   0.114   4.934
 1129WAT      O 3628   6.550   8.544   6.959
 1129WAT     H1 3629   6.557   8.494   7.045
 1129WAT     H2 3630   6.620   8.616   6.956
 1130WAT      O 3631   0.993   4.437   4.738
 1130WAT     H1 3632   1.029   4.508   4.679
 1130WAT     H2 3633   0.918   4.389   4.692
 1131WAT      O 3634   0.123   0.580   5.133
 1131WAT     H1 3635   0.187   0.649   5.101
 1131WAT     H2 3636   0.170   0.514   5.192
 1132WAT      O 3637   0.422   3.927   9.014
 1132WAT     H1 3638   0.351   3.943   9.082
 1132WAT     H2 3639   0.412   3.836   8.975
 1133WAT      O 3640   8.210   7.599   5.908
 1133WAT     H1 3641   8.228   7.507   5.873
 1133WAT     H2 3642   8.220   7.665   5.834
 1134WAT      O 3643   7.606   2.452   1.143
 1134WAT     H1 3644   7.567   2.383   1.205
 1134WAT     H2 3645   7.699   2.426   1.118
 1135WAT      O 3646   1.067   8.353   4.120
 1135WAT     H1 3647   1.033   8.262   4.100
 1135WAT     H2 3648   1.008   8.422   4.078
 1136WAT      O 3649   5.091   5.985   2.377
 1136WAT     H1 3650   5.119   5.960   2.470
 1136WAT     H2 3651   5.068   6.083   2.374
 1137WAT      O 3652   4.704   0.405   8.407
 1137WAT     H1 3653   4.640   0.359   8.469
 1137WAT     H2 3654   4.768   0.338   8.370
 1138WAT      O 3655   2.690   4.811   7.593
 1138WAT     H1 3656   2.773   4.769   7.556
 1138WAT     H2 3657   2.633   4.740   7.634
 1139WAT      O 3658   2.172   6.951   2.770
 1139WAT     H1 3659   2.120   6.931   2.687
 1139WAT     H2 3660   2.119   6.924   2.851
 1140WAT      O 3661   5.966   5.823   7.719
 1140WAT     H1 3662   5.924   5.911   7.741
 1140WAT     H2 3663   6.001   5.824   7.625
 1141WAT      O 3664   5.080   3.877   4.453
 1141WAT     H1 3665   5.161   3.840   4.407
 1141WAT     H2 3666   5.100   3.970   4.484
 1142WAT      O 3667   3.902   6.811   2.677
 1142WAT     H1 3668   3.838   6.812   2.600
 1142WAT     H2 3669   3.981   6.868   2.655
 1143WAT      O 3670   1.381   5.203   1.975
 1143WAT     H1 3671   1.324   5.141   1.921
 1143WAT     H2 3672   1.390   5.290   1.926
 1144WAT      O 3673   2.326   4.592   5.332
 1144WAT     H1 3674   2.324   4.494   5.351
 1144WAT     H2 3675   2.353   4.607   5.237
 1145WAT      O 3676   2.412   5.965   6.014
 1145WAT     H1 3677   2.474   6.043   6.023
 1145WAT     H2 3678   2.456   5.882   6.050
 1146WAT      O 3679   8.421   3.336   1.671
 1146WAT     H1 3680   8.335   3.384   1.688
 1146WAT     H2 3681   8.438   3.333   1.572
 1147WAT      O 3682   0.609   6.275   9.359
 1147WAT     H1 3683   0.584   6.294   9.454
 1147WAT     H2 3684   0.687   6.214   9.357
 1148WAT      O 3685   5.507   0.205   6.279
 1148WAT     H1 3686   5.439   0.230   6.210
 1148WAT     H2 3687   5.510   0.275   6.350
 1149WAT      O 3688   5.282   1.521   7.825
 1149WAT     H1 3689   5.193   1.504   7.868
 1149WAT     H2 3690   5.354   1.513   7.894
 1150WAT      O 3691   2.690   6.482   3.325
 1150WAT     H1 3692   2.701   6.581   3.332
 1150WAT     H2 3693   2.769   6.437   3.366
 1151WAT      O 3694   0.039   7.278   2.451
 1151WAT     H1 3695  -0.013   7.196   2.472
 1151WAT     H2 3696  -0.013   7.335   2.386
 1152WAT      O 3697   6.666   0.601   6.082
 1152WAT     H1 3698   6.721   0.674   6.123
 1152WAT     H2 3699   6.716   0.515   6.087
 1153WAT      O 3700   9.644   5.758   2.835
 1153WAT     H1 3701   9.624   5.840   2.888
 1153WAT     H2 3702   9.591   5.759   2.751
 1154WAT      O 3703   4.595   4.899   8.468
 1154WAT     H1 3704   4.520   4.963   8.454
 1154WAT     H2 3705   4.678   4.950   8.490
 1155WAT      O 3706   0.986   8.145   7.590
 1155WAT     H1 3707   1.002   8.213   7.519
 1155WAT     H2 3708   0.991   8.053   7.551
 1156WAT      O 3709   9.752   6.156   1.548
 1156WAT     H1 3710   9.835   6.134   1.600
 1156WAT     H2 3711   9.692   6.213   1.604
 1157WAT      O 3712   3.751   4.413   0.156
 1157WAT     H1 3713   3.845   4.435   0.179
 1157WAT     H2 3714   3.749   4.333   0.096
 1158WAT      O 3715   5.373   7.394   3.910
 1158WAT     H1 3716   5.440   7.327   3.941
 1158WAT     H2 3717   5.282   7.365   3.939
 1159WAT      O 3718   0.695   9.673   5.969
 1159WAT     H1 3719   0.644   9.726   5.901
 1159WAT     H2 3720   0.696   9.576   5.942
 1160WAT      O 3721   0.212   2.525   6.647
 1160WAT     H1 3722   0.249   2.617   6.647
 1160WAT     H2 3723   0.114   2.528   6.666
 1161WAT      O 3724   2.772   4.644   4.290
 1161WAT     H1 3725   2.749   4.617   4.197
 1161WAT     H2 3726   2.797   4.741   4.292
 1162WAT      O 3727   6.015   9.369   7.161
 1162WAT     H1 3728   5.943   9.317   7.206
 1162WAT     H2 3729   5.977   9.416   7.081
 1163WAT      O 3730   0.718   5.634   9.437
 1163WAT     H1 3731   0.786   5.706   9.448
 1163WAT     H2 3732   0.676   5.640   9.346
 1164WAT      O 3733   4.996   0.985   9.729
 1164WAT     H1 3734   5.087   0.951   9.753
 1164WAT     H2 3735   4.974   1.064   9.787
 1165WAT      O 3736   4.738   2.285   3.449
 1165WAT     H1 3737   4.733   2.349   3.525
 1165WAT     H2 3738   4.711   2.331   3.364
 1166WAT      O 3739   7.894   3.518   9.006
 1166WAT     H1 3740   7.968   3.497   8.941
 1166WAT     H2 3741   7.932   3.535   9.096
 1167WAT      O 3742   6.119   4.268   7.370
 1167WAT     H1 3743   6.182   4.193   7.389
 1167WAT     H2 3744   6.093   4.313   7.455
 1168WAT      O 3745   8.054   4.528   4.183
 1168WAT     H1 3746   8.147   4.551   4.156
 1168WAT     H2 3747   7.995   4.608   4.170
 1169WAT      O 3748   6.760   0.817   7.889
 1169WAT     H1 3749   6.697   0.764   7.946
 1169WAT     H2 3750   6.850   0.821   7.934
 1170WAT      O 3751   5.770   8.668   7.919
 1170WAT     H1 3752   5.713   8.633   7.844
 1170WAT     H2 3753   5.713   8.682   8.000
 1171WAT      O 3754   4.422   1.695   2.517
 1171WAT     H1 3755   4.374   1.741   2.442
 1171WAT     H2 3756   4.499   1.643   2.480
 1172WAT      O 3757   1.235   9.712   1.499
 1172WAT     H1 3758   1.155   9.698   1.558
 1172WAT     H2 3759   1.228   9.802   1.455
 1173WAT      O 3760   3.204   6.467   0.588
 1173WAT     H1 3761   3.107   6.490   0.575
 1173WAT     H2 3762   3.229   6.483   0.684
 1174WAT      O 3763   1.441   5.188   0.547
 1174WAT     H1 3764   1.541   5.184   0.540
 1174WAT     H2 3765   1.400   5.121   0.485
 1175WAT      O 3766   8.797   1.401   0.669
 1175WAT     H1 3767   8.800   1.312   0.713
 1175WAT     H2 3768   8.891   1.435   0.655
 1176WAT      O 3769   3.016   5.044   6.945
 1176WAT     H1 3770   3.107   5.023   6.910
 1176WAT     H2 3771   3.022   5.120   7.010
 1177WAT      O 3772   2.525   6.828   7.922
 1177WAT     H1 3773   2.566   6.737   7.928
 1177WAT     H2 3774   2.531   6.860   7.827
 1178WAT      O 3775   6.793   8.207   4.865
 1178WAT     H1 3776   6.841   8.161   4.791
 1178WAT     H2 3777   6.757   8.295   4.832
 1179WAT      O 3778   4.106   7.555   0.397
 1179WAT     H1 3779   4.030   7.490   0.395
 1179WAT     H2 3780   4.073   7.645   0.366
 1180WAT      O 3781   0.900   6.554   8.720
 1180WAT     H1 3782   0.834   6.499   8.669
 1180WAT     H2 3783   0.851   6.609   8.787
 1181WAT      O 3784   8.216   8.462   2.003
 1181WAT     H1 3785   8.251   8.485   2.094
 1181WAT     H2 3786   8.234   8.366   1.983
 1182WAT      O 3787   3.734   4.915   3.939
 1182WAT     H1 3788   3.789   4.842   3.898
 1182WAT     H2 3789   3.780   5.002   3.927
 1183WAT      O 3790   7.440   8.503   6.499
 1183WAT     H1 3791   7.359   8.471   6.548
 1183WAT     H2 3792   7.518   8.507   6.561
 1184WAT      O 3793   8.850   9.044   3.932
 1184WAT     H1 3794   8.876   8.979   4.003
 1184WAT     H2 3795   8.750   9.055   3.932
 1185WAT      O 3796   2.535   9.173   9.498
 1185WAT     H1 3797   2.482   9.114   9.437
 1185WAT     H2 3798   2.624   9.131   9.516
 1186WAT      O 3799   3.728   4.060   3.747
 1186WAT     H1 3800   3.629   4.047   3.745
 1186WAT     H2 3801   3.752   4.138   3.688
 1187WAT      O 3802   3.096   5.451   8.750
 1187WAT     H1 3803   3.126   5.505   8.828
 1187WAT     H2 3804   3.006   5.482   8.720
 1188WAT      O 3805   7.660   6.685   8.261
 1188WAT     H1 3806   7.758   6.672   8.245
 1188WAT     H2 3807   7.620   6.599   8.294
 1189WAT      O 3808   3.321   6.552   9.537
 1189WAT     H1 3809   3.247   6.523   9.598
 1189WAT     H2 3810   3.408   6.520   9.573
 1190WAT      O 3811   6.015   0.282   6.515
 1190WAT     H1 3812   5.950   0.241   6.451
 1190WAT     H2 3813   6.103   0.236   6.507
 1191WAT      O 3814   2.252   0.476   7.606
 1191WAT     H1 3815   2.340   0.500   7.647
 1191WAT     H2 3816   2.253   0.499   7.508
 1192WAT      O 3817   8.633   3.418   8.122
 1192WAT     H1 3818   8.641   3.383   8.215
 1192WAT     H2 3819   8.542   3.397   8.086
 1193WAT      O 3820   4.602   0.210   2.845
 1193WAT     H1 3821   4.536   0.170   2.781
 1193WAT     H2 3822   4.689   0.163   2.838
 1194WAT      O 3823   5.633   7.541   7.769
 1194WAT     H1 3824   5.704   7.493   7.821
 1194WAT     H2 3825   5.551   7.484   7.765
 1195WAT      O 3826   4.519   3.366   3.550
 1195WAT     H1 3827   4.468   3.325   3.626
 1195WAT     H2 3828   4.486   3.460   3.536
 1196WAT      O 3829   3.446   4.572   5.083
 1196WAT     H1 3830   3.483   4.509   5.015
 1196WAT     H2 3831   3.495   4.562   5.169
 1197WAT      O 3832   9.031   5.865   9.239
 1197WAT     H1 3833   9.012   5.793   9.171
 1197WAT     H2 3834   8.963   5.938   9.230
 1198WAT      O 3835   2.616   3.746   5.291
 1198WAT     H1 3836   2.576   3.758   5.382
 1198WAT     H2 3837   2.548   3.767   5.222
 1199WAT      O 3838   7.671   3.802   9.474
 1199WAT     H1 3839   7.740   3.866   9.508
 1199WAT     H2 3840   7.711   3.743   9.404
 1200WAT      O 3841   8.790   3.049   0.975
 1200WAT     H1 3842   8.729   3.104   0.917
 1200WAT     H2 3843   8.812   2.964   0.928
 1201WAT      O 3844   7.173   3.980   3.542
 1201WAT     H1 3845   7.184   3.987   3.641
 1201WAT     H2 3846   7.258   3.944   3.502
 1202WAT      O 3847   5.348   3.575   5.007
 1202WAT     H1 3848   5.324   3.499   5.068
 1202WAT     H2 3849   5.308   3.558   4.917
 1203WAT      O 3850   1.021   3.198   3.634
 1203WAT     H1 3851   0.994   3.116   3.684
 1203WAT     H2 3852   1.115   3.222   3.658
 1204WAT      O 3853   4.053   3.978   9.818
 1204WAT     H1 3854   4.002   3.919   9.882
 1204WAT     H2 3855   4.002   3.987   9.733
 1205WAT      O 3856   5.004   1.201   2.968
 1205WAT     H1 3857   4.923   1.152   2.937
 1205WAT     H2 3858   5.061   1.140   3.022
 1206WAT      O 3859   2.252   6.630   6.011
 1206WAT     H1 3860   2.164   6.664   5.979
 1206WAT     H2 3861   2.237   6.557   6.078
 1207WAT      O 3862   4.143   8.595   1.053
 1207WAT     H1 3863   4.215   8.656   1.087
 1207WAT     H2 3864   4.123   8.617   0.958
 1208WAT      O 3865   4.500   8.668   0.352
 1208WAT     H1 3866   4.462   8.580   0.382
 1208WAT     H2 3867   4.567   8.699   0.419
 1209WAT      O 3868   1.227   7.390   5.976
 1209WAT     H1 3869   1.195   7.472   5.929
 1209WAT     H2 3870   1.305   7.414   6.035
 1210WAT      O 3871   0.314   8.155   8.116
 1210WAT     H1 3872   0.369   8.072   8.104
 1210WAT     H2 3873   0.221   8.137   8.083
 1211WAT      O 3874   5.808   6.494   1.808
 1211WAT     H1 3875   5.902   6.495   1.841
 1211WAT     H2 3876   5.757   6.423   1.857
 1212WAT      O 3877   3.530   6.046   4.097
 1212WAT     H1 3878   3.627   6.028   4.116
 1212WAT     H2 3879   3.514   6.145   4.094
 1213WAT      O 3880   2.060   3.315   2.771
 1213WAT     H1 3881   2.149   3.294   2.730
 1213WAT     H2 3882   2.011   3.381   2.714
 1214WAT      O 3883   3.337   2.291   7.251
 1214WAT     H1 3884   3.388   2.361   7.300
 1214WAT     H2 3885   3.400   2.223   7.214
 1215WAT      O 3886   9.315   5.547   6.902
 1215WAT     H1 3887   9.242   5.486   6.873
 1215WAT     H2 3888   9.276   5.629   6.944
 1216WAT      O 3889   1.492   1.298   5.936
 1216WAT     H1 3890   1.509   1.365   6.009
 1216WAT     H2 3891   1.531   1.210   5.963
 1217WAT      O 3892   3.315   3.434   5.306
 1217WAT     H1 3893   3.359   3.421   5.217
 1217WAT     H2 3894   3.255   3.514   5.302
 1218WAT      O 3895   4.582   1.510   0.726
 1218WAT     H1 3896   4.553   1.561   0.645
 1218WAT     H2 3897   4.586   1.412   0.704
 1219WAT      O 3898   2.819   6.319   3.884
 1219WAT     H1 3899   2.873   6.353   3.807
 1219WAT     H2 3900   2.722   6.337   3.868
 1220WAT      O 3901   0.708   0.456   2.210
 1220WAT     H1 3902   0.655   0.392   2.155
 1220WAT     H2 3903   0.668   0.548   2.202
 1221WAT      O 3904   3.612   7.531   8.497
 1221WAT     H1 3905   3.605   7.547   8.595
 1221WAT     H2 3906   3.708   7.533   8.470
 1222WAT      O 3907   7.866   0.364   9.880
 1222WAT     H1 3908   7.871   0.340   9.783
 1222WAT     H2 3909   7.857   0.463   9.889
 1223WAT      O 3910   0.180   0.457   1.378
 1223WAT     H1 3911   0.090   0.413   1.388
 1223WAT     H2 3912   0.210   0.450   1.283
 1224WAT      O 3913   2.225   2.791   3.398
 1224WAT     H1 3914   2.320   2.811   3.420
 1224WAT     H2 3915   2.170   2.795   3.481
 1225WAT      O 3916   6.189   3.630   0.093
 1225WAT     H1 3917   6.177   3.620   0.192
 1225WAT     H2 3918   6.140   3.557   0.046
 1226WAT      O 3919   0.236   2.710   7.670
 1226WAT     H1 3920   0.216   2.777   7.741
 1226WAT     H2 3921   0.152   2.684   7.623
 1227WAT      O 3922   0.684   7.704   2.358
 1227WAT     H1 3923   0.768   7.700   2.413
 1227WAT     H2 3924   0.604   7.701   2.417
 1228WAT      O 3925   2.612   6.057   3.256
 1228WAT     H1 3926   2.674   6.043   3.179
 1228WAT     H2 3927   2.518   6.064   3.222
 1229WAT      O 3928   0.518   4.787   0.599
 1229WAT     H1 3929   0.422   4.817   0.596
 1229WAT     H2 3930   0.564   4.815   0.514
 1230WAT      O 3931   9.834   6.345   6.076
 1230WAT     H1 3932   9.887   6.272   6.119
 1230WAT     H2 3933   9.796   6.312   5.989
 1231WAT      O 3934   9.193   7.357   4.466
 1231WAT     H1 3935   9.250   7.349   4.384
 1231WAT     H2 3936   9.119   7.290   4.462
 1232WAT      O 3937   3.958   4.501   1.834
 1232WAT     H1 3938   3.951   4.435   1.910
 1232WAT     H2 3939   4.054   4.526   1.822
 1233WAT      O 3940   8.335   1.370   0.109
 1233WAT     H1 3941   8.308   1.390   0.015
 1233WAT     H2 3942   8.412   1.429   0.135
 1234WAT      O 3943   7.647   4.831   4.807
 1234WAT     H1 3944   7.699   4.756   4.767
 1234WAT     H2 3945   7.688   4.918   4.780
 1235WAT      O 3946   6.005   0.419   0.660
 1235WAT     H1 3947   6.016   0.331   0.615
 1235WAT     H2 3948   5.977   0.488   0.594
 1236WAT      O 3949   3.767   5.811   2.055
 1236WAT     H1 3950   3.826   5.886   2.029
 1236WAT     H2 3951   3.717   5.777   1.975
 1237WAT      O 3952   1.459   4.323   3.180
 1237WAT     H1 3953   1.455   4.413   3.222
 1237WAT     H2 3954   1.366   4.287   3.169
 1238WAT      O 3955   1.230   3.763   1.156
 1238WAT     H1 3956   1.187   3.763   1.066
 1238WAT     H2 3957   1.210   3.677   1.203
 1239WAT      O 3958   3.848   5.108   7.045
 1239WAT     H1 3959   3.919   5.084   6.978
 1239WAT     H2 3960   3.771   5.044   7.036
 1240WAT      O 3961   7.678   4.186   4.724
 1240WAT     H1 3962   7.597   4.244   4.740
 1240WAT     H2 3963   7.760   4.243   4.728
 1241WAT      O 3964   5.493   2.640   9.445
 1241WAT     H1 3965   5.564   2.697   9.405
 1241WAT     H2 3966   5.432   2.607   9.372
 1242WAT      O 3967   7.325   0.996   9.178
 1242WAT     H1 3968   7.418   0.969   9.203
 1242WAT     H2 3969   7.294   0.938   9.103
 1243WAT      O 3970   6.955   0.722   0.644
 1243WAT     H1 3971   6.898   0.690   0.720
 1243WAT     H2 3972   7.042   0.757   0.679
 1244WAT      O 3973   6.129   2.177   4.770
 1244WAT     H1 3974   6.139   2.166   4.671
 1244WAT     H2 3975   6.032   2.189   4.792
 1245WAT      O 3976   2.170   4.254   9.855
 1245WAT     H1 3977   2.192   4.159   9.837
 1245WAT     H2 3978   2.213   4.283   9.941
 1246WAT      O 3979   6.484   2.606   1.287
 1246WAT     H1 3980   6.557   2.637   1.349
 1246WAT     H2 3981   6.498   2.509   1.267
 1247WAT      O 3982   7.998   4.334   7.842
 1247WAT     H1 3983   8.038   4.277   7.914
 1247WAT     H2 3984   7.947   4.276   7.778
 1248WAT      O 3985   1.260   3.779   2.780
 1248WAT     H1 3986   1.226   3.686   2.793
 1248WAT     H2 3987   1.355   3.784   2.811
 1249WAT      O 3988   4.155   7.086   0.064
 1249WAT     H1 3989   4.223   7.056   0.130
 1249WAT     H2 3990   4.132   7.182   0.081
 1250WAT      O 3991   1.834   0.675   4.906
 1250WAT     H1 3992   1.785   0.690   4.820
 1250WAT     H2 3993   1.902   0.603   4.894
 1251WAT      O 3994   1.095   2.878   8.618
 1251WAT     H1 3995   1.025   2.940   8.583
 1251WAT     H2 3996   1.178   2.930   8.641
 1252WAT      O 3997   7.090   7.278   3.913
 1252WAT     H1 3998   6.992   7.259   3.924
 1252WAT     H2 3999   7.116   7.354   3.973
 1253WAT      O 4000   7.768   1.260   3.132
 1253WAT     H1 4001   7.791   1.165   3.112
 1253WAT     H2 4002   7.821   1.291   3.211
 1254WAT      O 4003   9.418   3.350   3.451
 1254WAT     H1 4004   9.417   3.449   3.462
 1254WAT     H2 4005   9.496   3.323   3.395
 1255WAT      O 4006   9.186   8.999   3.432
 1255WAT     H1 4007   9.277   8.966   3.408
 1255WAT     H2 4008   9.134   9.016   3.349
 1256WAT      O 4009   3.762   7.347   6.625
 1256WAT     H1 4010   3.687   7.358   6.559
 1256WAT     H2 4011   3.730   7.293   6.703
 1257WAT      O 4012   5.474   8.357   8.570
 1257WAT     H1 4013   5.396   8.390   8.518
 1257WAT     H2 4014   5.478   8.404   8.658
 1258WAT      O 4015   4.324   8.739   5.418
 1258WAT     H1 4016   4.393   8.667   5.414
 1258WAT     H2 4017   4.348   8.812   5.355
 1259WAT      O 4018   1.157   6.715   5.324
 1259WAT     H1 4019   1.236   6.752   5.275
 1259WAT     H2 4020   1.076   6.769   5.301
 1260WAT      O 4021   0.026   5.636   2.745
 1260WAT     H1 4022  -0.063   5.663   2.783
 1260WAT     H2 4023   0.013   5.562   2.679
 1261WAT      O 4024   1.170   6.599   7.196
 1261WAT     H1 4025   1.112   6.556   7.127
 1261WAT     H2 4026   1.160   6.550   7.283
 1262WAT      O 4027   8.779   6.730   3.391
 1262WAT     H1 4028   8.769   6.675   3.308
 1262WAT     H2 4029   8.723   6.813   3.383
 1263WAT      O 4030   8.833   3.715   8.039
 1263WAT     H1 4031   8.801   3.747   7.950
 1263WAT     H2 4032   8.761   3.725   8.107
 1264WAT      O 4033   4.681   3.517   0.393
 1264WAT     H1 4034   4.684   3.554   0.485
 1264WAT     H2 4035   4.748   3.565   0.336
 1265WAT      O 4036   2.342   6.121   2.657
 1265WAT     H1 4037   2.352   6.213   2.695
 1265WAT     H2 4038   2.298   6.062   2.725
 1266WAT      O 4039   3.222   4.901   0.879
 1266WAT     H1 4040   3.239   4.967   0.952
 1266WAT     H2 4041   3.169   4.944   0.806
 1267WAT      O 4042   9.795   4.738   2.595
 1267WAT     H1 4043   9.873   4.774   2.647
 1267WAT     H2 4044   9.823   4.721   2.500
 1268WAT      O 4045   6.586   8.930   7.927
 1268WAT     H1 4046   6.606   9.024   7.899
 1268WAT     H2 4047   6.663   8.894   7.980
 1269WAT      O 4048   7.559   3.465   7.378
 1269WAT     H1 4049   7.459   3.460   7.376
 1269WAT     H2 4050   7.588   3.557   7.403
 1270WAT      O 4051   4.299   2.982   4.328
 1270WAT     H1 4052   4.289   3.077   4.300
 1270WAT     H2 4053   4.214   2.951   4.372
 1271WAT      O 4054   5.070   1.520   0.879
 1271WAT     H1 4055   5.056   1.433   0.928
 1271WAT     H2 4056   4.994   1.533   0.815
 1272WAT      O 4057   3.125   7.794   0.892
 1272WAT     H1 4058   3.079   7.706   0.883
 1272WAT     H2 4059   3.067   7.857   0.944
 1273WAT      O 4060   8.537   6.907   6.822
 1273WAT     H1 4061   8.460   6.873   6.877
 1273WAT     H2 4062   8.502   6.944   6.736
 1274WAT      O 4063   9.445   4.717   8.282
 1274WAT     H1 4064   9.362   4.684   8.237
 1274WAT     H2 4065   9.517   4.727   8.214
 1275WAT      O 4066   4.936   1.921   8.244
 1275WAT     H1 4067   4.947   1.838   8.298
 1275WAT     H2 4068   4.976   1.999   8.293
 1276WAT      O 4069   2.694   4.921   5.689
 1276WAT     H1 4070   2.618   4.887   5.744
 1276WAT     H2 4071   2.661   4.951   5.600
 1277WAT      O 4072   8.067   6.382   1.091
 1277WAT     H1 4073   8.139   6.451   1.095
 1277WAT     H2 4074   8.028   6.368   1.182
 1278WAT      O 4075   7.373   3.477   6.760
 1278WAT     H1 4076   7.365   3.500   6.663
 1278WAT     H2 4077   7.470   3.470   6.784
 1279WAT      O 4078   1.731   0.312   0.971
 1279WAT     H1 4079   1.664   0.306   0.897
 1279WAT     H2 4080   1.782   0.398   0.963
 1280WAT      O 4081   1.786   8.287   5.940
 1280WAT     H1 4082   1.844   8.291   6.022
 1280WAT     H2 4083   1.724   8.209   5.948
 1281WAT      O 4084   5.445   6.121   6.414
 1281WAT     H1 4085   5.371   6.142   6.478
 1281WAT     H2 4086   5.427   6.031   6.372
 1282WAT      O 4087   8.091   2.374   8.946
 1282WAT     H1 4088   8.137   2.434   9.012
 1282WAT     H2 4089   8.082   2.282   8.984
 1283WAT      O 4090   6.974   3.368   8.177
 1283WAT     H1 4091   6.971   3.286   8.120
 1283WAT     H2 4092   6.994   3.447   8.120
 1284WAT      O 4093   4.759   3.318   4.491
 1284WAT     H1 4094   4.797   3.296   4.401
 1284WAT     H2 4095   4.667   3.355   4.479
 1285WAT      O 4096   1.468   0.271   3.662
 1285WAT     H1 4097   1.491   0.186   3.711
 1285WAT     H2 4098   1.409   0.327   3.720
 1286WAT      O 4099   0.796   9.341   1.318
 1286WAT     H1 4100   0.806   9.431   1.276
 1286WAT     H2 4101   0.870   9.281   1.285
 1287WAT      O 4102   2.052   2.651   3.835
 1287WAT     H1 4103   1.956   2.648   3.863
 1287WAT     H2 4104   2.082   2.558   3.810
 1288WAT      O 4105   3.486   4.918   4.395
 1288WAT     H1 4106   3.435   4.837   4.364
 1288WAT     H2 4107   3.572   4.889   4.438
 1289WAT      O 4108   3.091   2.214   4.706
 1289WAT     H1 4109   3.131   2.290   4.656
 1289WAT     H2 4110   3.137   2.129   4.680
 1290WAT      O 4111   0.820   6.041   2.166
 1290WAT     H1 4112   0.920   6.051   2.173
 1290WAT     H2 4113   0.780   6.042   2.257
 1291WAT      O 4114   8.882   9.739   3.595
 1291WAT     H1 4115   8.941   9.663   3.567
 1291WAT     H2 4116   8.938   9.820   3.615
 1292WAT      O 4117   8.979   9.557   5.085
 1292WAT     H1 4118   9.063   9.596   5.123
 1292WAT     H2 4119   8.902   9.617   5.108
 1293WAT      O 4120   3.834   3.309   7.922
 1293WAT     H1 4121   3.821   3.366   7.840
 1293WAT     H2 4122   3.930   3.284   7.930
 1294WAT      O 4123   4.328   2.991   6.599
 1294WAT     H1 4124   4.333   2.989   6.499
 1294WAT     H2 4125   4.235   3.014   6.627
 1295WAT      O 4126   3.940   4.404   6.025
 1295WAT     H1 4127   4.031   4.373   6.051
 1295WAT     H2 4128   3.887   4.327   5.992
 1296WAT      O 4129   6.493   8.266   4.894
 1296WAT     H1 4130   6.526   8.241   4.984
 1296WAT     H2 4131   6.558   8.329   4.850
 1297WAT      O 4132   4.875   3.758   1.747
 1297WAT     H1 4133   4.871   3.763   1.847
 1297WAT     H2 4134   4.908   3.668   1.719
 1298WAT      O 4135   8.978   8.374   0.315
 1298WAT     H1 4136   9.058   8.417   0.273
 1298WAT     H2 4137   8.968   8.408   0.408
 1299WAT      O 4138   2.731   8.946   4.745
 1299WAT     H1 4139   2.764   8.936   4.839
 1299WAT     H2 4140   2.692   8.859   4.714
 1300WAT      O 4141   1.656   1.548   4.556
 1300WAT     H1 4142   1.738   1.583   4.601
 1300WAT     H2 4143   1.578   1.605   4.580
 1301WAT      O 4144   4.267   9.265   4.858
 1301WAT     H1 4145   4.363   9.290   4.851
 1301WAT     H2 4146   4.211   9.333   4.810
 1302WAT      O 4147   1.695   6.868   7.965
 1302WAT     H1 4148   1.613   6.907   7.923
 1302WAT     H2 4149   1.685   6.867   8.065
 1303WAT      O 4150   4.796   0.384   3.960
 1303WAT     H1 4151   4.810   0.317   4.032
 1303WAT     H2 4152   4.725   0.352   3.897
 1304WAT      O 4153   4.733   4.196   9.581
 1304WAT     H1 4154   4.819   4.231   9.618
 1304WAT     H2 4155   4.676   4.161   9.655
 1305WAT      O 4156   4.291   2.151   5.898
 1305WAT     H1 4157   4.323   2.220   5.962
 1305WAT     H2 4158   4.367   2.093   5.870
 1306WAT      O 4159   6.229   9.444   7.510
 1306WAT     H1 4160   6.297   9.516   7.498
 1306WAT     H2 4161   6.274   9.362   7.547
 1307WAT      O 4162   8.172   6.802   9.648
 1307WAT     H1 4163   8.246   6.778   9.585
 1307WAT     H2 4164   8.158   6.727   9.713
 1308WAT      O 4165   3.423   7.009   7.383
 1308WAT     H1 4166   3.514   7.037   7.354
 1308WAT     H2 4167   3.374   6.970   7.305
 1309WAT      O 4168   5.329   5.525   5.441
 1309WAT     H1 4169   5.407   5.586   5.425
 1309WAT     H2 4170   5.363   5.434   5.465
 1310WAT      O 4171   6.399   8.036   3.743
 1310WAT     H1 4172   6.405   7.936   3.739
 1310WAT     H2 4173   6.458   8.076   3.673
 1311WAT      O 4174   2.319   8.463   2.037
 1311WAT     H1 4175   2.372   8.379   2.048
 1311WAT     H2 4176   2.360   8.519   1.965
 1312WAT      O 4177   1.715   7.013   8.445
 1312WAT     H1 4178   1.659   6.974   8.518
 1312WAT     H2 4179   1.717   6.950   8.367
 1313WAT      O 4180   1.544   1.233   1.081
 1313WAT     H1 4181   1.516   1.279   0.997
 1313WAT     H2 4182   1.463   1.212   1.136
 1314WAT      O 4183   0.635   9.183   2.505
 1314WAT     H1 4184   0.615   9.223   2.594
 1314WAT     H2 4185   0.561   9.205   2.442
 1315WAT      O 4186   7.743   7.064   1.394
 1315WAT     H1 4187   7.767   7.016   1.479
 1315WAT     H2 4188   7.715   7.158   1.415
 1316WAT      O 4189   8.586   2.222   5.123
 1316WAT     H1 4190   8.542   2.312   5.117
 1316WAT     H2 4191   8.517   2.151   5.125
 1317WAT      O 4192   4.407   8.165   3.195
 1317WAT     H1 4193   4.424   8.115   3.111
 1317WAT     H2 4194   4.493   8.182   3.243
 1318WAT      O 4195   8.485   9.577   3.595
 1318WAT     H1 4196   8.392   9.590   3.628
 1318WAT     H2 4197   8.549   9.624   3.657
 1319WAT      O 4198   7.401   1.530   3.590
 1319WAT     H1 4199   7.359   1.601   3.646
 1319WAT     H2 4200   7.461   1.473   3.647
 1320WAT      O 4201   5.799   5.188   0.011
 1320WAT     H1 4202   5.868   5.197   0.082
 1320WAT     H2 4203   5.725   5.253   0.028
 1321WAT      O 4204   0.918   0.590   0.666
 1321WAT     H1 4205   0.927   0.512   0.603
 1321WAT     H2 4206   0.950   0.673   0.620
 1322WAT      O 4207   8.551   3.562   1.817
 1322WAT     H1 4208   8.526   3.475   1.774
 1322WAT     H2 4209   8.477   3.590   1.878
 1323WAT      O 4210   3.150   9.136   0.242
 1323WAT     H1 4211   3.065   9.168   0.201
 1323WAT     H2 4212   3.132   9.104   0.335
 1324WAT      O 4213   5.716   9.295   1.573
 1324WAT     H1 4214   5.775   9.217   1.555
 1324WAT     H2 4215   5.628   9.282   1.528
 1325WAT      O 4216   8.448   4.280   7.916
 1325WAT     H1 4217   8.466   4.277   7.817
 1325WAT     H2 4218   8.514   4.222   7.963
 1326WAT      O 4219   4.424   0.105   2.142
 1326WAT     H1 4220   4.345   0.122   2.083
 1326WAT     H2 4221   4.396   0.045   2.217
 1327WAT      O 4222   0.642   6.360   8.839
 1327WAT     H1 4223   0.709   6.342   8.768
 1327WAT     H2 4224   0.687   6.365   8.928
 1328WAT      O 4225   4.097   9.458   2.820
 1328WAT     H1 4226   4.003   9.490   2.807
 1328WAT     H2 4227   4.150   9.477   2.737
 1329WAT      O 4228   7.940   0.459   8.059
 1329WAT     H1 4229   7.926   0.397   8.136
 1329WAT     H2 4230   7.995   0.537   8.088
 1330WAT      O 4231   5.276   0.406   8.252
 1330WAT     H1 4232   5.271   0.311   8.221
 1330WAT     H2 4233   5.231   0.415   8.340
 1331WAT      O 4234   9.814   1.338   9.707
 1331WAT     H1 4235   9.872   1.402   9.657
 1331WAT     H2 4236   9.748   1.389   9.762
 1332WAT      O 4237   2.942   0.286   5.670
 1332WAT     H1 4238   3.012   0.252   5.607
 1332WAT     H2 4239   2.897   0.208   5.715
 1333WAT      O 4240   8.581   2.803   1.906
 1333WAT     H1 4241   8.581   2.862   1.986
 1333WAT     H2 4242   8.604   2.857   1.825
 1334WAT      O 4243   8.680   0.659   5.653
 1334WAT     H1 4244   8.699   0.702   5.565
 1334WAT     H2 4245   8.727   0.708   5.725
 1335WAT      O 4246   8.076   4.832   7.050
 1335WAT     H1 4247   8.115   4.815   6.959
 1335WAT     H2 4248   8.009   4.761   7.071
 1336WAT      O 4249   5.784   7.611   5.034
 1336WAT     H1 4250   5.721   7.580   5.106
 1336WAT     H2 4251   5.810   7.706   5.051
 1337WAT      O 4252   4.398   5.970   5.444
 1337WAT     H1 4253   4.382   5.906   5.369
 1337WAT     H2 4254   4.359   5.933   5.529
 1338WAT      O 4255   1.237   9.084   1.717
 1338WAT     H1 4256   1.294   9.007   1.745
 1338WAT     H2 4257   1.148   9.077   1.761
 1339WAT      O 4258   5.594   5.440   7.308
 1339WAT     H1 4259   5.526   5.405   7.244
 1339WAT     H2 4260   5.661   5.369   7.329
 1340WAT      O 4261   7.609   1.477   9.034
 1340WAT     H1 4262   7.616   1.574   9.056
 1340WAT     H2 4263   7.529   1.438   9.080
 1341WAT      O 4264   1.932   8.270   4.760
 1341WAT     H1 4265   1.980   8.186   4.735
 1341WAT     H2 4266   1.921   8.328   4.679
 1342WAT      O 4267   1.575   4.771   9.672
 1342WAT     H1 4268   1.481   4.805   9.665
 1342WAT     H2 4269   1.626   4.826   9.738
 1343WAT      O 4270   7.909   5.027   9.876
 1343WAT     H1 4271   7.960   5.093   9.821
 1343WAT     H2 4272   7.971   4.982   9.941
 1344WAT      O 4273   7.061   0.012   4.953
 1344WAT     H1 4274   6.976  -0.008   4.904
 1344WAT     H2 4275   7.101  -0.072   4.988
 1345WAT      O 4276   6.042   4.766   1.850
 1345WAT     H1 4277   6.081   4.674   1.852
 1345WAT     H2 4278   5.978   4.777   1.926
 1346WAT      O 4279   5.365   6.681   3.561
 1346WAT     H1 4280   5.293   6.736   3.520
 1346WAT     H2 4281   5.437   6.741   3.597
 1347WAT      O 4282   7.237   6.198   3.916
 1347WAT     H1 4283   7.305   6.140   3.871
 1347WAT     H2 4284   7.228   6.284   3.866
 1348WAT      O 4285   7.673   6.012   8.323
 1348WAT     H1 4286   7.733   6.089   8.341
 1348WAT     H2 4287   7.713   5.929   8.364
 1349WAT      O 4288   6.320   2.288   6.880
 1349WAT     H1 4289   6.281   2.204   6.841
 1349WAT     H2 4290   6.303   2.290   6.978
 1350WAT      O 4291   5.796   2.022   2.068
 1350WAT     H1 4292   5.781   2.104   2.012
 1350WAT     H2 4293   5.887   2.027   2.110
 1351WAT      O 4294   1.451   3.079   2.639
 1351WAT     H1 4295   1.380   3.131   2.687
 1351WAT     H2 4296   1.454   3.108   2.543
 1352WAT      O 4297   7.436   1.761   6.427
 1352WAT     H1 4298   7.495   1.813   6.488
 1352WAT     H2 4299   7.449   1.663   6.445
 1353WAT      O 4300   3.104   6.981   3.687
 1353WAT     H1 4301   3.071   6.893   3.722
 1353WAT     H2 4302   3.181   7.013   3.743
 1354WAT      O 4303   5.467   1.849   1.054
 1354WAT     H1 4304   5.493   1.786   0.980
 1354WAT     H2 4305   5.368   1.858   1.058
 1355WAT      O 4306   0.762   1.170   8.161
 1355WAT     H1 4307   0.807   1.249   8.204
 1355WAT     H2 4308   0.679   1.201   8.114
 1356WAT      O 4309   9.551   3.874   6.429
 1356WAT     H1 4310   9.634   3.824   6.407
 1356WAT     H2 4311   9.549   3.894   6.527
 1357WAT      O 4312   3.899   7.551   5.349
 1357WAT     H1 4313   3.856   7.633   5.313
 1357WAT     H2 4314   3.996   7.568   5.365
 1358WAT      O 4315   7.511   2.056   5.144
 1358WAT     H1 4316   7.549   2.106   5.065
 1358WAT     H2 4317   7.567   2.075   5.225
 1359WAT      O 4318   1.437   0.304   4.323
 1359WAT     H1 4319   1.360   0.351   4.367
 1359WAT     H2 4320   1.401   0.231   4.264
 1360WAT      O 4321   2.000   2.968   8.889
 1360WAT     H1 4322   1.984   2.934   8.981
 1360WAT     H2 4323   1.966   2.901   8.822
 1361WAT      O 4324   3.028   5.299   8.254
 1361WAT     H1 4325   3.056   5.350   8.335
 1361WAT     H2 4326   3.099   5.233   8.230
 1362WAT      O 4327   8.662   5.529   9.292
 1362WAT     H1 4328   8.694   5.544   9.199
 1362WAT     H2 4329   8.648   5.432   9.308
 1363WAT      O 4330   1.536   8.917   5.616
 1363WAT     H1 4331   1.602   8.849   5.584
 1363WAT     H2 4332   1.570   9.009   5.593
 1364WAT      O 4333   6.871   4.605   1.929
 1364WAT     H1 4334   6.922   4.582   2.012
 1364WAT     H2 4335   6.815   4.527   1.902
 1365WAT      O 4336   6.665   8.390   0.478
 1365WAT     H1 4337   6.740   8.456   0.475
 1365WAT     H2 4338   6.603   8.406   0.402
 1366WAT      O 4339   8.457   2.098   5.699
 1366WAT     H1 4340   8.519   2.167   5.661
 1366WAT     H2 4341   8.400   2.140   5.770
 1367WAT      O 4342   0.719   4.706   4.615
 1367WAT     H1 4343   0.622   4.682   4.625
 1367WAT     H2 4344   0.767   4.688   4.701
 1368WAT      O 4345   9.745   2.635   5.073
 1368WAT     H1 4346   9.763   2.541   5.103
 1368WAT     H2 4347   9.782   2.699   5.140
 1369WAT      O 4348   6.987   5.003   2.962
 1369WAT     H1 4349   6.987   5.084   3.021
 1369WAT     H2 4350   7.036   4.928   3.007
 1370WAT      O 4351   3.223   2.166   5.030
 1370WAT     H1 4352   3.135   2.152   4.986
 1370WAT     H2 4353   3.275   2.236   4.980
 1371WAT      O 4354   4.293   7.759   5.686
 1371WAT     H1 4355   4.340   7.800   5.608
 1371WAT     H2 4356   4.344   7.679   5.718
 1372WAT      O 4357   0.538   8.979   1.079
 1372WAT     H1 4358   0.490   8.978   1.166
 1372WAT     H2 4359   0.516   9.064   1.030
 1373WAT      O 4360   2.840   9.638   1.070
 1373WAT     H1 4361   2.929   9.645   1.115
 1373WAT     H2 4362   2.771   9.687   1.123
 1374WAT      O 4363   5.370   0.456   4.851
 1374WAT     H1 4364   5.324   0.544   4.840
 1374WAT     H2 4365   5.440   0.464   4.922
 1375WAT      O 4366   7.782   0.931   1.274
 1375WAT     H1 4367   7.808   1.025   1.295
 1375WAT     H2 4368   7.739   0.889   1.354
 1376WAT      O 4369   0.731   5.287   9.825
 1376WAT     H1 4370   0.741   5.294   9.726
 1376WAT     H2 4371   0.671   5.360   9.858
 1377WAT      O 4372   5.922   1.522   8.299
 1377WAT     H1 4373   5.933   1.460   8.376
 1377WAT     H2 4374   5.905   1.614   8.332
 1378WAT      O 4375   7.140   4.832   3.449
 1378WAT     H1 4376   7.046   4.800   3.435
 1378WAT     H2 4377   7.192   4.763   3.498
 1379WAT      O 4378  -0.003   4.957   6.931
 1379WAT     H1 4379  -0.004   5.001   6.841
 1379WAT     H2 4380   0.057   5.007   6.993
 1380WAT      O 4381   5.084   0.100   2.646
 1380WAT     H1 4382   5.179   0.088   2.674
 1380WAT     H2 4383   5.050   0.015   2.606
 1381WAT      O 4384   2.161   7.233   2.802
 1381WAT     H1 4385   2.141   7.135   2.798
 1381WAT     H2 4386   2.129   7.270   2.889
 1382WAT      O 4387   8.851   9.486   8.191
 1382WAT     H1 4388   8.796   9.433   8.256
 1382WAT     H2 4389   8.933   9.521   8.237
 1383WAT      O 4390   1.577   8.091   9.391
 1383WAT     H1 4391   1.606   8.181   9.424
 1383WAT     H2 4392   1.477   8.088   9.386
 1384WAT      O 4393   9.016   2.958   6.751
 1384WAT     H1 4394   9.071   2.987   6.830
 1384WAT     H2 4395   9.071   2.898   6.692
 1385WAT      O 4396   4.542   2.235   4.344
 1385WAT     H1 4397   4.486   2.310   4.308
 1385WAT     H2 4398   4.633   2.238   4.300
 1386WAT      O 4399   9.514   3.942   3.612
 1386WAT     H1 4400   9.473   3.970   3.525
 1386WAT     H2 4401   9.443   3.926   3.679
 1387WAT      O 4402   6.599   8.630   9.686
 1387WAT     H1 4403   6.539   8.697   9.643
 1387WAT     H2 4404   6.649   8.579   9.616
 1388WAT      O 4405   3.637   3.619   2.665
 1388WAT     H1 4406   3.656   3.566   2.748
 1388WAT     H2 4407   3.576   3.567   2.606
 1389WAT      O 4408   0.133   7.305   1.251
 1389WAT     H1 4409   0.059   7.308   1.183
 1389WAT     H2 4410   0.137   7.393   1.299
 1390WAT      O 4411   9.806  -0.002   1.776
 1390WAT     H1 4412   9.805   0.096   1.792
 1390WAT     H2 4413   9.872  -0.024   1.704
 1391WAT      O 4414   3.326   5.865   4.781
 1391WAT     H1 4415   3.401   5.928   4.761
 1391WAT     H2 4416   3.249   5.886   4.720
 1392WAT      O 4417   4.007   8.889   7.262
 1392WAT     H1 4418   4.051   8.842   7.338
 1392WAT     H2 4419   4.008   8.988   7.279
 1393WAT      O 4420   3.421   9.521   9.114
 1393WAT     H1 4421   3.326   9.495   9.093
 1393WAT     H2 4422   3.440   9.503   9.210
 1394WAT      O 4423   4.693   6.218   1.498
 1394WAT     H1 4424   4.749   6.277   1.440
 1394WAT     H2 4425   4.604   6.203   1.454
 1395WAT      O 4426   4.556   5.785   2.700
 1395WAT     H1 4427   4.529   5.864   2.755
 1395WAT     H2 4428   4.636   5.809   2.645
 1396WAT      O 4429   1.588   7.358   3.654
 1396WAT     H1 4430   1.636   7.347   3.741
 1396WAT     H2 4431   1.620   7.290   3.589
 1397WAT      O 4432   1.663   4.876   0.459
 1397WAT     H1 4433   1.752   4.832   0.475
 1397WAT     H2 4434   1.599   4.851   0.532
 1398WAT      O 4435   0.200   6.074   0.947
 1398WAT     H1 4436   0.286   6.110   0.984
 1398WAT     H2 4437   0.127   6.090   1.013
 1399WAT      O 4438   2.774   6.767   8.801
 1399WAT     H1 4439   2.774   6.772   8.701
 1399WAT     H2 4440   2.811   6.679   8.830
 1400WAT      O 4441   0.387   2.001   5.740
 1400WAT     H1 4442   0.424   2.091   5.764
 1400WAT     H2 4443   0.427   1.931   5.800
 1401WAT      O 4444   9.275   9.663   2.918
 1401WAT     H1 4445   9.213   9.620   2.853
 1401WAT     H2 4446   9.321   9.740   2.874
 1402WAT      O 4447   7.208   9.287   5.452
 1402WAT     H1 4448   7.221   9.333   5.540
 1402WAT     H2 4449   7.141   9.336   5.398
 1403WAT      O 4450   5.694   2.682   6.189
 1403WAT     H1 4451   5.622   2.691   6.258
 1403WAT     H2 4452   5.712   2.585   6.172
 1404WAT      O 4453   0.401   1.013   0.143
 1404WAT     H1 4454   0.443   1.098   0.173
 1404WAT     H2 4455   0.314   1.032   0.099
 1405WAT      O 4456   1.718   5.531   4.120
 1405WAT     H1 4457   1.770   5.449   4.094
 1405WAT     H2 4458   1.701   5.586   4.038
 1406WAT      O 4459   4.524   1.342   7.946
 1406WAT     H1 4460   4.550   1.391   7.863
 1406WAT     H2 4461   4.474   1.403   8.008
 1407WAT      O 4462   7.608   9.468   5.552
 1407WAT     H1 4463   7.680   9.418   5.505
 1407WAT     H2 4464   7.561   9.408   5.616
 1408WAT      O 4465   1.698   2.845   0.615
 1408WAT     H1 4466   1.688   2.853   0.714
 1408WAT     H2 4467   1.785   2.886   0.587
 1409WAT      O 4468   3.840   8.076   5.100
 1409WAT     H1 4469   3.743   8.055   5.088
 1409WAT     H2 4470   3.895   8.004   5.057
 1410WAT      O 4471   6.833   9.130   8.546
 1410WAT     H1 4472   6.929   9.152   8.533
 1410WAT     H2 4473   6.779   9.175   8.474
 1411WAT      O 4474   3.456   8.841   6.400
 1411WAT     H1 4475   3.511   8.790   6.466
 1411WAT     H2 4476   3.492   8.826   6.308
 1412WAT      O 4477   7.141   3.439   0.219
 1412WAT     H1 4478   7.230   3.471   0.253
 1412WAT     H2 4479   7.147   3.342   0.197
 1413WAT      O 4480   5.521   6.146   9.429
 1413WAT     H1 4481   5.523   6.145   9.329
 1413WAT     H2 4482   5.565   6.064   9.464
 1414WAT      O 4483   3.420   7.594   6.613
 1414WAT     H1 4484   3.450   7.529   6.544
 1414WAT     H2 4485   3.440   7.559   6.704
 1415WAT      O 4486   6.923   2.953   8.261
 1415WAT     H1 4487   6.957   2.967   8.168
 1415WAT     H2 4488   6.934   2.857   8.286
 1416WAT      O 4489   2.048   7.994   6.248
 1416WAT     H1 4490   2.062   7.897   6.228
 1416WAT     H2 4491   2.136   8.036   6.272
 1417WAT      O 4492   2.348   6.133   4.680
 1417WAT     H1 4493   2.434   6.126   4.731
 1417WAT     H2 4494   2.360   6.194   4.602
 1418WAT      O 4495   8.106   8.654   7.284
 1418WAT     H1 4496   8.071   8.719   7.217
 1418WAT     H2 4497   8.171   8.700   7.345
 1419WAT      O 4498   5.734   3.184   9.137
 1419WAT     H1 4499   5.789   3.249   9.188
 1419WAT     H2 4500   5.667   3.141   9.197
 1420WAT      O 4501   6.263   2.271   3.574
 1420WAT     H1 4502   6.358   2.262   3.545
 1420WAT     H2 4503   6.202   2.237   3.503
 1421WAT      O 4504   8.974   4.099   9.270
 1421WAT     H1 4505   8.994   4.078   9.174
 1421WAT     H2 4506   8.890   4.152   9.275
 1422WAT      O 4507   5.383   4.198   9.521
 1422WAT     H1 4508   5.408   4.295   9.524
 1422WAT     H2 4509   5.445   4.149   9.460
 1423WAT      O 4510   9.336   1.441   4.854
 1423WAT     H1 4511   9.314   1.527   4.807
 1423WAT     H2 4512   9.379   1.378   4.790
 1424WAT      O 4513   6.806   0.738   8.523
 1424WAT     H1 4514   6.829   0.831   8.496
 1424WAT     H2 4515   6.708   0.723   8.509
 1425WAT      O 4516   6.892   8.538   8.496
 1425WAT     H1 4517   6.838   8.484   8.561
 1425WAT     H2 4518   6.911   8.628   8.536
 1426WAT      O 4519   6.467   4.545   6.152
 1426WAT     H1 4520   6.424   4.630   6.122
 1426WAT     H2 4521   6.404   4.496   6.213
 1427WAT      O 4522   5.141   2.121   7.909
 1427WAT     H1 4523   5.052   2.102   7.868
 1427WAT     H2 4524   5.135   2.204   7.965
 1428WAT      O 4525   4.066   6.582   7.531
 1428WAT     H1 4526   4.026   6.666   7.492
 1428WAT     H2 4527   4.078   6.594   7.629
 1429WAT      O 4528   6.490   5.601   0.177
 1429WAT     H1 4529   6.396   5.598   0.210
 1429WAT     H2 4530   6.513   5.514   0.133
 1430WAT      O 4531   0.134   3.090   3.332
 1430WAT     H1 4532   0.090   3.080   3.422
 1430WAT     H2 4533   0.112   3.180   3.294
 1431WAT      O 4534   6.329   8.112   8.283
 1431WAT     H1 4535   6.256   8.173   8.252
 1431WAT     H2 4536   6.313   8.085   8.378
 1432WAT      O 4537   4.379   4.299   3.450
 1432WAT     H1 4538   4.280   4.309   3.466
 1432WAT     H2 4539   4.426   4.281   3.536
 1433WAT      O 4540   6.995   6.500   3.935
 1433WAT     H1 4541   7.071   6.499   3.869
 1433WAT     H2 4542   6.923   6.560   3.903
 1434WAT      O 4543   5.773   1.267   4.926
 1434WAT     H1 4544   5.699   1.223   4.977
 1434WAT     H2 4545   5.735   1.332   4.861
 1435WAT      O 4546   3.561   7.554   2.280
 1435WAT     H1 4547   3.653   7.588   2.260
 1435WAT     H2 4548   3.543   7.473   2.225
 1436WAT      O 4549   7.681   0.093   8.019
 1436WAT     H1 4550   7.690  -0.006   8.003
 1436WAT     H2 4551   7.768   0.138   8.000
 1437WAT      O 4552   3.796   4.735   6.920
 1437WAT     H1 4553   3.849   4.740   6.835
 1437WAT     H2 4554   3.721   4.801   6.916
 1438WAT      O 4555   7.072   6.441   7.819
 1438WAT     H1 4556   7.059   6.381   7.740
 1438WAT     H2 4557   7.012   6.411   7.894
 1439WAT      O 4558   9.609   9.726   3.808
 1439WAT     H1 4559   9.591   9.666   3.730
 1439WAT     H2 4560   9.617   9.820   3.776
 1440WAT      O 4561   7.236   6.297   7.512
 1440WAT     H1 4562   7.310   6.276   7.576
 1440WAT     H2 4563   7.148   6.277   7.554
 1441WAT      O 4564   9.853   6.146   0.722
 1441WAT     H1 4565   9.768   6.095   0.711
 1441WAT     H2 4566   9.893   6.127   0.811
 1442WAT      O 4567   8.172   3.561   5.851
 1442WAT     H1 4568   8.228   3.643   5.840
 1442WAT     H2 4569   8.220   3.496   5.909
 1443WAT      O 4570   5.773   9.012   4.711
 1443WAT     H1 4571   5.830   8.987   4.633
 1443WAT     H2 4572   5.700   9.074   4.681
 1444WAT      O 4573   0.626   6.791   9.096
 1444WAT     H1 4574   0.588   6.848   9.169
 1444WAT     H2 4575   0.685   6.721   9.136
 1445WAT      O 4576   2.155   5.516   9.556
 1445WAT     H1 4577   2.232   5.475   9.507
 1445WAT     H2 4578   2.177   5.612   9.577
 1446WAT      O 4579   5.150   7.055   1.784
 1446WAT     H1 4580   5.184   7.027   1.873
 1446WAT     H2 4581   5.227   7.077   1.724
 1447WAT      O 4582   5.829   6.935   8.772
 1447WAT     H1 4583   5.784   6.846   8.777
 1447WAT     H2 4584   5.897   6.934   8.698
 1448WAT      O 4585   5.858   9.428   3.080
 1448WAT     H1 4586   5.805   9.368   3.019
 1448WAT     H2 4587   5.956   9.415   3.063
 1449WAT      O 4588   6.055   8.369   1.354
 1449WAT     H1 4589   6.144   8.385   1.312
 1449WAT     H2 4590   5.984   8.415   1.300
 1450WAT      O 4591   9.176   4.491   4.471
 1450WAT     H1 4592   9.258   4.527   4.515
 1450WAT     H2 4593   9.202   4.422   4.404
 1451WAT      O 4594   8.225   7.793   3.430
 1451WAT     H1 4595   8.255   7.844   3.510
 1451WAT     H2 4596   8.243   7.696   3.443
 1452WAT      O 4597   5.836   1.228   3.823
 1452WAT     H1 4598   5.882   1.316   3.813
 1452WAT     H2 4599   5.833   1.203   3.920
 1453WAT      O 4600   0.144   6.541   6.049
 1453WAT     H1 4601   0.204   6.504   5.978
 1453WAT     H2 4602   0.068   6.478   6.065
 1454WAT      O 4603   8.982   2.561   8.320
 1454WAT     H1 4604   8.925   2.641   8.305
 1454WAT     H2 4605   9.069   2.571   8.271
 1455WAT      O 4606   2.725   5.879   4.951
 1455WAT     H1 4607   2.705   5.830   5.036
 1455WAT     H2 4608   2.656   5.951   4.937
 1456WAT      O 4609   1.817   8.764   4.359
 1456WAT     H1 4610   1.788   8.743   4.453
 1456WAT     H2 4611   1.910   8.731   4.345
 1457WAT      O 4612   3.621   3.336   3.110
 1457WAT     H1 4613   3.656   3.389   3.033
 1457WAT     H2 4614   3.555   3.268   3.077
 1458WAT      O 4615   0.519   5.074   4.720
 1458WAT     H1 4616   0.503   5.167   4.754
 1458WAT     H2 4617   0.600   5.073   4.662
 1459WAT      O 4618   3.610   9.287   2.524
 1459WAT     H1 4619   3.707   9.296   2.548
 1459WAT     H2 4620   3.597   9.207   2.465
 1460WAT      O 4621   7.843   6.388   6.412
 1460WAT     H1 4622   7.789   6.373   6.495
 1460WAT     H2 4623   7.803   6.336   6.337
 1461WAT      O 4624   6.712   3.581   9.252
 1461WAT     H1 4625   6.666   3.669   9.237
 1461WAT     H2 4626   6.646   3.507   9.239
 1462WAT      O 4627   9.501   8.113   1.965
 1462WAT     H1 4628   9.426   8.120   2.030
 1462WAT     H2 4629   9.515   8.201   1.920
 1463WAT      O 4630   6.302   5.189   8.690
 1463WAT     H1 4631   6.364   5.125   8.734
 1463WAT     H2 4632   6.279   5.263   8.754
 1464WAT      O 4633   3.443   3.713   6.328
 1464WAT     H1 4634   3.532   3.757   6.335
 1464WAT     H2 4635   3.455   3.617   6.301
 1465WAT      O 4636   4.623   6.249   9.885
 1465WAT     H1 4637   4.652   6.312   9.813
 1465WAT     H2 4638   4.646   6.288   9.974
 1466WAT      O 4639   3.975   2.595   0.904
 1466WAT     H1 4640   3.912   2.641   0.843
 1466WAT     H2 4641   4.062   2.645   0.906
 1467WAT      O 4642   1.161   8.368   7.039
 1467WAT     H1 4643   1.063   8.349   7.030
 1467WAT     H2 4644   1.203   8.298   7.097
 1468WAT      O 4645   9.788   1.503   2.593
 1468WAT     H1 4646   9.864   1.552   2.551
 1468WAT     H2 4647   9.726   1.469   2.522
 1469WAT      O 4648   2.012   5.579   2.823
 1469WAT     H1 4649   2.030   5.565   2.921
 1469WAT     H2 4650   2.094   5.558   2.771
 1470WAT      O 4651   7.610   2.389   5.112
 1470WAT     H1 4652   7.645   2.313   5.057
 1470WAT     H2 4653   7.679   2.461   5.117
 1471WAT      O 4654   7.908   8.048   6.980
 1471WAT     H1 4655   7.877   8.067   6.887
 1471WAT     H2 4656   7.897   8.130   7.036
 1472WAT      O 4657   0.917   1.646   0.013
 1472WAT     H1 4658   0.995   1.709   0.012
 1472WAT     H2 4659   0.837   1.692  -0.027
 1473WAT      O 4660   9.269   3.859   5.521
 1473WAT     H1 4661   9.318   3.940   5.489
 1473WAT     H2 4662   9.286   3.846   5.619
 1474WAT      O 4663   4.522   5.779   1.190
 1474WAT     H1 4664   4.531   5.842   1.112
 1474WAT     H2 4665   4.469   5.699   1.162
 1475WAT      O 4666   3.306   2.223   5.322
 1475WAT     H1 4667   3.308   2.202   5.224
 1475WAT     H2 4668   3.353   2.151   5.373
 1476WAT      O 4669   1.317   4.203   2.141
 1476WAT     H1 4670   1.283   4.141   2.212
 1476WAT     H2 4671   1.239   4.247   2.096
 1477WAT      O 4672   5.818   7.403   3.225
 1477WAT     H1 4673   5.892   7.389   3.160
 1477WAT     H2 4674   5.730   7.387   3.180
 1478WAT      O 4675   0.320   6.683   0.166
 1478WAT     H1 4676   0.321   6.780   0.190
 1478WAT     H2 4677   0.350   6.672   0.071
 1479WAT      O 4678   0.611   1.678   8.132
 1479WAT     H1 4679   0.575   1.598   8.180
 1479WAT     H2 4680   0.547   1.706   8.060
 1480WAT      O 4681   6.503   4.593   2.291
 1480WAT     H1 4682   6.407   4.619   2.281
 1480WAT     H2 4683   6.512   4.531   2.369
 1481WAT      O 4684   6.406   1.481   8.760
 1481WAT     H1 4685   6.465   1.410   8.798
 1481WAT     H2 4686   6.325   1.491   8.818
 1482WAT      O 4687   8.426   0.640   1.774
 1482WAT     H1 4688   8.374   0.691   1.706
 1482WAT     H2 4689   8.450   0.700   1.850
 1483WAT      O 4690   1.023   8.865   3.711
 1483WAT     H1 4691   0.937   8.915   3.714
 1483WAT     H2 4692   1.020   8.790   3.777
 1484WAT      O 4693   0.898   6.781   5.655
 1484WAT     H1 4694   0.927   6.836   5.577
 1484WAT     H2 4695   0.880   6.687   5.627
 1485WAT      O 4696   3.473   3.904   6.852
 1485WAT     H1 4697   3.459   3.806   6.868
 1485WAT     H2 4698   3.531   3.917   6.772
 1486WAT      O 4699   7.483   4.459   6.748
 1486WAT     H1 4700   7.469   4.480   6.652
 1486WAT     H2 4701   7.497   4.544   6.799
 1487WAT      O 4702   1.454   5.832   2.069
 1487WAT     H1 4703   1.434   5.762   2.138
 1487WAT     H2 4704   1.431   5.922   2.105
 1488WAT      O 4705   9.717   4.218   5.569
 1488WAT     H1 4706   9.716   4.263   5.479
 1488WAT     H2 4707   9.718   4.288   5.641
 1489WAT      O 4708   3.888   7.928   0.507
 1489WAT     H1 4709   3.852   8.020   0.522
 1489WAT     H2 4710   3.852   7.891   0.422
 1490WAT      O 4711   0.279   4.570   3.273
 1490WAT     H1 4712   0.278   4.666   3.247
 1490WAT     H2 4713   0.281   4.513   3.191
 1491WAT      O 4714   9.372   2.928   3.468
 1491WAT     H1 4715   9.459   2.941   3.421
 1491WAT     H2 4716   9.318   3.012   3.462
 1492WAT      O 4717   1.102   6.862   1.382
 1492WAT     H1 4718   1.105   6.829   1.476
 1492WAT     H2 4719   1.014   6.907   1.366
 1493WAT      O 4720   1.333   1.044   0.439
 1493WAT     H1 4721   1.262   1.095   0.487
 1493WAT     H2 4722   1.298   1.013   0.350
 1494WAT      O 4723   2.325   8.501   7.735
 1494WAT     H1 4724   2.265   8.538   7.806
 1494WAT     H2 4725   2.373   8.420   7.771
 1495WAT      O 4726   3.003   6.209   4.333
 1495WAT     H1 4727   3.101   6.224   4.344
 1495WAT     H2 4728   2.986   6.166   4.244
 1496WAT      O 4729   1.518   0.153   3.177
 1496WAT     H1 4730   1.566   0.240   3.166
 1496WAT     H2 4731   1.516   0.128   3.274
 1497WAT      O 4732   6.716   1.621   4.820
 1497WAT     H1 4733   6.638   1.571   4.783
 1497WAT     H2 4734   6.798   1.564   4.815
 1498WAT      O 4735   0.283   6.784   7.119
 1498WAT     H1 4736   0.244   6.800   7.028
 1498WAT     H2 4737   0.339   6.862   7.146
 1499WAT      O 4738   8.462   0.791   4.481
 1499WAT     H1 4739   8.377   0.817   4.525
 1499WAT     H2 4740   8.529   0.764   4.550
 1500WAT      O 4741   8.724   8.378   6.528
 1500WAT     H1 4742   8.691   8.323   6.605
 1500WAT     H2 4743   8.824   8.374   6.525
 1501WAT      O 4744   2.938   5.681   0.463
 1501WAT     H1 4745   2.944   5.763   0.519
 1501WAT     H2 4746   3.003   5.612   0.496
 1502WAT      O 4747   3.750   2.255   0.980
 1502WAT     H1 4748   3.684   2.195   0.936
 1502WAT     H2 4749   3.831   2.265   0.922
 1503WAT      O 4750   6.529   5.545   5.489
 1503WAT     H1 4751   6.503   5.504   5.576
 1503WAT     H2 4752   6.629   5.552   5.484
 1504WAT      O 4753   1.246   7.058   8.928
 1504WAT     H1 4754   1.165   7.103   8.967
 1504WAT     H2 4755   1.271   7.104   8.843
 1505WAT      O 4756   7.164   3.461   0.654
 1505WAT     H1 4757   7.075   3.474   0.612
 1505WAT     H2 4758   7.222   3.406   0.593
 1506WAT      O 4759   0.669   2.317   4.610
 1506WAT     H1 4760   0.697   2.408   4.582
 1506WAT     H2 4761   0.589   2.324   4.670
 1507WAT      O 4762   9.622   3.659   4.997
 1507WAT     H1 4763   9.648   3.722   4.924
 1507WAT     H2 4764   9.650   3.697   5.085
 1508WAT      O 4765   1.868   4.856   6.340
 1508WAT     H1 4766   1.836   4.847   6.435
 1508WAT     H2 4767   1.798   4.822   6.278
 1509WAT      O 4768   8.887   8.918   8.772
 1509WAT     H1 4769   8.902   8.837   8.830
 1509WAT     H2 4770   8.971   8.972   8.769
 1510WAT      O 4771   0.195   7.667   4.189
 1510WAT     H1 4772   0.164   7.737   4.253
 1510WAT     H2 4773   0.252   7.600   4.236
 1511WAT      O 4774   7.235   3.242   0.811
 1511WAT     H1 4775   7.152   3.224   0.864
 1511WAT     H2 4776   7.211   3.298   0.732
 1512WAT      O 4777   9.489   7.720   8.862
 1512WAT     H1 4778   9.583   7.751   8.865
 1512WAT     H2 4779   9.486   7.620   8.867
 1513WAT      O 4780   3.087   5.912   5.961
 1513WAT     H1 4781   3.056   5.953   6.047
 1513WAT     H2 4782   3.014   5.916   5.893
 1514WAT      O 4783   0.161   6.099   6.655
 1514WAT     H1 4784   0.115   6.081   6.742
 1514WAT     H2 4785   0.232   6.169   6.668
 1515WAT      O 4786   5.039   4.383   0.948
 1515WAT     H1 4787   5.038   4.432   0.861
 1515WAT     H2 4788   5.032   4.285   0.932
 1516WAT      O 4789   3.105   1.039   3.896
 1516WAT     H1 4790   3.023   1.091   3.872
 1516WAT     H2 4791   3.187   1.091   3.870
 1517WAT      O 4792   1.779   4.546   8.826
 1517WAT     H1 4793   1.878   4.541   8.817
 1517WAT     H2 4794   1.737   4.473   8.772
 1518WAT      O 4795   5.143   7.815   4.883
 1518WAT     H1 4796   5.141   7.733   4.827
 1518WAT     H2 4797   5.168   7.894   4.826
 1519WAT      O 4798   2.971   1.002   5.640
 1519WAT     H1 4799   3.053   0.988   5.585
 1519WAT     H2 4800   2.937   0.914   5.673
 1520WAT      O 4801   7.936   6.162   7.729
 1520WAT     H1 4802   8.016   6.222   7.731
 1520WAT     H2 4803   7.854   6.216   7.747
 1521WAT      O 4804   1.152   0.410   6.199
 1521WAT     H1 4805   1.154   0.335   6.132
 1521WAT     H2 4806   1.058   0.444   6.207
 1522WAT      O 4807   7.596   8.554   3.062
 1522WAT     H1 4808   7.618   8.560   2.965
 1522WAT     H2 4809   7.625   8.638   3.108
 1523WAT      O 4810   2.448   3.858   8.510
 1523WAT     H1 4811   2.447   3.894   8.416
 1523WAT     H2 4812   2.499   3.773   8.512
 1524WAT      O 4813   3.161   3.705   8.690
 1524WAT     H1 4814   3.194   3.612   8.674
 1524WAT     H2 4815   3.077   3.701   8.744
 1525WAT      O 4816   6.990   8.907   0.214
 1525WAT     H1 4817   6.902   8.930   0.172
 1525WAT     H2 4818   7.064   8.921   0.148
 1526WAT      O 4819   8.993   3.824   6.503
 1526WAT     H1 4820   8.911   3.788   6.458
 1526WAT     H2 4821   9.064   3.754   6.503
 1527WAT      O 4822   2.440   4.956   4.649
 1527WAT     H1 4823   2.420   4.867   4.690
 1527WAT     H2 4824   2.534   4.982   4.670
 1528WAT      O 4825   7.340   9.198   1.981
 1528WAT     H1 4826   7.277   9.274   1.965
 1528WAT     H2 4827   7.420   9.231   2.030
 1529WAT      O 4828   7.719   6.927   7.198
 1529WAT     H1 4829   7.720   6.827   7.196
 1529WAT     H2 4830   7.778   6.962   7.125
 1530WAT      O 4831   5.193   9.808   5.811
 1530WAT     H1 4832   5.121   9.851   5.756
 1530WAT     H2 4833   5.153   9.735   5.867
 1531WAT      O 4834   4.902   2.007   0.191
 1531WAT     H1 4835   4.997   2.024   0.216
 1531WAT     H2 4836   4.859   1.952   0.262
 1532WAT      O 4837   5.269   0.163   7.019
 1532WAT     H1 4838   5.268   0.258   7.049
 1532WAT     H2 4839   5.183   0.118   7.044
 1533WAT      O 4840   7.940   6.838   5.273
 1533WAT     H1 4841   7.856   6.879   5.236
 1533WAT     H2 4842   7.947   6.860   5.370
 1534WAT      O 4843   2.862   3.573   6.775
 1534WAT     H1 4844   2.788   3.520   6.733
 1534WAT     H2 4845   2.932   3.594   6.706
 1535WAT      O 4846   1.219   3.489   2.772
 1535WAT     H1 4847   1.247   3.393   2.770
 1535WAT     H2 4848   1.122   3.495   2.795
 1536WAT      O 4849   6.820   4.889   5.078
 1536WAT     H1 4850   6.780   4.953   5.144
 1536WAT     H2 4851   6.785   4.910   4.986
 1537WAT      O 4852   7.942   6.633   8.185
 1537WAT     H1 4853   7.973   6.678   8.101
 1537WAT     H2 4854   8.018   6.627   8.250
 1538WAT      O 4855   6.897   4.031   4.702
 1538WAT     H1 4856   6.875   4.007   4.797
 1538WAT     H2 4857   6.940   4.121   4.700
 1539WAT      O 4858   3.570   2.797   1.538
 1539WAT     H1 4859   3.587   2.895   1.528
 1539WAT     H2 4860   3.480   2.775   1.502
 1540WAT      O 4861   5.696   0.717   3.473
 1540WAT     H1 4862   5.676   0.808   3.438
 1540WAT     H2 4863   5.755   0.668   3.409
 1541WAT      O 4864   6.769   3.177   8.304
 1541WAT     H1 4865   6.836   3.104   8.295
 1541WAT     H2 4866   6.797   3.255   8.247
 1542WAT      O 4867   3.315   0.635   7.981
 1542WAT     H1 4868   3.283   0.551   7.938
 1542WAT     H2 4869   3.405   0.620   8.021
 1543WAT      O 4870   1.921   3.232   3.878
 1543WAT     H1 4871   1.919   3.318   3.928
 1543WAT     H2 4872   1.871   3.162   3.928
 1544WAT      O 4873   4.443   2.402   4.122
 1544WAT     H1 4874   4.486   2.483   4.160
 1544WAT     H2 4875   4.499   2.366   4.047
 1545WAT      O 4876   8.354   5.301   4.742
 1545WAT     H1 4877   8.452   5.282   4.749
 1545WAT     H2 4878   8.304   5.215   4.728
 1546WAT      O 4879   5.235   9.030   1.920
 1546WAT     H1 4880   5.300   8.977   1.974
 1546WAT     H2 4881   5.277   9.117   1.894
 1547WAT      O 4882   5.080   0.499   2.488
 1547WAT     H1 4883   5.122   0.545   2.410
 1547WAT     H2 4884   5.045   0.410   2.459
 1548WAT      O 4885   8.049   0.633   5.114
 1548WAT     H1 4886   8.076   0.721   5.151
 1548WAT     H2 4887   7.952   0.617   5.133
 1549WAT      O 4888   8.000   8.771   4.601
 1549WAT     H1 4889   8.049   8.731   4.524
 1549WAT     H2 4890   8.050   8.754   4.685
 1550WAT      O 4891   7.126   6.365   6.791
 1550WAT     H1 4892   7.029   6.356   6.768
 1550WAT     H2 4893   7.145   6.319   6.877
 1551WAT      O 4894   2.893   9.168   4.833
 1551WAT     H1 4895   2.860   9.083   4.793
 1551WAT     H2 4896   2.817   9.232   4.847
 1552WAT      O 4897   9.388   2.954   1.312
 1552WAT     H1 4898   9.301   2.973   1.266
 1552WAT     H2 4899   9.455   2.922   1.245
 1553WAT      O 4900   7.970   6.190   4.728
 1553WAT     H1 4901   8.029   6.158   4.654
 1553WAT     H2 4902   7.991   6.286   4.748
 1554WAT      O 4903   7.391   0.955   3.220
 1554WAT     H1 4904   7.456   0.885   3.189
 1554WAT     H2 4905   7.327   0.977   3.146
 1555WAT      O 4906   2.973   9.293   9.505
 1555WAT     H1 4907   3.036   9.279   9.428
 1555WAT     H2 4908   2.903   9.360   9.479
 1556WAT      O 4909   9.187   9.774   4.328
 1556WAT     H1 4910   9.155   9.869   4.322
 1556WAT     H2 4911   9.112   9.717   4.363
 1557WAT      O 4912   6.287   2.700   2.646
 1557WAT     H1 4913   6.365   2.736   2.697
 1557WAT     H2 4914   6.312   2.613   2.605
 1558WAT      O 4915   6.360   9.406   3.257
 1558WAT     H1 4916   6.442   9.348   3.264
 1558WAT     H2 4917   6.385   9.501   3.274
 1559WAT      O 4918   1.718   4.838   7.036
 1559WAT     H1 4919   1.631   4.802   7.001
 1559WAT     H2 4920   1.793   4.795   6.987
 1560WAT      O 4921   1.519   7.775   0.094
 1560WAT     H1 4922   1.602   7.755   0.145
 1560WAT     H2 4923   1.517   7.872   0.071
 1561WAT      O 4924   5.929   2.412   4.519
 1561WAT     H1 4925   5.892   2.320   4.528
 1561WAT     H2 4926   6.028   2.407   4.507
 1562WAT      O 4927   8.491   7.832   6.568
 1562WAT     H1 4928   8.460   7.808   6.660
 1562WAT     H2 4929   8.576   7.884   6.574
 1563WAT      O 4930   1.378   5.644   3.628
 1563WAT     H1 4931   1.391   5.591   3.544
 1563WAT     H2 4932   1.280   5.647   3.650
 1564WAT      O 4933   5.726   7.273   3.835
 1564WAT     H1 4934   5.820   7.241   3.823
 1564WAT     H2 4935   5.723   7.372   3.830
 1565WAT      O 4936   6.209   3.980   0.778
 1565WAT     H1 4937   6.194   3.903   0.716
 1565WAT     H2 4938   6.261   4.051   0.731
 1566WAT      O 4939   6.183   3.310   8.553
 1566WAT     H1 4940   6.131   3.277   8.633
 1566WAT     H2 4941   6.267   3.354   8.585
 1567WAT      O 4942   0.288   3.667   6.402
 1567WAT     H1 4943   0.329   3.625   6.321
 1567WAT     H2 4944   0.223   3.738   6.373
 1568WAT      O 4945   4.651   8.507   9.450
 1568WAT     H1 4946   4.572   8.464   9.405
 1568WAT     H2 4947   4.657   8.475   9.544
 1569WAT      O 4948   2.637   8.670   0.833
 1569WAT     H1 4949   2.678   8.649   0.745
 1569WAT     H2 4950   2.594   8.588   0.871
 1570WAT      O 4951   0.556   2.460   9.368
 1570WAT     H1 4952   0.541   2.366   9.398
 1570WAT     H2 4953   0.483   2.487   9.305
 1571WAT      O 4954   8.959   1.114   1.049
 1571WAT     H1 4955   8.906   1.128   1.133
 1571WAT     H2 4956   8.950   1.194   0.990
 1572WAT      O 4957   0.755   5.049   7.538
 1572WAT     H1 4958   0.814   4.981   7.582
 1572WAT     H2 4959   0.689   5.084   7.604
 1573WAT      O 4960   7.514   1.395   4.893
 1573WAT     H1 4961   7.432   1.337   4.893
 1573WAT     H2 4962   7.518   1.447   4.979
 1574WAT      O 4963   2.853   4.675   1.246
 1574WAT     H1 4964   2.853   4.764   1.201
 1574WAT     H2 4965   2.947   4.649   1.268
 1575WAT      O 4966   0.074   4.678   8.916
 1575WAT     H1 4967   0.051   4.684   8.819
 1575WAT     H2 4968   0.173   4.666   8.925
 1576WAT      O 4969   9.086   2.202   4.052
 1576WAT     H1 4970   9.154   2.276   4.053
 1576WAT     H2 4971   8.999   2.238   4.017
 1577WAT      O 4972   6.989   7.546   0.146
 1577WAT     H1 4973   7.069   7.487   0.143
 1577WAT     H2 4974   7.017   7.640   0.165
 1578WAT      O 4975   2.940   2.187   3.662
 1578WAT     H1 4976   2.940   2.271   3.608
 1578WAT     H2 4977   3.030   2.173   3.701
 1579WAT      O 4978   4.251   0.042   4.759
 1579WAT     H1 4979   4.155   0.038   4.733
 1579WAT     H2 4980   4.263  -0.002   4.848
 1580WAT      O 4981   9.378   7.315   4.261
 1580WAT     H1 4982   9.340   7.306   4.169
 1580WAT     H2 4983   9.444   7.391   4.262
 1581WAT      O 4984   7.783   8.057   7.589
 1581WAT     H1 4985   7.771   8.075   7.687
 1581WAT     H2 4986   7.851   8.120   7.552
 1582WAT      O 4987   5.913   3.398   0.723
 1582WAT     H1 4988   5.841   3.329   0.721
 1582WAT     H2 4989   5.872   3.489   0.712
 1583WAT      O 4990   6.108   0.722   0.680
 1583WAT     H1 4991   6.150   0.800   0.635
 1583WAT     H2 4992   6.170   0.686   0.750
 1584WAT      O 4993   4.603   9.131   3.346
 1584WAT     H1 4994   4.583   9.093   3.255
 1584WAT     H2 4995   4.653   9.217   3.336
 1585WAT      O 4996   6.641   1.074   1.871
 1585WAT     H1 4997   6.678   1.033   1.788
 1585WAT     H2 4998   6.660   1.013   1.949
 1586WAT      O 4999   0.432   1.685   8.621
 1586WAT     H1 5000   0.379   1.765   8.648
 1586WAT     H2 5001   0.459   1.634   8.703
 1587WAT      O 5002   6.359   4.329   2.126
 1587WAT     H1 5003   6.458   4.333   2.113
 1587WAT     H2 5004   6.332   4.393   2.198
 1588WAT      O 5005   1.305   6.854   5.131
 1588WAT     H1 5006   1.223   6.901   5.099
 1588WAT     H2 5007   1.378   6.864   5.063
 1589WAT      O 5008   9.364   0.820   4.037
 1589WAT     H1 5009   9.369   0.900   4.097
 1589WAT     H2 5010   9.353   0.851   3.942
 1590WAT      O 5011   3.213   5.087   7.921
 1590WAT     H1 5012   3.311   5.090   7.938
 1590WAT     H2 5013   3.168   5.033   7.992
 1591WAT      O 5014   5.106   8.604   8.311
 1591WAT     H1 5015   5.057   8.691   8.319
 1591WAT     H2 5016   5.042   8.528   8.321
 1592WAT      O 5017   7.545   9.145   8.709
 1592WAT     H1 5018   7.560   9.133   8.807
 1592WAT     H2 5019   7.627   9.117   8.659
 1593WAT      O 5020   6.337   1.323   5.339
 1593WAT     H1 5021   6.430   1.296   5.364
 1593WAT     H2 5022   6.298   1.255   5.277
 1594WAT      O 5023   8.581   2.212   1.432
 1594WAT     H1 5024   8.634   2.207   1.516
 1594WAT     H2 5025   8.632   2.263   1.363
 1595WAT      O 5026   2.499   6.095   0.969
 1595WAT     H1 5027   2.583   6.150   0.976
 1595WAT     H2 5028   2.468   6.093   0.874
 1596WAT      O 5029   4.288   9.468   2.609
 1596WAT     H1 5030   4.372   9.475   2.662
 1596WAT     H2 5031   4.276   9.373   2.579
 1597WAT      O 5032   2.699   3.754   3.903
 1597WAT     H1 5033   2.753   3.701   3.838
 1597WAT     H2 5034   2.641   3.692   3.957
 1598WAT      O 5035   3.522   2.939   0.937
 1598WAT     H1 5036   3.541   3.037   0.928
 1598WAT     H2 5037   3.425   2.923   0.924
 1599WAT      O 5038   9.340   9.021   2.048
 1599WAT     H1 5039   9.276   9.092   2.017
 1599WAT     H2 5040   9.322   8.936   1.998
 1600WAT      O 5041   0.664   6.333   5.313
 1600WAT     H1 5042   0.691   6.429   5.320
 1600WAT     H2 5043   0.611   6.308   5.394
 1601WAT      O 5044   2.557   9.012   9.115
 1601WAT     H1 5045   2.600   8.922   9.118
 1601WAT     H2 5046   2.625   9.083   9.133
 1602WAT      O 5047   6.618   3.466   6.356
 1602WAT     H1 5048   6.651   3.391   6.298
 1602WAT     H2 5049   6.528   3.442   6.393
 1603WAT      O 5050   6.203   4.665   0.689
 1603WAT     H1 5051   6.127   4.702   0.743
 1603WAT     H2 5052   6.289   4.698   0.727
 1604WAT      O 5053   0.789   9.451   3.884
 1604WAT     H1 5054   0.742   9.508   3.952
 1604WAT     H2 5055   0.877   9.421   3.922
 1605WAT      O 5056   4.475   2.194   7.780
 1605WAT     H1 5057   4.507   2.283   7.813
 1605WAT     H2 5058   4.386   2.204   7.737
 1606WAT      O 5059   2.522   2.210   6.039
 1606WAT     H1 5060   2.475   2.139   6.092
 1606WAT     H2 5061   2.602   2.170   5.995
 1607WAT      O 5062   2.243   9.597   9.865
 1607WAT     H1 5063   2.338   9.571   9.884
 1607WAT     H2 5064   2.226   9.590   9.767
 1608WAT      O 5065   7.514   0.141   0.806
 1608WAT     H1 5066   7.607   0.104   0.796
 1608WAT     H2 5067   7.448   0.070   0.780
 1609WAT      O 5068   0.842   0.001   4.049
 1609WAT     H1 5069   0.761  -0.056   4.063
 1609WAT     H2 5070   0.859   0.056   4.131
 1610WAT      O 5071   9.151   1.446   2.418
 1610WAT     H1 5072   9.056   1.473   2.434
 1610WAT     H2 5073   9.182   1.485   2.331
 1611WAT      O 5074   1.650   2.624   2.500
 1611WAT     H1 5075   1.671   2.526   2.496
 1611WAT     H2 5076   1.679   2.668   2.415
 1612WAT      O 5077   8.999   3.287   7.228
 1612WAT     H1 5078   8.947   3.212   7.270
 1612WAT     H2 5079   8.964   3.374   7.262
 1613WAT      O 5080   8.990   9.140   3.569
 1613WAT     H1 5081   9.047   9.111   3.493
 1613WAT     H2 5082   8.935   9.062   3.601
 1614WAT      O 5083   4.139   8.227   0.022
 1614WAT     H1 5084   4.163   8.251  -0.072
 1614WAT     H2 5085   4.213   8.174   0.062
 1615WAT      O 5086   6.874   0.565   1.671
 1615WAT     H1 5087   6.788   0.519   1.691
 1615WAT     H2 5088   6.886   0.572   1.572
 1616WAT      O 5089   2.839   8.196   1.340
 1616WAT     H1 5090   2.912   8.244   1.290
 1616WAT     H2 5091   2.873   8.108   1.373
 1617WAT      O 5092   8.496   3.062   8.258
 1617WAT     H1 5093   8.424   3.060   8.327
 1617WAT     H2 5094   8.559   3.137   8.279
 1618WAT      O 5095   3.048   7.534   2.520
 1618WAT     H1 5096   3.034   7.607   2.453
 1618WAT     H2 5097   3.053   7.573   2.612
 1619WAT      O 5098   9.389   4.111   9.833
 1619WAT     H1 5099   9.434   4.199   9.851
 1619WAT     H2 5100   9.322   4.123   9.760
 1620WAT      O 5101   5.359   2.654   1.079
 1620WAT     H1 5102   5.403   2.570   1.047
 1620WAT     H2 5103   5.395   2.678   1.169
 1621WAT      O 5104   5.221   4.690   8.882
 1621WAT     H1 5105   5.289   4.762   8.895
 1621WAT     H2 5106   5.134   4.719   8.922
 1622WAT      O 5107   6.913   5.801   9.005
 1622WAT     H1 5108   7.005   5.799   9.044
 1622WAT     H2 5109   6.905   5.730   8.935
 1623WAT      O 5110   3.188   2.376   6.988
 1623WAT     H1 5111   3.208   2.336   7.078
 1623WAT     H2 5112   3.272   2.380   6.935
 1624WAT      O 5113   9.715   2.931   3.568
 1624WAT     H1 5114   9.804   2.972   3.583
 1624WAT     H2 5115   9.696   2.863   3.639
 1625WAT      O 5116   3.487   3.247   3.346
 1625WAT     H1 5117   3.544   3.282   3.421
 1625WAT     H2 5118   3.521   3.284   3.259
 1626WAT      O 5119   0.517   1.613   4.170
 1626WAT     H1 5120   0.516   1.625   4.071
 1626WAT     H2 5121   0.597   1.559   4.196
 1627WAT      O 5122   4.725   9.155   2.030
 1627WAT     H1 5123   4.721   9.063   1.992
 1627WAT     H2 5124   4.811   9.198   2.004
 1628WAT      O 5125   4.040   5.678   7.777
 1628WAT     H1 5126   4.120   5.731   7.748
 1628WAT     H2 5127   3.978   5.736   7.829
 1629WAT      O 5128   5.514   6.457   0.059
 1629WAT     H1 5129   5.602   6.453   0.012
 1629WAT     H2 5130   5.511   6.538   0.117
 1630WAT      O 5131   3.932   4.054   0.966
 1630WAT     H1 5132   3.924   4.087   0.872
 1630WAT     H2 5133   3.843   4.061   1.011
 1631WAT      O 5134   0.520   8.297   8.155
 1631WAT     H1 5135   0.500   8.395   8.159
 1631WAT     H2 5136   0.434   8.246   8.147
 1632WAT      O 5137   0.198   8.419   5.355
 1632WAT     H1 5138   0.272   8.432   5.289
 1632WAT     H2 5139   0.175   8.322   5.362
 1633WAT      O 5140   9.675   2.821   0.036
 1633WAT     H1 5141   9.712   2.907   0.073
 1633WAT     H2 5142   9.587   2.801   0.078
 1634WAT      O 5143   3.305   8.592   4.370
 1634WAT     H1 5144   3.206   8.597   4.383
 1634WAT     H2 5145   3.340   8.507   4.410
 1635WAT      O 5146   4.640   3.275   1.176
 1635WAT     H1 5147   4.543   3.251   1.170
 1635WAT     H2 5148   4.670   3.273   1.271
 1636WAT      O 5149   0.364   8.492   0.178
 1636WAT     H1 5150   0.353   8.552   0.099
 1636WAT     H2 5151   0.275   8.472   0.218
 1637WAT      O 5152   8.473   0.347   9.032
 1637WAT     H1 5153   8.525   0.431   9.049
 1637WAT     H2 5154   8.532   0.268   9.044
 1638WAT      O 5155   1.901   6.087   7.461
 1638WAT     H1 5156   1.839   6.166   7.464
 1638WAT     H2 5157   1.882   6.033   7.379
 1639WAT      O 5158   0.194   5.123   6.424
 1639WAT     H1 5159   0.217   5.056   6.354
 1639WAT     H2 5160   0.117   5.089   6.479
 1640WAT      O 5161   9.227   0.431   3.697
 1640WAT     H1 5162   9.198   0.454   3.604
 1640WAT     H2 5163   9.183   0.493   3.762
 1641WAT      O 5164   2.997   1.780   8.982
 1641WAT     H1 5165   2.969   1.835   8.903
 1641WAT     H2 5166   2.937   1.802   9.060
 1642WAT      O 5167   9.527   7.152   7.220
 1642WAT     H1 5168   9.589   7.183   7.148
 1642WAT     H2 5169   9.448   7.106   7.179
 1643WAT      O 5170   6.251   3.533   3.082
 1643WAT     H1 5171   6.322   3.572   3.140
 1643WAT     H2 5172   6.237   3.437   3.106
 1644WAT      O 5173   8.514   0.565   4.863
 1644WAT     H1 5174   8.530   0.534   4.956
 1644WAT     H2 5175   8.417   0.561   4.842
 1645WAT      O 5176   3.807   3.358   4.328
 1645WAT     H1 5177   3.716   3.320   4.340
 1645WAT     H2 5178   3.844   3.329   4.240
 1646WAT      O 5179   2.690   8.968   0.279
 1646WAT     H1 5180   2.742   9.019   0.346
 1646WAT     H2 5181   2.690   9.018   0.192
 1647WAT      O 5182   2.501   1.539   4.670
 1647WAT     H1 5183   2.434   1.577   4.605
 1647WAT     H2 5184   2.593   1.545   4.630
 1648WAT      O 5185   4.906   3.785   4.879
 1648WAT     H1 5186   4.959   3.714   4.927
 1648WAT     H2 5187   4.892   3.862   4.940
 1649WAT      O 5188   6.907   2.328   0.549
 1649WAT     H1 5189   6.935   2.233   0.534
 1649WAT     H2 5190   6.936   2.385   0.472
 1650WAT      O 5191   0.103   0.532   2.039
 1650WAT     H1 5192   0.033   0.473   2.079
 1650WAT     H2 5193   0.186   0.479   2.022
 1651WAT      O 5194   4.463   4.248   1.269
 1651WAT     H1 5195   4.409   4.176   1.312
 1651WAT     H2 5196   4.420   4.336   1.284
 1652WAT      O 5197   7.542   7.874   4.032
 1652WAT     H1 5198   7.499   7.953   3.988
 1652WAT     H2 5199   7.589   7.819   3.964
 1653WAT      O 5200   2.039   8.959   4.180
 1653WAT     H1 5201   2.006   8.941   4.088
 1653WAT     H2 5202   2.126   8.912   4.194
 1654WAT      O 5203   9.315   2.821   2.085
 1654WAT     H1 5204   9.405   2.777   2.084
 1654WAT     H2 5205   9.250   2.765   2.035
 1655WAT      O 5206   3.158   9.468   9.068
 1655WAT     H1 5207   3.113   9.557   9.060
 1655WAT     H2 5208   3.122   9.407   8.997
 1656WAT      O 5209   8.234   7.779   0.928
 1656WAT     H1 5210   8.234   7.770   0.828
 1656WAT     H2 5211   8.239   7.688   0.969
 1657WAT      O 5212   9.284   2.932   1.557
 1657WAT     H1 5213   9.321   2.926   1.464
 1657WAT     H2 5214   9.193   2.890   1.559
 1658WAT      O 5215   4.554   8.527   2.201
 1658WAT     H1 5216   4.595   8.504   2.289
 1658WAT     H2 5217   4.456   8.505   2.203
 1659WAT      O 5218   0.864   4.972   7.939
 1659WAT     H1 5219   0.926   5.038   7.896
 1659WAT     H2 5220   0.829   4.909   7.870
 1660WAT      O 5221   1.329   1.037   2.762
 1660WAT     H1 5222   1.384   0.953   2.766
 1660WAT     H2 5223   1.282   1.041   2.674
 1661WAT      O 5224   5.093   7.197   7.360
 1661WAT     H1 5225   5.102   7.258   7.439
 1661WAT     H2 5226   4.996   7.187   7.337
 1662WAT      O 5227   8.980   7.030   6.449
 1662WAT     H1 5228   9.014   6.940   6.475
 1662WAT     H2 5229   8.905   7.057   6.510
 1663WAT      O 5230   7.190   7.374   1.661
 1663WAT     H1 5231   7.190   7.279   1.632
 1663WAT     H2 5232   7.194   7.433   1.580
 1664WAT      O 5233   1.435   9.337   1.418
 1664WAT     H1 5234   1.469   9.247   1.392
 1664WAT     H2 5235   1.433   9.396   1.338
 1665WAT      O 5236   7.999   2.186   0.073
 1665WAT     H1 5237   8.014   2.090   0.097
 1665WAT     H2 5238   7.961   2.192  -0.020
 1666WAT      O 5239   9.622   2.860   3.327
 1666WAT     H1 5240   9.642   2.764   3.311
 1666WAT     H2 5241   9.680   2.895   3.401
 1667WAT      O 5242   2.040   1.416   2.489
 1667WAT     H1 5243   1.943   1.412   2.467
 1667WAT     H2 5244   2.068   1.512   2.500
 1668WAT      O 5245   7.865   6.483   2.727
 1668WAT     H1 5246   7.877   6.385   2.738
 1668WAT     H2 5247   7.798   6.500   2.654
 1669WAT      O 5248   2.831   8.077   7.372
 1669WAT     H1 5249   2.811   8.023   7.454
 1669WAT     H2 5250   2.826   8.174   7.395
 1670WAT      O 5251   4.519   1.617   3.672
 1670WAT     H1 5252   4.539   1.545   3.738
 1670WAT     H2 5253   4.552   1.705   3.708
 1671WAT      O 5254   1.427   5.429   1.803
 1671WAT     H1 5255   1.504   5.401   1.746
 1671WAT     H2 5256   1.345   5.436   1.747
 1672WAT      O 5257   2.402   1.716   8.532
 1672WAT     H1 5258   2.371   1.753   8.445
 1672WAT     H2 5259   2.339   1.741   8.605
 1673WAT      O 5260   7.478   8.157   1.296
 1673WAT     H1 5261   7.421   8.223   1.247
 1673WAT     H2 5262   7.572   8.192   1.302
 1674WAT      O 5263   8.570   2.194   9.543
 1674WAT     H1 5264   8.600   2.152   9.628
 1674WAT     H2 5265   8.526   2.282   9.563
 1675WAT      O 5266   5.292   1.339   4.158
 1675WAT     H1 5267   5.228   1.345   4.235
 1675WAT     H2 5268   5.242   1.319   4.074
 1676WAT      O 5269   9.086   8.058   6.322
 1676WAT     H1 5270   9.045   8.005   6.248
 1676WAT     H2 5271   9.095   8.001   6.404
 1677WAT      O 5272   9.714   5.515   9.591
 1677WAT     H1 5273   9.620   5.493   9.616
 1677WAT     H2 5274   9.742   5.598   9.639
 1678WAT      O 5275   1.107   1.466   6.998
 1678WAT     H1 5276   1.036   1.501   6.937
 1678WAT     H2 5277   1.197   1.482   6.958
 1679WAT      O 5278   5.865   0.873   2.529
 1679WAT     H1 5279   5.865   0.942   2.456
 1679WAT     H2 5280   5.817   0.908   2.609
 1680WAT      O 5281   9.681   3.876   2.573
 1680WAT     H1 5282   9.652   3.867   2.669
 1680WAT     H2 5283   9.766   3.826   2.560
 1681WAT      O 5284   2.228   2.455   1.884
 1681WAT     H1 5285   2.304   2.395   1.862
 1681WAT     H2 5286   2.251   2.549   1.858
 1682WAT      O 5287   4.998   8.124   4.205
 1682WAT     H1 5288   4.942   8.148   4.284
 1682WAT     H2 5289   4.940   8.083   4.134
 1683WAT      O 5290   0.836   8.208   1.748
 1683WAT     H1 5291   0.874   8.129   1.699
 1683WAT     H2 5292   0.864   8.204   1.844
 1684WAT      O 5293   4.142   2.304   7.375
 1684WAT     H1 5294   4.092   2.377   7.421
 1684WAT     H2 5295   4.172   2.336   7.285
 1685WAT      O 5296   4.728   1.229   6.740
 1685WAT     H1 5297   4.750   1.183   6.654
 1685WAT     H2 5298   4.807   1.283   6.770
 1686WAT      O 5299   6.658   3.637   3.507
 1686WAT     H1 5300   6.646   3.694   3.425
 1686WAT     H2 5301   6.675   3.697   3.585
 1687WAT      O 5302   7.043   8.837   5.190
 1687WAT     H1 5303   7.033   8.805   5.096
 1687WAT     H2 5304   7.123   8.896   5.197
 1688WAT      O 5305   0.623   0.516   3.945
 1688WAT     H1 5306   0.567   0.599   3.954
 1688WAT     H2 5307   0.569   0.444   3.901
 1689WAT      O 5308   8.910   1.558   4.031
 1689WAT     H1 5309   8.966   1.573   4.113
 1689WAT     H2 5310   8.838   1.627   4.028
 1690WAT      O 5311   5.343   8.048   1.082
 1690WAT     H1 5312   5.345   7.949   1.086
 1690WAT     H2 5313   5.373   8.086   1.169
 1691WAT      O 5314   5.165   0.327   3.122
 1691WAT     H1 5315   5.177   0.309   3.024
 1691WAT     H2 5316   5.250   0.361   3.161
 1692WAT      O 5317   7.027   3.961   3.112
 1692WAT     H1 5318   7.048   3.933   3.205
 1692WAT     H2 5319   7.015   3.880   3.055
 1693WAT      O 5320   6.496   9.580   0.177
 1693WAT     H1 5321   6.551   9.568   0.259
 1693WAT     H2 5322   6.455   9.492   0.152
 1694WAT      O 5323   5.922   8.558   9.201
 1694WAT     H1 5324   5.974   8.480   9.238
 1694WAT     H2 5325   5.933   8.561   9.102
 1695WAT      O 5326   8.782   7.826   7.708
 1695WAT     H1 5327   8.856   7.789   7.651
 1695WAT     H2 5328   8.755   7.915   7.673
 1696WAT      O 5329   2.626   2.075   8.792
 1696WAT     H1 5330   2.651   2.171   8.778
 1696WAT     H2 5331   2.551   2.069   8.859
 1697WAT      O 5332   5.103   1.152   6.941
 1697WAT     H1 5333   5.076   1.196   6.856
 1697WAT     H2 5334   5.135   1.059   6.923
 1698WAT      O 5335   4.537   9.188   8.091
 1698WAT     H1 5336   4.487   9.255   8.147
 1698WAT     H2 5337   4.512   9.200   7.995
 1699WAT      O 5338   4.638   6.968   0.183
 1699WAT     H1 5339   4.691   6.914   0.118
 1699WAT     H2 5340   4.677   7.060   0.191
 1700WAT      O 5341   4.091   5.835   4.505
 1700WAT     H1 5342   4.029   5.798   4.436
 1700WAT     H2 5343   4.176   5.783   4.504
 1701WAT      O 5344   4.297   3.109   8.040
 1701WAT     H1 5345   4.368   3.050   8.002
 1701WAT     H2 5346   4.305   3.111   8.140
 1702WAT      O 5347   4.925   1.448   8.552
 1702WAT     H1 5348   5.008   1.433   8.605
 1702WAT     H2 5349   4.847   1.463   8.613
 1703WAT      O 5350   7.761   1.467   8.772
 1703WAT     H1 5351   7.858   1.490   8.768
 1703WAT     H2 5352   7.729   1.473   8.866
 1704WAT      O 5353   7.315   2.646   8.315
 1704WAT     H1 5354   7.364   2.716   8.367
 1704WAT     H2 5355   7.287   2.573   8.376
 1705WAT      O 5356   4.624   8.234   5.677
 1705WAT     H1 5357   4.646   8.273   5.766
 1705WAT     H2 5358   4.534   8.266   5.648
 1706WAT      O 5359   3.695   0.474   8.984
 1706WAT     H1 5360   3.598   0.452   8.971
 1706WAT     H2 5361   3.703   0.566   9.022
 1707WAT      O 5362   6.210   3.858   6.058
 1707WAT     H1 5363   6.140   3.815   6.002
 1707WAT     H2 5364   6.167   3.917   6.126
 1708WAT      O 5365   6.000   9.623   9.213
 1708WAT     H1 5366   5.977   9.634   9.116
 1708WAT     H2 5367   6.100   9.626   9.223
 1709WAT      O 5368   2.908   0.275   4.590
 1709WAT     H1 5369   2.932   0.180   4.571
 1709WAT     H2 5370   2.894   0.324   4.504
 1710WAT      O 5371   4.307   1.599   4.302
 1710WAT     H1 5372   4.382   1.652   4.342
 1710WAT     H2 5373   4.264   1.544   4.373
 1711WAT      O 5374   8.092   2.627   3.150
 1711WAT     H1 5375   8.162   2.557   3.162
 1711WAT     H2 5376   8.022   2.593   3.087
 1712WAT      O 5377   0.341   6.390   9.232
 1712WAT     H1 5378   0.405   6.326   9.189
 1712WAT     H2 5379   0.254   6.388   9.182
 1713WAT      O 5380   2.389   6.895   3.152
 1713WAT     H1 5381   2.382   6.809   3.201
 1713WAT     H2 5382   2.298   6.929   3.130
 1714WAT      O 5383   7.949   7.550   4.742
 1714WAT     H1 5384   7.958   7.620   4.812
 1714WAT     H2 5385   7.965   7.460   4.782
 1715WAT      O 5386   4.591   1.836   0.047
 1715WAT     H1 5387   4.548   1.916   0.005
 1715WAT     H2 5388   4.678   1.817   0.002
 1716WAT      O 5389   7.852   0.794   6.951
 1716WAT     H1 5390   7.849   0.694   6.958
 1716WAT     H2 5391   7.801   0.824   6.870
 1717WAT      O 5392   8.421   8.736   1.162
 1717WAT     H1 5393   8.410   8.638   1.151
 1717WAT     H2 5394   8.449   8.756   1.256
 1718WAT      O 5395   8.122   6.174   5.411
 1718WAT     H1 5396   8.150   6.181   5.316
 1718WAT     H2 5397   8.201   6.148   5.468
 1719WAT      O 5398   7.405   4.890   0.884
 1719WAT     H1 5399   7.492   4.937   0.897
 1719WAT     H2 5400   7.413   4.823   0.811
 1720WAT      O 5401   4.963   2.636   1.204
 1720WAT     H1 5402   4.909   2.595   1.277
 1720WAT     H2 5403   5.013   2.715   1.239
 1721WAT      O 5404   9.186   0.416   5.515
 1721WAT     H1 5405   9.283   0.396   5.515
 1721WAT     H2 5406   9.150   0.411   5.422
 1722WAT      O 5407   1.805   3.774   5.587
 1722WAT     H1 5408   1.838   3.732   5.672
 1722WAT     H2 5409   1.719   3.731   5.560
 1723WAT      O 5410   9.343   2.454   7.687
 1723WAT     H1 5411   9.289   2.511   7.625
 1723WAT     H2 5412   9.437   2.449   7.655
 1724WAT      O 5413   4.855   1.440   6.156
 1724WAT     H1 5414   4.863   1.499   6.236
 1724WAT     H2 5415   4.859   1.495   6.073
 1725WAT      O 5416   4.554   2.712   2.532
 1725WAT     H1 5417   4.652   2.725   2.550
 1725WAT     H2 5418   4.509   2.801   2.526
 1726WAT      O 5419   5.252   5.114   1.160
 1726WAT     H1 5420   5.320   5.052   1.123
 1726WAT     H2 5421   5.247   5.105   1.259
 1727WAT      O 5422   4.896   5.206   7.403
 1727WAT     H1 5423   4.967   5.260   7.359
 1727WAT     H2 5424   4.938   5.139   7.464
 1728WAT      O 5425   1.399   5.544   0.363
 1728WAT     H1 5426   1.329   5.536   0.293
 1728WAT     H2 5427   1.474   5.481   0.343
 1729WAT      O 5428   3.205   4.242   6.077
 1729WAT     H1 5429   3.143   4.307   6.033
 1729WAT     H2 5430   3.251   4.187   6.007
 1730WAT      O 5431   0.493   8.650   7.851
 1730WAT     H1 5432   0.460   8.556   7.840
 1730WAT     H2 5433   0.415   8.713   7.850
 1731WAT      O 5434   8.269   1.109   2.501
 1731WAT     H1 5435   8.333   1.073   2.433
 1731WAT     H2 5436   8.238   1.199   2.472
 1732WAT      O 5437   0.026   8.196   1.772
 1732WAT     H1 5438  -0.034   8.175   1.694
 1732WAT     H2 5439   0.019   8.122   1.839
 1733WAT      O 5440   4.507   1.554   9.483
 1733WAT     H1 5441   4.539   1.624   9.418
 1733WAT     H2 5442   4.586   1.502   9.516
 1734WAT      O 5443   8.408   7.520   8.703
 1734WAT     H1 5444   8.395   7.617   8.723
 1734WAT     H2 5445   8.488   7.509   8.644
 1735WAT      O 5446   4.012   2.535   2.181
 1735WAT     H1 5447   4.046   2.443   2.201
 1735WAT     H2 5448   3.913   2.537   2.194
 1736WAT      O 5449   0.649   4.731   7.869
 1736WAT     H1 5450   0.589   4.812   7.872
 1736WAT     H2 5451   0.705   4.728   7.952
 1737WAT      O 5452   7.294   0.456   2.709
 1737WAT     H1 5453   7.242   0.445   2.625
 1737WAT     H2 5454   7.310   0.366   2.750
 1738WAT      O 5455   1.042   5.740   5.690
 1738WAT     H1 5456   1.094   5.788   5.620
 1738WAT     H2 5457   1.098   5.729   5.772
 1739WAT      O 5458   9.278   4.631   5.260
 1739WAT     H1 5459   9.207   4.636   5.190
 1739WAT     H2 5460   9.293   4.722   5.299
 1740WAT      O 5461   9.705   0.366   4.680
 1740WAT     H1 5462   9.773   0.421   4.632
 1740WAT     H2 5463   9.624   0.423   4.699
 1741WAT      O 5464   7.246   8.437   6.991
 1741WAT     H1 5465   7.302   8.356   6.972
 1741WAT     H2 5466   7.212   8.432   7.085
 1742WAT      O 5467   0.682   8.967   5.883
 1742WAT     H1 5468   0.713   8.903   5.813
 1742WAT     H2 5469   0.629   8.918   5.953
 1743WAT      O 5470   4.989   8.766   0.811
 1743WAT     H1 5471   5.055   8.826   0.856
 1743WAT     H2 5472   4.898   8.781   0.849
 1744WAT      O 5473   8.998   2.257   2.647
 1744WAT     H1 5474   9.069   2.191   2.624
 1744WAT     H2 5475   9.031   2.350   2.630
 1745WAT      O 5476   7.599   4.303   7.696
 1745WAT     H1 5477   7.568   4.300   7.791
 1745WAT     H2 5478   7.522   4.284   7.635
 1746WAT      O 5479   8.581   3.955   5.872
 1746WAT     H1 5480   8.636   3.893   5.929
 1746WAT     H2 5481   8.632   4.039   5.855
 1747WAT      O 5482   4.693   7.290   7.778
 1747WAT     H1 5483   4.607   7.298   7.830
 1747WAT     H2 5484   4.765   7.342   7.825
 1748WAT      O 5485   9.389   4.845   7.454
 1748WAT     H1 5486   9.376   4.784   7.532
 1748WAT     H2 5487   9.415   4.791   7.374
 1749WAT      O 5488   5.405   9.004   5.185
 1749WAT     H1 5489   5.384   9.101   5.182
 1749WAT     H2 5490   5.415   8.968   5.093
 1750WAT      O 5491   3.841   6.028   9.432
 1750WAT     H1 5492   3.808   5.938   9.461
 1750WAT     H2 5493   3.770   6.096   9.447
 1751WAT      O 5494   5.907   9.375   8.806
 1751WAT     H1 5495   5.876   9.441   8.875
 1751WAT     H2 5496   5.827   9.333   8.763
 1752WAT      O 5497   5.014   5.880   2.911
 1752WAT     H1 5498   5.016   5.968   2.864
 1752WAT     H2 5499   4.977   5.810   2.850
 1753WAT      O 5500   8.017   0.810   8.806
 1753WAT     H1 5501   8.097   0.758   8.836
 1753WAT     H2 5502   8.037   0.857   8.721
 1754WAT      O 5503   9.573   9.588   4.227
 1754WAT     H1 5504   9.507   9.521   4.260
 1754WAT     H2 5505   9.525   9.670   4.196
 1755WAT      O 5506   3.431   9.453   2.887
 1755WAT     H1 5507   3.438   9.551   2.868
 1755WAT     H2 5508   3.449   9.437   2.984
 1756WAT      O 5509   7.405   6.148   8.910
 1756WAT     H1 5510   7.449   6.219   8.855
 1756WAT     H2 5511   7.476   6.092   8.954
 1757WAT      O 5512   1.617   3.310   7.404
 1757WAT     H1 5513   1.585   3.230   7.454
 1757WAT     H2 5514   1.638   3.284   7.310
 1758WAT      O 5515   0.278   1.918   6.599
 1758WAT     H1 5516   0.205   1.875   6.546
 1758WAT     H2 5517   0.347   1.850   6.622
 1759WAT      O 5518   2.251   3.224   9.655
 1759WAT     H1 5519   2.243   3.172   9.740
 1759WAT     H2 5520   2.320   3.295   9.665
 1760WAT      O 5521   8.375   7.980   5.890
 1760WAT     H1 5522   8.305   8.034   5.842
 1760WAT     H2 5523   8.414   7.913   5.828
 1761WAT      O 5524   2.096   2.025   9.841
 1761WAT     H1 5525   1.999   2.030   9.864
 1761WAT     H2 5526   2.145   1.973   9.911
 1762WAT      O 5527   6.419   4.951   2.529
 1762WAT     H1 5528   6.347   4.885   2.552
 1762WAT     H2 5529   6.501   4.929   2.581
 1763WAT      O 5530   8.357   1.489   0.903
 1763WAT     H1 5531   8.313   1.403   0.876
 1763WAT     H2 5532   8.415   1.522   0.828
 1764WAT      O 5533   0.254   3.881   7.928
 1764WAT     H1 5534   0.201   3.834   7.998
 1764WAT     H2 5535   0.200   3.957   7.891
 1765WAT      O 5536   0.580   2.292   9.709
 1765WAT     H1 5537   0.670   2.261   9.740
 1765WAT     H2 5538   0.583   2.391   9.692
 1766WAT      O 5539   2.085   9.786   1.908
 1766WAT     H1 5540   2.147   9.709   1.923
 1766WAT     H2 5541   2.027   9.798   1.988
 1767WAT      O 5542   3.182   2.286   9.297
 1767WAT     H1 5543   3.226   2.369   9.262
 1767WAT     H2 5544   3.185   2.287   9.397
 1768WAT      O 5545   8.029   5.251   8.661
 1768WAT     H1 5546   8.052   5.345   8.687
 1768WAT     H2 5547   8.104   5.190   8.687
 1769WAT      O 5548   4.946   4.417   7.214
 1769WAT     H1 5549   4.872   4.475   7.178
 1769WAT     H2 5550   4.908   4.349   7.276
 1770WAT      O 5551   0.619   5.150   3.963
 1770WAT     H1 5552   0.660   5.085   4.027
 1770WAT     H2 5553   0.519   5.139   3.964
 1771WAT      O 5554   9.361   3.045   0.604
 1771WAT     H1 5555   9.424   3.122   0.596
 1771WAT     H2 5556   9.274   3.076   0.642
 1772WAT      O 5557   0.118   9.414   1.907
 1772WAT     H1 5558   0.095   9.338   1.969
 1772WAT     H2 5559   0.081   9.499   1.944
 1773WAT      O 5560   9.634   4.739   3.655
 1773WAT     H1 5561   9.641   4.731   3.754
 1773WAT     H2 5562   9.651   4.649   3.613
 1774WAT      O 5563   6.571   7.459   1.126
 1774WAT     H1 5564   6.644   7.391   1.125
 1774WAT     H2 5565   6.518   7.450   1.211
 1775WAT      O 5566   5.673   8.217   6.425
 1775WAT     H1 5567   5.734   8.148   6.464
 1775WAT     H2 5568   5.620   8.177   6.350
 1776WAT      O 5569   4.744   0.220   7.109
 1776WAT     H1 5570   4.724   0.247   7.203
 1776WAT     H2 5571   4.842   0.228   7.092
 1777WAT      O 5572   7.592   8.251   8.607
 1777WAT     H1 5573   7.650   8.328   8.579
 1777WAT     H2 5574   7.498   8.282   8.617
 1778WAT      O 5575   3.742   1.292   5.079
 1778WAT     H1 5576   3.749   1.225   5.005
 1778WAT     H2 5577   3.831   1.333   5.095
 1779WAT      O 5578   3.858   9.213   3.545
 1779WAT     H1 5579   3.905   9.293   3.582
 1779WAT     H2 5580   3.856   9.220   3.445
 1780WAT      O 5581   1.188   8.556   7.226
 1780WAT     H1 5582   1.180   8.481   7.160
 1780WAT     H2 5583   1.270   8.609   7.206
 1781WAT      O 5584   2.158   4.750   1.828
 1781WAT     H1 5585   2.249   4.793   1.833
 1781WAT     H2 5586   2.099   4.789   1.899
 1782WAT      O 5587   6.005   1.671   0.879
 1782WAT     H1 5588   5.954   1.601   0.929
 1782WAT     H2 5589   6.059   1.726   0.943
 1783WAT      O 5590   5.939   2.831   4.069
 1783WAT     H1 5591   5.998   2.832   3.989
 1783WAT     H2 5592   5.878   2.911   4.067
 1784WAT      O 5593   1.107   9.549   5.429
 1784WAT     H1 5594   1.033   9.616   5.425
 1784WAT     H2 5595   1.118   9.517   5.523
 1785WAT      O 5596   4.164   1.173   4.773
 1785WAT     H1 5597   4.128   1.128   4.855
 1785WAT     H2 5598   4.207   1.105   4.714
 1786WAT      O 5599   9.057   7.563   5.827
 1786WAT     H1 5600   8.966   7.526   5.812
 1786WAT     H2 5601   9.119   7.529   5.756
 1787WAT      O 5602   0.924   4.744   3.424
 1787WAT     H1 5603   0.977   4.737   3.340
 1787WAT     H2 5604   0.880   4.657   3.444
 1788WAT      O 5605   7.862   5.167   2.749
 1788WAT     H1 5606   7.859   5.119   2.837
 1788WAT     H2 5607   7.943   5.226   2.746
 1789WAT      O 5608   8.518   1.315   3.290
 1789WAT     H1 5609   8.605   1.321   3.340
 1789WAT     H2 5610   8.446   1.284   3.351
 1790WAT      O 5611   6.590   0.932   3.499
 1790WAT     H1 5612   6.657   0.868   3.461
 1790WAT     H2 5613   6.638   1.013   3.535
 1791WAT      O 5614   7.836   2.695   1.843
 1791WAT     H1 5615   7.871   2.715   1.934
 1791WAT     H2 5616   7.832   2.779   1.789
 1792WAT      O 5617   2.649   3.468   2.110
 1792WAT     H1 5618   2.615   3.379   2.079
 1792WAT     H2 5619   2.633   3.478   2.208
 1793WAT      O 5620   8.045   6.867   2.508
 1793WAT     H1 5621   7.995   6.856   2.422
 1793WAT     H2 5622   8.128   6.811   2.505
 1794WAT      O 5623   2.691   7.890   5.528
 1794WAT     H1 5624   2.663   7.895   5.623
 1794WAT     H2 5625   2.776   7.941   5.515
 1795WAT      O 5626   0.454   2.400   6.574
 1795WAT     H1 5627   0.366   2.445   6.589
 1795WAT     H2 5628   0.494   2.431   6.488
 1796WAT      O 5629   6.875   2.249   9.651
 1796WAT     H1 5630   6.961   2.295   9.629
 1796WAT     H2 5631   6.893   2.168   9.707
 1797WAT      O 5632   2.126   4.064   5.521
 1797WAT     H1 5633   2.137   4.153   5.478
 1797WAT     H2 5634   2.032   4.052   5.551
 1798WAT      O 5635   6.311   1.517   2.516
 1798WAT     H1 5636   6.316   1.438   2.454
 1798WAT     H2 5637   6.285   1.598   2.464
 1799WAT      O 5638   0.955   2.432   5.027
 1799WAT     H1 5639   0.942   2.522   5.067
 1799WAT     H2 5640   0.909   2.363   5.083
 1800WAT      O 5641   1.758   4.246   5.489
 1800WAT     H1 5642   1.729   4.319   5.551
 1800WAT     H2 5643   1.812   4.179   5.539
 1801WAT      O 5644   7.780   3.712   2.186
 1801WAT     H1 5645   7.765   3.738   2.281
 1801WAT     H2 5646   7.826   3.786   2.138
 1802WAT      O 5647   0.845   7.262   8.237
 1802WAT     H1 5648   0.821   7.220   8.324
 1802WAT     H2 5649   0.788   7.343   8.222
 1803WAT      O 5650   4.142   4.227   9.560
 1803WAT     H1 5651   4.110   4.260   9.649
 1803WAT     H2 5652   4.065   4.225   9.496
 1804WAT      O 5653   4.497   5.485   4.823
 1804WAT     H1 5654   4.545   5.447   4.744
 1804WAT     H2 5655   4.532   5.576   4.843
 1805WAT      O 5656   8.345   6.013   5.995
 1805WAT     H1 5657   8.285   6.092   5.979
 1805WAT     H2 5658   8.292   5.937   6.031
 1806WAT      O 5659   2.701   5.729   0.350
 1806WAT     H1 5660   2.787   5.703   0.394
 1806WAT     H2 5661   2.701   5.828   0.332
 1807WAT      O 5662   8.130   6.811   0.512
 1807WAT     H1 5663   8.081   6.730   0.545
 1807WAT     H2 5664   8.131   6.811   0.412
 1808WAT      O 5665   7.611   2.058   9.181
 1808WAT     H1 5666   7.546   2.038   9.255
 1808WAT     H2 5667   7.660   2.142   9.202
 1809WAT      O 5668   8.242   7.950   1.504
 1809WAT     H1 5669   8.334   7.930   1.470
 1809WAT     H2 5670   8.195   8.009   1.439
 1810WAT      O 5671   3.558   8.473   1.061
 1810WAT     H1 5672   3.513   8.385   1.073
 1810WAT     H2 5673   3.645   8.460   1.014
 1811WAT      O 5674   2.417   8.038   0.996
 1811WAT     H1 5675   2.498   8.070   1.046
 1811WAT     H2 5676   2.407   8.091   0.912
 1812WAT      O 5677   1.281   6.854   1.968
 1812WAT     H1 5678   1.242   6.910   1.895
 1812WAT     H2 5679   1.207   6.806   2.016
 1813WAT      O 5680   0.308   2.923   7.039
 1813WAT     H1 5681   0.337   3.017   7.056
 1813WAT     H2 5682   0.322   2.869   7.122
 1814WAT      O 5683   0.687   3.432   4.007
 1814WAT     H1 5684   0.589   3.428   4.023
 1814WAT     H2 5685   0.716   3.349   3.959
 1815WAT      O 5686   8.407   8.853   8.307
 1815WAT     H1 5687   8.426   8.757   8.288
 1815WAT     H2 5688   8.475   8.910   8.261
 1816WAT      O 5689   5.861   0.214   0.889
 1816WAT     H1 5690   5.930   0.242   0.956
 1816WAT     H2 5691   5.876   0.261   0.803
 1817WAT      O 5692   2.005   8.532   6.311
 1817WAT     H1 5693   2.088   8.581   6.284
 1817WAT     H2 5694   1.928   8.564   6.255
 1818WAT      O 5695   1.106   5.836   2.340
 1818WAT     H1 5696   1.123   5.910   2.276
 1818WAT     H2 5697   1.185   5.776   2.344
 1819WAT      O 5698   0.407   0.041   4.063
 1819WAT     H1 5699   0.308   0.047   4.058
 1819WAT     H2 5700   0.440   0.086   4.146
 1820WAT      O 5701   5.370   4.023   8.835
 1820WAT     H1 5702   5.392   3.955   8.905
 1820WAT     H2 5703   5.331   3.976   8.755
 1821WAT      O 5704   4.225   7.374   8.009
 1821WAT     H1 5705   4.161   7.435   8.055
 1821WAT     H2 5706   4.232   7.288   8.061
 1822WAT      O 5707   4.706   8.270   4.733
 1822WAT     H1 5708   4.800   8.299   4.749
 1822WAT     H2 5709   4.644   8.329   4.784
 1823WAT      O 5710   9.764   2.804   4.002
 1823WAT     H1 5711   9.775   2.775   3.907
 1823WAT     H2 5712   9.774   2.904   4.007
 1824WAT      O 5713   9.615   6.624   5.379
 1824WAT     H1 5714   9.684   6.570   5.331
 1824WAT     H2 5715   9.648   6.718   5.389
 1825WAT      O 5716   4.256   9.577   0.112
 1825WAT     H1 5717   4.169   9.616   0.081
 1825WAT     H2 5718   4.316   9.650   0.143
 1826WAT      O 5719   5.866   7.202   9.542
 1826WAT     H1 5720   5.776   7.170   9.572
 1826WAT     H2 5721   5.919   7.233   9.621
 1827WAT      O 5722   0.459   5.032   6.280
 1827WAT     H1 5723   0.514   4.989   6.351
 1827WAT     H2 5724   0.483   4.993   6.191
 1828WAT      O 5725   1.538   4.275   7.702
 1828WAT     H1 5726   1.575   4.314   7.787
 1828WAT     H2 5727   1.576   4.184   7.688
 1829WAT      O 5728   4.628   1.930   1.261
 1829WAT     H1 5729   4.681   2.005   1.222
 1829WAT     H2 5730   4.531   1.953   1.261
 1830WAT      O 5731   2.539   9.801   8.674
 1830WAT     H1 5732   2.612   9.758   8.620
 1830WAT     H2 5733   2.580   9.856   8.747
 1831WAT      O 5734   3.027   4.717   0.932
 1831WAT     H1 5735   3.008   4.710   0.834
 1831WAT     H2 5736   3.098   4.786   0.947
 1832WAT      O 5737   6.984   9.486   4.245
 1832WAT     H1 5738   7.066   9.443   4.284
 1832WAT     H2 5739   6.937   9.538   4.316
 1833WAT      O 5740   7.967   8.284   6.352
 1833WAT     H1 5741   7.917   8.234   6.423
 1833WAT     H2 5742   7.908   8.355   6.314
 1834WAT      O 5743   3.000   0.467   2.783
 1834WAT     H1 5744   2.975   0.482   2.687
 1834WAT     H2 5745   3.100   0.469   2.792
 1835WAT      O 5746   2.341   3.330   1.445
 1835WAT     H1 5747   2.307   3.405   1.502
 1835WAT     H2 5748   2.436   3.349   1.419
 1836WAT      O 5749   2.455   8.183   5.680
 1836WAT     H1 5750   2.363   8.173   5.718
 1836WAT     H2 5751   2.510   8.239   5.741
 1837WAT      O 5752   3.247   8.119   2.361
 1837WAT     H1 5753   3.291   8.145   2.448
 1837WAT     H2 5754   3.148   8.119   2.373
 1838WAT      O 5755   0.796   0.709   2.622
 1838WAT     H1 5756   0.780   0.613   2.642
 1838WAT     H2 5757   0.726   0.743   2.560
 1839WAT      O 5758   7.514   3.426   2.513
 1839WAT     H1 5759   7.464   3.472   2.440
 1839WAT     H2 5760   7.521   3.328   2.492
 1840WAT      O 5761   1.805   0.232   2.366
 1840WAT     H1 5762   1.739   0.171   2.410
 1840WAT     H2 5763   1.762   0.276   2.287
 1841WAT      O 5764   9.007   3.767   2.356
 1841WAT     H1 5765   9.047   3.693   2.409
 1841WAT     H2 5766   8.978   3.840   2.418
 1842WAT      O 5767   7.738   5.411   7.479
 1842WAT     H1 5768   7.662   5.432   7.418
 1842WAT     H2 5769   7.802   5.349   7.434
 1843WAT      O 5770   9.746   4.686   4.707
 1843WAT     H1 5771   9.773   4.702   4.612
 1843WAT     H2 5772   9.812   4.729   4.769
 1844WAT      O 5773   0.953   4.804   5.543
 1844WAT     H1 5774   1.039   4.802   5.594
 1844WAT     H2 5775   0.912   4.713   5.543
 1845WAT      O 5776   0.103   1.812   8.485
 1845WAT     H1 5777   0.107   1.719   8.521
 1845WAT     H2 5778   0.016   1.854   8.508
 1846WAT      O 5779   8.857   3.260   4.136
 1846WAT     H1 5780   8.833   3.260   4.038
 1846WAT     H2 5781   8.914   3.340   4.155
 1847WAT      O 5782   8.506   8.262   9.422
 1847WAT     H1 5783   8.561   8.275   9.504
 1847WAT     H2 5784   8.526   8.172   9.382
 1848WAT      O 5785   3.084   2.312   0.086
 1848WAT     H1 5786   3.057   2.346  -0.004
 1848WAT     H2 5787   3.162   2.365   0.119
 1849WAT      O 5788   6.922   7.904   4.702
 1849WAT     H1 5789   6.866   7.861   4.774
 1849WAT     H2 5790   6.968   7.833   4.649
 1850WAT      O 5791   9.808   7.328   8.019
 1850WAT     H1 5792   9.715   7.342   8.055
 1850WAT     H2 5793   9.803   7.314   7.920
 1851WAT      O 5794   2.134   2.784   7.724
 1851WAT     H1 5795   2.116   2.686   7.728
 1851WAT     H2 5796   2.048   2.834   7.733
 1852WAT      O 5797   6.199   7.484   1.711
 1852WAT     H1 5798   6.100   7.485   1.723
 1852WAT     H2 5799   6.228   7.392   1.685
 1853WAT      O 5800   3.554   3.289   2.342
 1853WAT     H1 5801   3.630   3.251   2.288
 1853WAT     H2 5802   3.468   3.274   2.294
 1854WAT      O 5803   3.207   6.089   7.571
 1854WAT     H1 5804   3.236   6.034   7.493
 1854WAT     H2 5805   3.216   6.186   7.548
 1855WAT      O 5806   8.120   8.731   8.278
 1855WAT     H1 5807   8.203   8.745   8.332
 1855WAT     H2 5808   8.144   8.691   8.190
 1856WAT      O 5809   6.987   5.727   7.997
 1856WAT     H1 5810   7.066   5.683   7.954
 1856WAT     H2 5811   6.994   5.826   7.988
 1857WAT      O 5812   7.190   4.514   5.595
 1857WAT     H1 5813   7.109   4.512   5.654
 1857WAT     H2 5814   7.263   4.565   5.641
 1858WAT      O 5815   4.182   6.017   0.874
 1858WAT     H1 5816   4.130   5.985   0.953
 1858WAT     H2 5817   4.264   6.064   0.905
 1859WAT      O 5818   5.102   0.367   9.678
 1859WAT     H1 5819   5.126   0.432   9.606
 1859WAT     H2 5820   5.157   0.284   9.668
 1860WAT      O 5821   5.904   1.260   1.014
 1860WAT     H1 5822   5.810   1.264   0.981
 1860WAT     H2 5823   5.941   1.169   0.998
 1861WAT      O 5824   7.287   3.905   1.296
 1861WAT     H1 5825   7.230   3.903   1.214
 1861WAT     H2 5826   7.365   3.966   1.281
 1862WAT      O 5827   2.919   1.674   5.426
 1862WAT     H1 5828   2.850   1.712   5.488
 1862WAT     H2 5829   2.924   1.575   5.438
 1863WAT      O 5830   1.385   0.391   6.917
 1863WAT     H1 5831   1.345   0.336   6.843
 1863WAT     H2 5832   1.354   0.355   7.005
 1864WAT      O 5833   2.191   9.376   4.544
 1864WAT     H1 5834   2.209   9.289   4.497
 1864WAT     H2 5835   2.145   9.358   4.631
 1865WAT      O 5836   5.203   9.341   8.018
 1865WAT     H1 5837   5.169   9.427   7.979
 1865WAT     H2 5838   5.140   9.309   8.089
 1866WAT      O 5839   4.316   6.999   9.464
 1866WAT     H1 5840   4.284   7.065   9.531
 1866WAT     H2 5841   4.302   6.906   9.499
 1867WAT      O 5842   7.354   9.039   6.012
 1867WAT     H1 5843   7.329   8.974   6.084
 1867WAT     H2 5844   7.329   9.131   6.040
 1868WAT      O 5845   3.527   1.302   4.062
 1868WAT     H1 5846   3.495   1.256   3.980
 1868WAT     H2 5847   3.625   1.323   4.052
 1869WAT      O 5848   0.120   9.576   2.386
 1869WAT     H1 5849   0.037   9.521   2.378
 1869WAT     H2 5850   0.200   9.517   2.380
 1870WAT      O 5851   1.025   3.037   5.778
 1870WAT     H1 5852   1.058   2.964   5.838
 1870WAT     H2 5853   1.103   3.082   5.735
 1871WAT      O 5854   9.726   6.741   4.414
 1871WAT     H1 5855   9.724   6.693   4.326
 1871WAT     H2 5856   9.723   6.840   4.398
 1872WAT      O 5857   5.661   2.608   3.818
 1872WAT     H1 5858   5.563   2.621   3.826
 1872WAT     H2 5859   5.684   2.583   3.724
 1873WAT      O 5860   6.516   1.272   7.733
 1873WAT     H1 5861   6.430   1.322   7.738
 1873WAT     H2 5862   6.593   1.336   7.726
 1874WAT      O 5863   4.756   4.022   4.370
 1874WAT     H1 5864   4.683   3.958   4.347
 1874WAT     H2 5865   4.768   4.026   4.469
 1875WAT      O 5866   7.120   0.246   3.849
 1875WAT     H1 5867   7.122   0.329   3.793
 1875WAT     H2 5868   7.049   0.254   3.919
 1876WAT      O 5869   4.998   4.845   1.406
 1876WAT     H1 5870   4.991   4.944   1.415
 1876WAT     H2 5871   4.907   4.804   1.412
 1877WAT      O 5872   6.828   0.150   9.107
 1877WAT     H1 5873   6.789   0.060   9.129
 1877WAT     H2 5874   6.829   0.163   9.008
 1878WAT      O 5875   5.420   0.293   0.023
 1878WAT     H1 5876   5.468   0.329  -0.057
 1878WAT     H2 5877   5.478   0.228   0.071
 1879WAT      O 5878   5.135   5.754   8.302
 1879WAT     H1 5879   5.115   5.773   8.398
 1879WAT     H2 5880   5.054   5.772   8.247
 1880WAT      O 5881   1.647   8.379   2.769
 1880WAT     H1 5882   1.609   8.409   2.682
 1880WAT     H2 5883   1.573   8.362   2.834
 1881WAT      O 5884   9.347   1.063   1.277
 1881WAT     H1 5885   9.427   1.118   1.303
 1881WAT     H2 5886   9.329   1.074   1.179
 1882WAT      O 5887   7.276   7.492   1.083
 1882WAT     H1 5888   7.233   7.447   1.005
 1882WAT     H2 5889   7.229   7.578   1.103
 1883WAT      O 5890   3.168   7.287   2.439
 1883WAT     H1 5891   3.131   7.375   2.467
 1883WAT     H2 5892   3.222   7.248   2.514
 1884WAT      O 5893   7.555   2.118   4.351
 1884WAT     H1 5894   7.513   2.055   4.286
 1884WAT     H2 5895   7.655   2.106   4.349
 1885WAT      O 5896   0.097   8.808   2.093
 1885WAT     H1 5897   0.076   8.813   2.191
 1885WAT     H2 5898   0.175   8.867   2.072
 1886WAT      O 5899   7.477   3.223   3.315
 1886WAT     H1 5900   7.504   3.163   3.390
 1886WAT     H2 5901   7.554   3.281   3.288
 1887WAT      O 5902   4.718   7.240   0.157
 1887WAT     H1 5903   4.680   7.329   0.183
 1887WAT     H2 5904   4.794   7.254   0.094
 1888WAT      O 5905   4.052   1.330   1.600
 1888WAT     H1 5906   3.958   1.362   1.597
 1888WAT     H2 5907   4.056   1.241   1.644
 1889WAT      O 5908   2.425   5.222   4.840
 1889WAT     H1 5909   2.454   5.311   4.874
 1889WAT     H2 5910   2.390   5.167   4.915
 1890WAT      O 5911   8.408   9.062   5.315
 1890WAT     H1 5912   8.367   9.123   5.246
 1890WAT     H2 5913   8.337   9.033   5.379
 1891WAT      O 5914   7.551   7.855   8.960
 1891WAT     H1 5915   7.638   7.885   8.998
 1891WAT     H2 5916   7.565   7.777   8.900
 1892WAT      O 5917   4.256   0.364   7.627
 1892WAT     H1 5918   4.266   0.276   7.673
 1892WAT     H2 5919   4.187   0.357   7.555
 1893WAT      O 5920   5.637   5.489   1.837
 1893WAT     H1 5921   5.550   5.447   1.810
 1893WAT     H2 5922   5.711   5.425   1.820
 1894WAT      O 5923   4.682   7.913   1.951
 1894WAT     H1 5924   4.604   7.892   1.893
 1894WAT     H2 5925   4.713   8.007   1.931
 1895WAT      O 5926   3.967   1.152   7.588
 1895WAT     H1 5927   4.018   1.186   7.666
 1895WAT     H2 5928   3.932   1.061   7.608
 1896WAT      O 5929   6.024   2.264   2.412
 1896WAT     H1 5930   6.107   2.241   2.362
 1896WAT     H2 5931   6.048   2.298   2.503
 1897WAT      O 5932   5.476   4.463   9.542
 1897WAT     H1 5933   5.566   4.488   9.577
 1897WAT     H2 5934   5.406   4.520   9.586
 1898WAT      O 5935   4.968   1.826   8.942
 1898WAT     H1 5936   4.974   1.728   8.922
 1898WAT     H2 5937   4.887   1.844   8.998
 1899WAT      O 5938   8.226   0.581   1.338
 1899WAT     H1 5939   8.142   0.617   1.298
 1899WAT     H2 5940   8.207   0.542   1.428
 1900WAT      O 5941   1.862   5.496   5.722
 1900WAT     H1 5942   1.863   5.590   5.689
 1900WAT     H2 5943   1.854   5.496   5.822
 1901WAT      O 5944   4.635   9.811   1.386
 1901WAT     H1 5945   4.640   9.711   1.386
 1901WAT     H2 5946   4.662   9.846   1.297
 1902WAT      O 5947   6.113   5.599   3.724
 1902WAT     H1 5948   6.051   5.655   3.670
 1902WAT     H2 5949   6.154   5.528   3.666
 1903WAT      O 5950   1.799   1.483   8.802
 1903WAT     H1 5951   1.822   1.531   8.717
 1903WAT     H2 5952   1.874   1.422   8.827
 1904WAT      O 5953   2.504   0.409   4.619
 1904WAT     H1 5954   2.431   0.445   4.560
 1904WAT     H2 5955   2.509   0.310   4.609
 1905WAT      O 5956   6.327   7.878   2.427
 1905WAT     H1 5957   6.389   7.948   2.390
 1905WAT     H2 5958   6.368   7.837   2.509
 1906WAT      O 5959   1.878   1.997   2.639
 1906WAT     H1 5960   1.879   2.064   2.713
 1906WAT     H2 5961   1.844   1.909   2.672
 1907WAT      O 5962   9.538   8.400   8.887
 1907WAT     H1 5963   9.464   8.335   8.871
 1907WAT     H2 5964   9.572   8.390   8.981
 1908WAT      O 5965   6.915   2.684   5.852
 1908WAT     H1 5966   6.886   2.771   5.891
 1908WAT     H2 5967   6.970   2.701   5.770
 1909WAT      O 5968   6.477   1.902   1.320
 1909WAT     H1 5969   6.379   1.906   1.299
 1909WAT     H2 5970   6.493   1.935   1.413
 1910WAT      O 5971   6.127   5.320   6.826
 1910WAT     H1 5972   6.064   5.291   6.897
 1910WAT     H2 5973   6.161   5.412   6.847
 1911WAT      O 5974   0.500   7.578   0.601
 1911WAT     H1 5975   0.504   7.663   0.548
 1911WAT     H2 5976   0.593   7.554   0.631
 1912WAT      O 5977   3.742   8.908   7.547
 1912WAT     H1 5978   3.727   8.854   7.464
 1912WAT     H2 5979   3.783   8.996   7.522
 1913WAT      O 5980   9.360   8.324   5.919
 1913WAT     H1 5981   9.427   8.398   5.916
 1913WAT     H2 5982   9.361   8.282   6.009
 1914WAT      O 5983   7.555   6.177   5.672
 1914WAT     H1 5984   7.553   6.241   5.749
 1914WAT     H2 5985   7.472   6.189   5.617
 1915WAT      O 5986   3.695   3.651   4.324
 1915WAT     H1 5987   3.721   3.559   4.356
 1915WAT     H2 5988   3.767   3.687   4.265
 1916WAT      O 5989   4.241   7.652   1.721
 1916WAT     H1 5990   4.151   7.645   1.678
 1916WAT     H2 5991   4.307   7.599   1.668
 1917WAT      O 5992   4.716   5.075   6.342
 1917WAT     H1 5993   4.781   5.145   6.312
 1917WAT     H2 5994   4.657   5.050   6.265
 1918WAT      O 5995   5.560   2.151   1.342
 1918WAT     H1 5996   5.553   2.107   1.432
 1918WAT     H2 5997   5.476   2.202   1.323
 1919WAT      O 5998   2.505   5.829   1.051
 1919WAT     H1 5999   2.541   5.922   1.046
 1919WAT     H2 6000   2.551   5.771   0.983
 1920WAT      O 6001   1.328   6.538   3.474
 1920WAT     H1 6002   1.240   6.501   3.444
 1920WAT     H2 6003   1.325   6.638   3.473
 1921WAT      O 6004   1.590   2.505   6.954
 1921WAT     H1 6005   1.541   2.528   7.039
 1921WAT     H2 6006   1.689   2.511   6.970
 1922WAT      O 6007   7.070   6.207   9.482
 1922WAT     H1 6008   7.122   6.196   9.397
 1922WAT     H2 6009   6.982   6.250   9.463
 1923WAT      O 6010   9.469   7.972   0.774
 1923WAT     H1 6011   9.488   7.874   0.777
 1923WAT     H2 6012   9.488   8.007   0.683
 1924WAT      O 6013   9.495   9.030   7.121
 1924WAT     H1 6014   9.528   9.107   7.176
 1924WAT     H2 6015   9.566   9.002   7.056
 1925WAT      O 6016   3.609   8.252   8.131
 1925WAT     H1 6017   3.556   8.169   8.150
 1925WAT     H2 6018   3.550   8.319   8.087
 1926WAT      O 6019   6.604   8.441   8.415
 1926WAT     H1 6020   6.652   8.359   8.385
 1926WAT     H2 6021   6.610   8.449   8.515
 1927WAT      O 6022   2.373   8.505   1.248
 1927WAT     H1 6023   2.450   8.568   1.237
 1927WAT     H2 6024   2.403   8.424   1.298
 1928WAT      O 6025   8.601   9.703   8.250
 1928WAT     H1 6026   8.672   9.721   8.182
 1928WAT     H2 6027   8.631   9.736   8.339
 1929WAT      O 6028   2.156   8.881   3.773
 1929WAT     H1 6029   2.098   8.835   3.841
 1929WAT     H2 6030   2.098   8.927   3.706
 1930WAT      O 6031   6.931   8.461   9.785
 1930WAT     H1 6032   6.928   8.496   9.879
 1930WAT     H2 6033   6.881   8.374   9.781
 1931WAT      O 6034   3.685   5.919   5.088
 1931WAT     H1 6035   3.708   6.009   5.125
 1931WAT     H2 6036   3.586   5.915   5.071
 1932WAT      O 6037   5.614   6.089   3.772
 1932WAT     H1 6038   5.674   6.167   3.756
 1932WAT     H2 6039   5.519   6.119   3.776
 1933WAT      O 6040   3.574   0.669   4.972
 1933WAT     H1 6041   3.480   0.678   4.939
 1933WAT     H2 6042   3.637   0.686   4.896
 1934WAT      O 6043   3.425   6.500   3.006
 1934WAT     H1 6044   3.507   6.450   3.036
 1934WAT     H2 6045   3.449   6.561   2.930
 1935WAT      O 6046   8.699   7.809   8.564
 1935WAT     H1 6047   8.746   7.803   8.476
 1935WAT     H2 6048   8.637   7.887   8.563
 1936WAT      O 6049   3.648   8.475   0.384
 1936WAT     H1 6050   3.733   8.506   0.427
 1936WAT     H2 6051   3.602   8.552   0.340
 1937WAT      O 6052   3.527   4.668   1.953
 1937WAT     H1 6053   3.603   4.686   1.890
 1937WAT     H2 6054   3.462   4.606   1.910
 1938WAT      O 6055   2.341   5.217   9.087
 1938WAT     H1 6056   2.419   5.231   9.026
 1938WAT     H2 6057   2.281   5.147   9.048
 1939WAT      O 6058   8.844   3.332   1.715
 1939WAT     H1 6059   8.883   3.280   1.638
 1939WAT     H2 6060   8.767   3.282   1.753
 1940WAT      O 6061   4.386   1.333   6.451
 1940WAT     H1 6062   4.301   1.351   6.501
 1940WAT     H2 6063   4.462   1.377   6.498
 1941WAT      O 6064   1.222   4.784   8.286
 1941WAT     H1 6065   1.165   4.790   8.204
 1941WAT     H2 6066   1.291   4.857   8.284
 1942WAT      O 6067   9.368   9.264   2.773
 1942WAT     H1 6068   9.417   9.318   2.842
 1942WAT     H2 6069   9.379   9.307   2.683
 1943WAT      O 6070   6.864   4.908   6.839
 1943WAT     H1 6071   6.850   4.986   6.778
 1943WAT     H2 6072   6.879   4.825   6.783
 1944WAT      O 6073   0.967   4.772   5.050
 1944WAT     H1 6074   0.975   4.799   5.146
 1944WAT     H2 6075   1.006   4.681   5.038
 1945WAT      O 6076   5.947   3.257   0.189
 1945WAT     H1 6077   5.893   3.189   0.240
 1945WAT     H2 6078   5.977   3.329   0.252
 1946WAT      O 6079   1.786   0.492   8.865
 1946WAT     H1 6080   1.697   0.450   8.845
 1946WAT     H2 6081   1.783   0.589   8.841
 1947WAT      O 6082   4.872   5.174   0.170
 1947WAT     H1 6083   4.785   5.140   0.204
 1947WAT     H2 6084   4.930   5.202   0.247
 1948WAT      O 6085   1.167   9.279   0.686
 1948WAT     H1 6086   1.166   9.183   0.657
 1948WAT     H2 6087   1.077   9.319   0.670
 1949WAT      O 6088   1.556   5.528   9.233
 1949WAT     H1 6089   1.481   5.576   9.278
 1949WAT     H2 6090   1.528   5.435   9.209
 1950WAT      O 6091   3.979   9.140   7.864
 1950WAT     H1 6092   3.906   9.208   7.854
 1950WAT     H2 6093   4.030   9.134   7.778
 1951WAT      O 6094   6.549   7.934   5.210
 1951WAT     H1 6095   6.493   7.862   5.170
 1951WAT     H2 6096   6.565   7.915   5.307
 1952WAT      O 6097   4.173   6.641   2.697
 1952WAT     H1 6098   4.094   6.605   2.647
 1952WAT     H2 6099   4.144   6.720   2.751
 1953WAT      O 6100   8.603   3.829   6.595
 1953WAT     H1 6101   8.662   3.833   6.515
 1953WAT     H2 6102   8.652   3.784   6.670
 1954WAT      O 6103   6.532   1.059   5.107
 1954WAT     H1 6104   6.491   0.968   5.113
 1954WAT     H2 6105   6.581   1.080   5.191
 1955WAT      O 6106   6.778   1.232   0.003
 1955WAT     H1 6107   6.810   1.160   0.065
 1955WAT     H2 6108   6.702   1.281   0.045
 1956WAT      O 6109   4.532   1.587   0.469
 1956WAT     H1 6110   4.559   1.674   0.428
 1956WAT     H2 6111   4.471   1.538   0.406
 1957WAT      O 6112   4.599   6.579   3.678
 1957WAT     H1 6113   4.649   6.493   3.682
 1957WAT     H2 6114   4.591   6.618   3.770
 1958WAT      O 6115   8.290   0.637   9.588
 1958WAT     H1 6116   8.218   0.634   9.658
 1958WAT     H2 6117   8.346   0.555   9.594
 1959WAT      O 6118   6.088   7.966   3.742
 1959WAT     H1 6119   6.115   7.910   3.820
 1959WAT     H2 6120   5.997   8.004   3.758
 1960WAT      O 6121   3.940   8.505   2.199
 1960WAT     H1 6122   3.852   8.553   2.198
 1960WAT     H2 6123   3.946   8.448   2.281
 1961WAT      O 6124   3.226   7.442   5.713
 1961WAT     H1 6125   3.297   7.490   5.765
 1961WAT     H2 6126   3.163   7.508   5.673
 1962WAT      O 6127   4.284   0.837   7.519
 1962WAT     H1 6128   4.224   0.785   7.581
 1962WAT     H2 6129   4.284   0.933   7.546
 1963WAT      O 6130   5.622   2.195   3.711
 1963WAT     H1 6131   5.690   2.269   3.709
 1963WAT     H2 6132   5.557   2.207   3.636
 1964WAT      O 6133   4.762   9.811   5.691
 1964WAT     H1 6134   4.813   9.738   5.645
 1964WAT     H2 6135   4.716   9.774   5.771
 1965WAT      O 6136   6.480   3.694   1.823
 1965WAT     H1 6137   6.479   3.680   1.724
 1965WAT     H2 6138   6.541   3.626   1.866
 1966WAT      O 6139   9.749   0.937   1.435
 1966WAT     H1 6140   9.685   0.863   1.455
 1966WAT     H2 6141   9.841   0.899   1.426
 1967WAT      O 6142   8.692   4.909   7.317
 1967WAT     H1 6143   8.729   4.816   7.318
 1967WAT     H2 6144   8.619   4.915   7.249
 1968WAT      O 6145   3.563   0.535   0.714
 1968WAT     H1 6146   3.648   0.501   0.753
 1968WAT     H2 6147   3.574   0.630   0.686
 1969WAT      O 6148   7.911   8.584   1.306
 1969WAT     H1 6149   7.907   8.664   1.247
 1969WAT     H2 6150   7.985   8.524   1.276
 1970WAT      O 6151   5.458   3.399   8.193
 1970WAT     H1 6152   5.410   3.392   8.106
 1970WAT     H2 6153   5.551   3.363   8.183
 1971WAT      O 6154   0.461   3.548   3.777
 1971WAT     H1 6155   0.367   3.580   3.765
 1971WAT     H2 6156   0.471   3.506   3.868
 1972WAT      O 6157   5.086   7.915   3.534
 1972WAT     H1 6158   5.060   7.822   3.562
 1972WAT     H2 6159   5.148   7.910   3.456
 1973WAT      O 6160   0.751   1.930   9.110
 1973WAT     H1 6161   0.816   1.922   9.034
 1973WAT     H2 6162   0.761   2.019   9.153
 1974WAT      O 6163   2.720   6.345   2.685
 1974WAT     H1 6164   2.676   6.435   2.676
 1974WAT     H2 6165   2.806   6.355   2.735
 1975WAT      O 6166   8.944   1.070   9.329
 1975WAT     H1 6167   8.992   1.060   9.242
 1975WAT     H2 6168   8.966   0.993   9.388
 1976WAT      O 6169   4.149   7.796   3.898
 1976WAT     H1 6170   4.130   7.882   3.850
 1976WAT     H2 6171   4.076   7.730   3.877
 1977WAT      O 6172   4.422   2.960   2.452
 1977WAT     H1 6173   4.364   2.879   2.448
 1977WAT     H2 6174   4.377   3.035   2.404
 1978WAT      O 6175   4.348   7.768   6.583
 1978WAT     H1 6176   4.396   7.719   6.510
 1978WAT     H2 6177   4.404   7.770   6.665
 1979WAT      O 6178   3.340   9.207   7.602
 1979WAT     H1 6179   3.359   9.240   7.510
 1979WAT     H2 6180   3.243   9.185   7.610
 1980WAT      O 6181   4.976   4.313   9.683
 1980WAT     H1 6182   5.056   4.253   9.684
 1980WAT     H2 6183   4.984   4.378   9.607
 1981WAT      O 6184   9.646   8.896   4.011
 1981WAT     H1 6185   9.565   8.954   4.020
 1981WAT     H2 6186   9.644   8.825   4.082
 1982WAT      O 6187   0.444   0.271   2.426
 1982WAT     H1 6188   0.452   0.172   2.441
 1982WAT     H2 6189   0.444   0.290   2.328
 1983WAT      O 6190   3.942   0.752   4.516
 1983WAT     H1 6191   3.913   0.833   4.466
 1983WAT     H2 6192   4.039   0.734   4.497
 1984WAT      O 6193   0.267   8.472   7.530
 1984WAT     H1 6194   0.239   8.567   7.543
 1984WAT     H2 6195   0.200   8.426   7.472
 1985WAT      O 6196   2.920   2.992   2.493
 1985WAT     H1 6197   2.918   2.917   2.559
 1985WAT     H2 6198   2.996   2.978   2.429
 1986WAT      O 6199   8.640   5.735   6.770
 1986WAT     H1 6200   8.686   5.670   6.830
 1986WAT     H2 6201   8.566   5.688   6.722
 1987WAT      O 6202   3.057   9.334   2.996
 1987WAT     H1 6203   3.005   9.384   3.065
 1987WAT     H2 6204   3.137   9.292   3.039
 1988WAT      O 6205   3.819   1.393   4.405
 1988WAT     H1 6206   3.879   1.317   4.429
 1988WAT     H2 6207   3.871   1.478   4.402
 1989WAT      O 6208   6.924   9.629   5.480
 1989WAT     H1 6209   6.983   9.684   5.422
 1989WAT     H2 6210   6.830   9.636   5.449
 1990WAT      O 6211   5.199   1.202   8.994
 1990WAT     H1 6212   5.168   1.293   9.019
 1990WAT     H2 6213   5.284   1.208   8.942
 1991WAT      O 6214   8.686   7.517   9.483
 1991WAT     H1 6215   8.679   7.441   9.548
 1991WAT     H2 6216   8.598   7.528   9.437
 1992WAT      O 6217   2.838   1.412   6.561
 1992WAT     H1 6218   2.935   1.393   6.550
 1992WAT     H2 6219   2.813   1.405   6.658
 1993WAT      O 6220   7.076   6.265   2.724
 1993WAT     H1 6221   7.050   6.182   2.773
 1993WAT     H2 6222   7.117   6.330   2.789
 1994WAT      O 6223   3.190   0.125   7.815
 1994WAT     H1 6224   3.098   0.087   7.804
 1994WAT     H2 6225   3.222   0.107   7.908
 1995WAT      O 6226   6.748   5.842   0.990
 1995WAT     H1 6227   6.768   5.750   0.956
 1995WAT     H2 6228   6.652   5.847   1.018
 1996WAT      O 6229   9.858   3.636   7.055
 1996WAT     H1 6230   9.941   3.618   7.109
 1996WAT     H2 6231   9.816   3.549   7.029
 1997WAT      O 6232   5.726   2.942   0.201
 1997WAT     H1 6233   5.687   2.889   0.125
 1997WAT     H2 6234   5.806   2.895   0.237
 1998WAT      O 6235   0.423   0.136   5.208
 1998WAT     H1 6236   0.328   0.108   5.222
 1998WAT     H2 6237   0.472   0.129   5.295
 1999WAT      O 6238   3.175   7.063   6.406
 1999WAT     H1 6239   3.237   7.045   6.329
 1999WAT     H2 6240   3.223   7.114   6.477
 2000WAT      O 6241   2.981   0.675   3.187
 2000WAT     H1 6242   2.924   0.656   3.107
 2000WAT     H2 6243   3.013   0.770   3.184
 2001WAT      O 6244   2.137   0.681   5.246
 2001WAT     H1 6245   2.166   0.753   5.184
 2001WAT     H2 6246   2.041   0.657   5.227
 2002WAT      O 6247   5.720   9.841   3.048
 2002WAT     H1 6248   5.692   9.803   3.136
 2002WAT     H2 6249   5.753   9.767   2.989
 2003WAT      O 6250   3.934   2.833   0.738
 2003WAT     H1 6251   3.915   2.924   0.700
 2003WAT     H2 6252   3.853   2.801   0.788
 2004WAT      O 6253   8.077   3.994   6.869
 2004WAT     H1 6254   8.171   4.005   6.901
 2004WAT     H2 6255   8.054   4.069   6.807
 2005WAT      O 6256   0.898   3.548   2.383
 2005WAT     H1 6257   0.808   3.589   2.369
 2005WAT     H2 6258   0.948   3.545   2.297
 2006WAT      O 6259   5.705   9.332   4.059
 2006WAT     H1 6260   5.698   9.430   4.076
 2006WAT     H2 6261   5.764   9.316   3.980
 2007WAT      O 6262   0.197   8.614   9.222
 2007WAT     H1 6263   0.186   8.713   9.229
 2007WAT     H2 6264   0.117   8.568   9.260
 2008WAT      O 6265   1.699   0.615   7.588
 2008WAT     H1 6266   1.769   0.581   7.525
 2008WAT     H2 6267   1.731   0.701   7.629
 2009WAT      O 6268   7.273   7.411   5.201
 2009WAT     H1 6269   7.260   7.476   5.127
 2009WAT     H2 6270   7.364   7.422   5.240
 2010WAT      O 6271   6.714   6.482   6.095
 2010WAT     H1 6272   6.770   6.411   6.137
 2010WAT     H2 6273   6.617   6.466   6.117
 2011WAT      O 6274   9.816   3.249   7.134
 2011WAT     H1 6275   9.816   3.243   7.034
 2011WAT     H2 6276   9.907   3.226   7.168
 2012WAT      O 6277   2.673   9.745   2.296
 2012WAT     H1 6278   2.626   9.831   2.321
 2012WAT     H2 6279   2.609   9.687   2.245
 2013WAT      O 6280   8.862   0.735   1.990
 2013WAT     H1 6281   8.906   0.771   2.072
 2013WAT     H2 6282   8.833   0.811   1.931
 2014WAT      O 6283   3.349   5.838   1.841
 2014WAT     H1 6284   3.278   5.769   1.826
 2014WAT     H2 6285   3.306   5.927   1.856
 2015WAT      O 6286   2.100   5.149   5.744
 2015WAT     H1 6287   2.024   5.116   5.687
 2015WAT     H2 6288   2.116   5.245   5.725
 2016WAT      O 6289   9.531   9.539   4.633
 2016WAT     H1 6290   9.437   9.531   4.600
 2016WAT     H2 6291   9.543   9.481   4.713
 2017WAT      O 6292   5.812   3.976   1.498
 2017WAT     H1 6293   5.905   4.007   1.476
 2017WAT     H2 6294   5.746   4.029   1.446
 2018WAT      O 6295   3.427   8.223   1.201
 2018WAT     H1 6296   3.398   8.235   1.296
 2018WAT     H2 6297   3.364   8.160   1.155
 2019WAT      O 6298   5.763   4.164   5.594
 2019WAT     H1 6299   5.673   4.121   5.591
 2019WAT     H2 6300   5.834   4.094   5.604
 2020WAT      O 6301   9.093   0.927   6.108
 2020WAT     H1 6302   9.070   0.836   6.142
 2020WAT     H2 6303   9.192   0.939   6.111
 2021WAT      O 6304   0.259   5.996   8.434
 2021WAT     H1 6305   0.315   5.984   8.516
 2021WAT     H2 6306   0.251   5.908   8.386
 2022WAT      O 6307   2.541   8.733   0.181
 2022WAT     H1 6308   2.575   8.824   0.205
 2022WAT     H2 6309   2.456   8.742   0.129
 2023WAT      O 6310   2.785   0.253   8.121
 2023WAT     H1 6311   2.735   0.276   8.204
 2023WAT     H2 6312   2.755   0.313   8.047
 2024WAT      O 6313   5.502   1.341   0.193
 2024WAT     H1 6314   5.581   1.280   0.202
 2024WAT     H2 6315   5.429   1.311   0.255
 2025WAT      O 6316   4.251   7.453   4.653
 2025WAT     H1 6317   4.306   7.495   4.726
 2025WAT     H2 6318   4.201   7.524   4.603
 2026WAT      O 6319   3.945   4.140   3.466
 2026WAT     H1 6320   3.946   4.040   3.475
 2026WAT     H2 6321   3.850   4.173   3.473
 2027WAT      O 6322   3.471   7.850   8.688
 2027WAT     H1 6323   3.493   7.848   8.785
 2027WAT     H2 6324   3.555   7.834   8.635
 2028WAT      O 6325   1.847   9.692   3.329
 2028WAT     H1 6326   1.830   9.601   3.367
 2028WAT     H2 6327   1.818   9.762   3.395
 2029WAT      O 6328   0.751   2.869   8.819
 2029WAT     H1 6329   0.843   2.871   8.858
 2029WAT     H2 6330   0.757   2.885   8.720
 2030WAT      O 6331   0.947   8.623   7.738
 2030WAT     H1 6332   1.031   8.571   7.752
 2030WAT     H2 6333   0.968   8.720   7.727
 2031WAT      O 6334   5.456   3.664   1.854
 2031WAT     H1 6335   5.441   3.745   1.798
 2031WAT     H2 6336   5.497   3.691   1.942
 2032WAT      O 6337   1.159   1.241   0.558
 2032WAT     H1 6338   1.144   1.330   0.515
 2032WAT     H2 6339   1.214   1.253   0.641
 2033WAT      O 6340   8.849   2.065   1.147
 2033WAT     H1 6341   8.871   1.973   1.180
 2033WAT     H2 6342   8.932   2.109   1.113
 2034WAT      O 6343   9.805   3.891   8.852
 2034WAT     H1 6344   9.827   3.805   8.898
 2034WAT     H2 6345   9.826   3.883   8.754
 2035WAT      O 6346   5.200   5.528   6.735
 2035WAT     H1 6347   5.239   5.555   6.823
 2035WAT     H2 6348   5.248   5.575   6.661
 2036WAT      O 6349   5.414   8.876   3.325
 2036WAT     H1 6350   5.492   8.902   3.381
 2036WAT     H2 6351   5.428   8.909   3.231
 2037WAT      O 6352   5.145   5.912   9.011
 2037WAT     H1 6353   5.143   5.875   9.104
 2037WAT     H2 6354   5.094   5.998   9.008
 2038WAT      O 6355   0.039   0.404   2.589
 2038WAT     H1 6356   0.015   0.488   2.539
 2038WAT     H2 6357   0.000   0.409   2.682
 2039WAT      O 6358   4.680   8.630   2.848
 2039WAT     H1 6359   4.703   8.724   2.822
 2039WAT     H2 6360   4.668   8.626   2.948
 2040WAT      O 6361   8.707   6.919   7.657
 2040WAT     H1 6362   8.732   6.831   7.696
 2040WAT     H2 6363   8.673   6.979   7.730
 2041WAT      O 6364   0.382   4.024   1.867
 2041WAT     H1 6365   0.393   4.123   1.875
 2041WAT     H2 6366   0.286   4.000   1.882
 2042WAT      O 6367   0.465   1.174   4.392
 2042WAT     H1 6368   0.529   1.209   4.323
 2042WAT     H2 6369   0.389   1.129   4.345
 2043WAT      O 6370   7.110   2.308   7.770
 2043WAT     H1 6371   7.021   2.342   7.801
 2043WAT     H2 6372   7.112   2.308   7.670
 2044WAT      O 6373   7.294   6.867   0.331
 2044WAT     H1 6374   7.271   6.786   0.383
 2044WAT     H2 6375   7.321   6.941   0.393
 2045WAT      O 6376   3.789   5.436   6.531
 2045WAT     H1 6377   3.764   5.506   6.464
 2045WAT     H2 6378   3.844   5.365   6.487
 2046WAT      O 6379   8.779   2.291   7.872
 2046WAT     H1 6380   8.707   2.245   7.820
 2046WAT     H2 6381   8.780   2.257   7.966
 2047WAT      O 6382   1.976   7.478   6.314
 2047WAT     H1 6383   1.910   7.403   6.305
 2047WAT     H2 6384   2.028   7.467   6.399
 2048WAT      O 6385   5.654   6.799   1.172
 2048WAT     H1 6386   5.689   6.708   1.154
 2048WAT     H2 6387   5.637   6.846   1.086
 2049WAT      O 6388   7.585   9.300   6.453
 2049WAT     H1 6389   7.661   9.264   6.398
 2049WAT     H2 6390   7.615   9.308   6.548
 2050WAT      O 6391   4.977   5.426   7.978
 2050WAT     H1 6392   4.995   5.425   7.879
 2050WAT     H2 6393   5.063   5.435   8.027
 2051WAT      O 6394   8.314   1.476   7.814
 2051WAT     H1 6395   8.305   1.452   7.718
 2051WAT     H2 6396   8.385   1.546   7.825
 2052WAT      O 6397   1.371   2.516   7.232
 2052WAT     H1 6398   1.347   2.491   7.326
 2052WAT     H2 6399   1.288   2.539   7.181
 2053WAT      O 6400   8.563   3.213   2.084
 2053WAT     H1 6401   8.467   3.213   2.058
 2053WAT     H2 6402   8.574   3.257   2.173
 2054WAT      O 6403   4.570   6.427   6.563
 2054WAT     H1 6404   4.643   6.382   6.513
 2054WAT     H2 6405   4.484   6.379   6.548
 2055WAT      O 6406   8.572   7.161   8.029
 2055WAT     H1 6407   8.478   7.165   8.064
 2055WAT     H2 6408   8.586   7.236   7.964
 2056WAT      O 6409   4.272   8.800   2.106
 2056WAT     H1 6410   4.197   8.805   2.173
 2056WAT     H2 6411   4.242   8.749   2.026
 2057WAT      O 6412   3.345   7.004   2.042
 2057WAT     H1 6413   3.443   6.999   2.057
 2057WAT     H2 6414   3.298   7.003   2.131
 2058WAT      O 6415   7.169   6.040   5.981
 2058WAT     H1 6416   7.227   6.084   6.050
 2058WAT     H2 6417   7.211   6.050   5.891
 2059WAT      O 6418   6.678   0.987   2.376
 2059WAT     H1 6419   6.709   0.892   2.375
 2059WAT     H2 6420   6.735   1.040   2.439
 2060WAT      O 6421   3.968   1.722   4.101
 2060WAT     H1 6422   3.880   1.679   4.080
 2060WAT     H2 6423   4.019   1.737   4.016
 2061WAT      O 6424   8.906   9.513   4.830
 2061WAT     H1 6425   8.952   9.531   4.916
 2061WAT     H2 6426   8.946   9.432   4.786
 2062WAT      O 6427   1.458   8.501   4.808
 2062WAT     H1 6428   1.360   8.484   4.798
 2062WAT     H2 6429   1.507   8.451   4.736
 2063WAT      O 6430   3.841   0.733   4.756
 2063WAT     H1 6431   3.787   0.812   4.785
 2063WAT     H2 6432   3.875   0.749   4.663
 2064WAT      O 6433   0.510   0.576   6.021
 2064WAT     H1 6434   0.500   0.477   6.016
 2064WAT     H2 6435   0.586   0.606   5.964
 2065WAT      O 6436   3.915   3.879   3.766
 2065WAT     H1 6437   3.881   3.811   3.830
 2065WAT     H2 6438   3.843   3.945   3.746
 2066WAT      O 6439   0.602   8.835   0.465
 2066WAT     H1 6440   0.653   8.918   0.488
 2066WAT     H2 6441   0.533   8.817   0.535
 2067WAT      O 6442   3.408   7.926   5.492
 2067WAT     H1 6443   3.459   7.844   5.518
 2067WAT     H2 6444   3.438   8.003   5.549
 2068WAT      O 6445   9.323   6.371   8.077
 2068WAT     H1 6446   9.252   6.336   8.137
 2068WAT     H2 6447   9.293   6.456   8.035
 2069WAT      O 6448   2.771   2.757   0.872
 2069WAT     H1 6449   2.713   2.676   0.868
 2069WAT     H2 6450   2.851   2.737   0.930
 2070WAT      O 6451   2.192   3.537   8.074
 2070WAT     H1 6452   2.279   3.490   8.091
 2070WAT     H2 6453   2.160   3.578   8.159
 2071WAT      O 6454   4.807   1.318   3.507
 2071WAT     H1 6455   4.711   1.292   3.515
 2071WAT     H2 6456   4.864   1.251   3.556
 2072WAT      O 6457   1.076   8.893   4.233
 2072WAT     H1 6458   1.168   8.853   4.228
 2072WAT     H2 6459   1.008   8.823   4.212
 2073WAT      O 6460   3.965   0.608   6.872
 2073WAT     H1 6461   4.065   0.611   6.883
 2073WAT     H2 6462   3.943   0.603   6.775
 2074WAT      O 6463   0.215   6.594   7.640
 2074WAT     H1 6464   0.186   6.517   7.696
 2074WAT     H2 6465   0.298   6.570   7.590
 2075WAT      O 6466   0.168   8.716   7.558
 2075WAT     H1 6467   0.097   8.686   7.623
 2075WAT     H2 6468   0.139   8.801   7.515
 2076WAT      O 6469   1.156   2.767   3.133
 2076WAT     H1 6470   1.071   2.759   3.081
 2076WAT     H2 6471   1.231   2.787   3.070
 2077WAT      O 6472   3.501   4.550   7.892
 2077WAT     H1 6473   3.579   4.513   7.944
 2077WAT     H2 6474   3.536   4.608   7.818
 2078WAT      O 6475   9.403   0.528   0.068
 2078WAT     H1 6476   9.463   0.553   0.144
 2078WAT     H2 6477   9.320   0.486   0.103
 2079WAT      O 6478   9.595   2.548   9.866
 2079WAT     H1 6479   9.655   2.626   9.882
 2079WAT     H2 6480   9.635   2.489   9.795
 2080WAT      O 6481   2.287   3.610   9.555
 2080WAT     H1 6482   2.235   3.551   9.494
 2080WAT     H2 6483   2.355   3.662   9.502
 2081WAT      O 6484   9.296   5.117   2.669
 2081WAT     H1 6485   9.311   5.158   2.579
 2081WAT     H2 6486   9.198   5.110   2.687
 2082WAT      O 6487   2.126   9.680   3.419
 2082WAT     H1 6488   2.177   9.758   3.383
 2082WAT     H2 6489   2.029   9.690   3.396
 2083WAT      O 6490   1.908   4.290   8.324
 2083WAT     H1 6491   1.809   4.304   8.312
 2083WAT     H2 6492   1.951   4.276   8.234
 2084WAT      O 6493   8.702   7.486   0.394
 2084WAT     H1 6494   8.781   7.519   0.446
 2084WAT     H2 6495   8.696   7.387   0.402
 2085WAT      O 6496   8.220   0.950   7.112
 2085WAT     H1 6497   8.132   0.927   7.071
 2085WAT     H2 6498   8.205   0.989   7.203
 2086WAT      O 6499   5.356   0.276   1.162
 2086WAT     H1 6500   5.278   0.222   1.131
 2086WAT     H2 6501   5.362   0.272   1.262
 2087WAT      O 6502   3.189   1.538   4.161
 2087WAT     H1 6503   3.125   1.589   4.104
 2087WAT     H2 6504   3.163   1.442   4.163
 2088WAT      O 6505   0.368   0.609   3.017
 2088WAT     H1 6506   0.340   0.650   3.104
 2088WAT     H2 6507   0.323   0.520   3.006
 2089WAT      O 6508   7.674   3.917   0.765
 2089WAT     H1 6509   7.583   3.959   0.758
 2089WAT     H2 6510   7.667   3.831   0.815
 2090WAT      O 6511   4.695   0.718   0.263
 2090WAT     H1 6512   4.623   0.723   0.194
 2090WAT     H2 6513   4.757   0.643   0.242
 2091WAT      O 6514   7.447   3.267   7.740
 2091WAT     H1 6515   7.491   3.217   7.665
 2091WAT     H2 6516   7.352   3.286   7.716
 2092WAT      O 6517   9.594   3.431   7.220
 2092WAT     H1 6518   9.688   3.432   7.187
 2092WAT     H2 6519   9.592   3.454   7.317
 2093WAT      O 6520   3.788   3.230   2.174
 2093WAT     H1 6521   3.847   3.310   2.190
 2093WAT     H2 6522   3.796   3.202   2.079
 2094WAT      O 6523   5.797   5.436   0.246
 2094WAT     H1 6524   5.728   5.412   0.178
 2094WAT     H2 6525   5.752   5.454   0.334
 2095WAT      O 6526   1.171   6.104   5.751
 2095WAT     H1 6527   1.183   6.119   5.849
 2095WAT     H2 6528   1.223   6.023   5.724
 2096WAT      O 6529   1.395   1.347   7.754
 2096WAT     H1 6530   1.482   1.388   7.781
 2096WAT     H2 6531   1.387   1.347   7.655
 2097WAT      O 6532   6.488   8.064   2.108
 2097WAT     H1 6533   6.518   8.036   2.199
 2097WAT     H2 6534   6.470   7.983   2.052
 2098WAT      O 6535   9.670   9.437   2.014
 2098WAT     H1 6536   9.633   9.386   1.936
 2098WAT     H2 6537   9.671   9.534   1.993
 2099WAT      O 6538   5.332   7.077   9.349
 2099WAT     H1 6539   5.293   6.990   9.379
 2099WAT     H2 6540   5.274   7.152   9.381
 2100WAT      O 6541   6.729   1.876   2.069
 2100WAT     H1 6542   6.814   1.850   2.023
 2100WAT     H2 6543   6.654   1.877   2.003
 2101WAT      O 6544   7.577   5.392   4.180
 2101WAT     H1 6545   7.513   5.464   4.153
 2101WAT     H2 6546   7.586   5.326   4.106
 2102WAT      O 6547   2.090   2.780   8.082
 2102WAT     H1 6548   2.005   2.817   8.118
 2102WAT     H2 6549   2.082   2.681   8.070
 2103WAT      O 6550   0.728   5.392   1.866
 2103WAT     H1 6551   0.642   5.371   1.913
 2103WAT     H2 6552   0.780   5.458   1.919
 2104WAT      O 6553   9.630   9.310   3.008
 2104WAT     H1 6554   9.575   9.393   3.016
 2104WAT     H2 6555   9.677   9.310   2.919
 2105WAT      O 6556   5.447   3.726   0.790
 2105WAT     H1 6557   5.512   3.655   0.763
 2105WAT     H2 6558   5.392   3.753   0.711
 2106WAT      O 6559   4.153   4.023   8.867
 2106WAT     H1 6560   4.146   4.006   8.769
 2106WAT     H2 6561   4.166   4.121   8.883
 2107WAT      O 6562   3.452   2.020   1.988
 2107WAT     H1 6563   3.368   1.976   2.019
 2107WAT     H2 6564   3.430   2.108   1.945
 2108WAT      O 6565   9.788   8.451   4.536
 2108WAT     H1 6566   9.699   8.410   4.518
 2108WAT     H2 6567   9.801   8.530   4.476
 2109WAT      O 6568   9.299   5.227   9.831
 2109WAT     H1 6569   9.261   5.208   9.741
 2109WAT     H2 6570   9.225   5.230   9.898
 2110WAT      O 6571   4.599   4.689   2.944
 2110WAT     H1 6572   4.635   4.598   2.959
 2110WAT     H2 6573   4.621   4.747   3.023
 2111WAT      O 6574   1.947   9.599   6.946
 2111WAT     H1 6575   2.006   9.673   6.913
 2111WAT     H2 6576   1.875   9.582   6.879
 2112WAT      O 6577   5.829   1.912   3.549
 2112WAT     H1 6578   5.919   1.934   3.586
 2112WAT     H2 6579   5.788   1.995   3.509
 2113WAT      O 6580   1.586   4.017   4.269
 2113WAT     H1 6581   1.674   4.049   4.234
 2113WAT     H2 6582   1.530   3.984   4.194
 2114WAT      O 6583   9.531   2.590   0.229
 2114WAT     H1 6584   9.540   2.530   0.150
 2114WAT     H2 6585   9.515   2.536   0.311
 2115WAT      O 6586   1.531   5.523   2.073
 2115WAT     H1 6587   1.456   5.562   2.127
 2115WAT     H2 6588   1.503   5.516   1.977
 2116WAT      O 6589   4.486   9.597   3.062
 2116WAT     H1 6590   4.396   9.560   3.039
 2116WAT     H2 6591   4.532   9.627   2.979
 2117WAT      O 6592   7.329   5.017   2.685
 2117WAT     H1 6593   7.370   4.963   2.611
 2117WAT     H2 6594   7.380   5.000   2.770
 2118WAT      O 6595   5.827   0.768   8.744
 2118WAT     H1 6596   5.759   0.699   8.768
 2118WAT     H2 6597   5.806   0.854   8.792
 2119WAT      O 6598   7.929   9.322   8.912
 2119WAT     H1 6599   7.870   9.322   8.831
 2119WAT     H2 6600   8.001   9.390   8.900
 2120WAT      O 6601   2.987   3.385   2.657
 2120WAT     H1 6602   2.888   3.393   2.671
 2120WAT     H2 6603   3.017   3.293   2.681
 2121WAT      O 6604   2.699   0.400   5.849
 2121WAT     H1 6605   2.730   0.487   5.888
 2121WAT     H2 6606   2.708   0.328   5.917
 2122WAT      O 6607   7.520   1.007   9.488
 2122WAT     H1 6608   7.533   0.910   9.512
 2122WAT     H2 6609   7.598   1.037   9.432
 2123WAT      O 6610   0.319   3.067   9.111
 2123WAT     H1 6611   0.329   3.144   9.174
 2123WAT     H2 6612   0.407   3.048   9.067
 2124WAT      O 6613   3.965   6.306   8.573
 2124WAT     H1 6614   3.896   6.375   8.595
 2124WAT     H2 6615   3.934   6.252   8.495
 2125WAT      O 6616   7.917   2.323   1.221
 2125WAT     H1 6617   7.913   2.398   1.154
 2125WAT     H2 6618   7.929   2.236   1.173
 2126WAT      O 6619   1.396   7.194   7.827
 2126WAT     H1 6620   1.491   7.211   7.853
 2126WAT     H2 6621   1.384   7.211   7.729
 2127WAT      O 6622   2.737   5.518   1.648
 2127WAT     H1 6623   2.671   5.483   1.715
 2127WAT     H2 6624   2.694   5.591   1.594
 2128WAT      O 6625   0.847   3.417   3.717
 2128WAT     H1 6626   0.755   3.384   3.696
 2128WAT     H2 6627   0.915   3.363   3.667
 2129WAT      O 6628   3.353   6.817   4.512
 2129WAT     H1 6629   3.253   6.809   4.512
 2129WAT     H2 6630   3.383   6.852   4.601
 2130WAT      O 6631   2.779   1.353   1.012
 2130WAT     H1 6632   2.862   1.328   0.961
 2130WAT     H2 6633   2.782   1.311   1.102
 2131WAT      O 6634   2.205   1.840   7.764
 2131WAT     H1 6635   2.291   1.852   7.815
 2131WAT     H2 6636   2.157   1.927   7.760
 2132WAT      O 6637   0.886   2.994   2.332
 2132WAT     H1 6638   0.866   3.091   2.347
 2132WAT     H2 6639   0.801   2.945   2.314
 2133WAT      O 6640   1.956   2.011   6.583
 2133WAT     H1 6641   1.948   2.100   6.628
 2133WAT     H2 6642   1.876   1.997   6.524
 2134WAT      O 6643   2.727   6.195   5.167
 2134WAT     H1 6644   2.734   6.290   5.134
 2134WAT     H2 6645   2.648   6.151   5.125
 2135WAT      O 6646   9.062   0.497   6.538
 2135WAT     H1 6647   9.087   0.593   6.544
 2135WAT     H2 6648   8.989   0.485   6.471
 2136WAT      O 6649   2.338   2.183   3.011
 2136WAT     H1 6650   2.285   2.099   3.004
 2136WAT     H2 6651   2.404   2.174   3.086
 2137WAT      O 6652   2.483   6.357   3.890
 2137WAT     H1 6653   2.534   6.400   3.815
 2137WAT     H2 6654   2.434   6.277   3.855
 2138WAT      O 6655   4.687   5.150   0.381
 2138WAT     H1 6656   4.648   5.242   0.378
 2138WAT     H2 6657   4.777   5.153   0.424
 2139WAT      O 6658   4.291   9.498   2.069
 2139WAT     H1 6659   4.219   9.492   2.001
 2139WAT     H2 6660   4.379   9.475   2.027
 2140WAT      O 6661   5.317   2.087   2.366
 2140WAT     H1 6662   5.409   2.077   2.403
 2140WAT     H2 6663   5.317   2.066   2.268
 2141WAT      O 6664   4.170   7.895   0.568
 2141WAT     H1 6665   4.161   7.906   0.469
 2141WAT     H2 6666   4.083   7.866   0.607
 2142WAT      O 6667   7.524   6.082   3.306
 2142WAT     H1 6668   7.602   6.137   3.339
 2142WAT     H2 6669   7.541   6.055   3.211
 2143WAT      O 6670   2.941   6.607   4.054
 2143WAT     H1 6671   2.860   6.552   4.033
 2143WAT     H2 6672   2.959   6.604   4.152
 2144WAT      O 6673   7.035   8.328   0.267
 2144WAT     H1 6674   7.083   8.309   0.352
 2144WAT     H2 6675   6.937   8.307   0.278
 2145WAT      O 6676   7.132   5.799   5.166
 2145WAT     H1 6677   7.228   5.823   5.152
 2145WAT     H2 6678   7.075   5.880   5.151
 2146WAT      O 6679   5.560   1.109   4.996
 2146WAT     H1 6680   5.577   1.019   4.957
 2146WAT     H2 6681   5.471   1.143   4.966
 2147WAT      O 6682   5.258   3.209   7.600
 2147WAT     H1 6683   5.161   3.230   7.592
 2147WAT     H2 6684   5.312   3.275   7.547
 2148WAT      O 6685   0.042   6.960   0.038
 2148WAT     H1 6686  -0.046   7.006   0.044
 2148WAT     H2 6687   0.033   6.879  -0.021
 2149WAT      O 6688   3.135   3.407   1.000
 2149WAT     H1 6689   3.094   3.433   0.913
 2149WAT     H2 6690   3.175   3.315   0.992
 2150WAT      O 6691   8.797   5.969   0.569
 2150WAT     H1 6692   8.880   5.930   0.529
 2150WAT     H2 6693   8.760   6.038   0.506
 2151WAT      O 6694   2.105   7.044   5.984
 2151WAT     H1 6695   2.123   7.104   5.906
 2151WAT     H2 6696   2.016   7.067   6.024
 2152WAT      O 6697   3.250   2.286   9.593
 2152WAT     H1 6698   3.289   2.378   9.593
 2152WAT     H2 6699   3.322   2.220   9.615
 2153WAT      O 6700   9.110   5.944   4.762
 2153WAT     H1 6701   9.140   6.039   4.772
 2153WAT     H2 6702   9.133   5.892   4.844
 2154WAT      O 6703   2.620   6.675   9.628
 2154WAT     H1 6704   2.684   6.736   9.673
 2154WAT     H2 6705   2.596   6.600   9.689
 2155WAT      O 6706   8.145   0.117   9.309
 2155WAT     H1 6707   8.173   0.023   9.291
 2155WAT     H2 6708   8.177   0.176   9.235
 2156WAT      O 6709   1.020   2.101   3.055
 2156WAT     H1 6710   1.114   2.114   3.087
 2156WAT     H2 6711   0.998   2.173   2.988
 2157WAT      O 6712   6.807   4.312   2.341
 2157WAT     H1 6713   6.799   4.358   2.430
 2157WAT     H2 6714   6.820   4.214   2.355
 2158WAT      O 6715   3.284   5.965   8.177
 2158WAT     H1 6716   3.223   6.044   8.179
 2158WAT     H2 6717   3.367   5.988   8.125
 2159WAT      O 6718   8.211   7.967   4.457
 2159WAT     H1 6719   8.249   8.010   4.539
 2159WAT     H2 6720   8.283   7.915   4.410
 2160WAT      O 6721   1.863   7.805   7.710
 2160WAT     H1 6722   1.958   7.823   7.682
 2160WAT     H2 6723   1.805   7.801   7.629
 2161WAT      O 6724   1.628   5.188   8.804
 2161WAT     H1 6725   1.612   5.282   8.777
 2161WAT     H2 6726   1.686   5.143   8.736
 2162WAT      O 6727   1.020   5.336   0.095
 2162WAT     H1 6728   1.092   5.275   0.059
 2162WAT     H2 6729   0.978   5.386   0.019
 2163WAT      O 6730   6.994   3.660   6.128
 2163WAT     H1 6731   6.986   3.585   6.063
 2163WAT     H2 6732   6.943   3.637   6.211
 2164WAT      O 6733   0.534   2.016   1.324
 2164WAT     H1 6734   0.496   1.925   1.341
 2164WAT     H2 6735   0.470   2.086   1.356
 2165WAT      O 6736   1.578   5.225   2.145
 2165WAT     H1 6737   1.497   5.209   2.089
 2165WAT     H2 6738   1.659   5.222   2.087
 2166WAT      O 6739   2.793   4.015   3.670
 2166WAT     H1 6740   2.853   4.093   3.654
 2166WAT     H2 6741   2.728   4.036   3.743
 2167WAT      O 6742   1.459   0.069   1.492
 2167WAT     H1 6743   1.540   0.127   1.502
 2167WAT     H2 6744   1.376   0.125   1.498
 2168WAT      O 6745   7.305   3.357   8.121
 2168WAT     H1 6746   7.377   3.377   8.054
 2168WAT     H2 6747   7.225   3.320   8.074
 2169WAT      O 6748   3.089   2.417   8.800
 2169WAT     H1 6749   3.178   2.449   8.834
 2169WAT     H2 6750   3.103   2.365   8.715
 2170WAT      O 6751   4.994   2.128   4.414
 2170WAT     H1 6752   5.036   2.102   4.327
 2170WAT     H2 6753   4.962   2.046   4.461
 2171WAT      O 6754   7.738   8.474   8.540
 2171WAT     H1 6755   7.815   8.510   8.488
 2171WAT     H2 6756   7.738   8.514   8.631
 2172WAT      O 6757   7.723   3.314   0.577
 2172WAT     H1 6758   7.721   3.232   0.635
 2172WAT     H2 6759   7.817   3.331   0.547
 2173WAT      O 6760   8.753   8.664   3.933
 2173WAT     H1 6761   8.834   8.685   3.878
 2173WAT     H2 6762   8.724   8.746   3.982
 2174WAT      O 6763   3.145   8.615   6.399
 2174WAT     H1 6764   3.178   8.705   6.427
 2174WAT     H2 6765   3.109   8.566   6.478
 2175WAT      O 6766   6.547   9.498   1.212
 2175WAT     H1 6767   6.508   9.476   1.301
 2175WAT     H2 6768   6.474   9.513   1.146
 2176WAT      O 6769   0.490   8.006   1.111
 2176WAT     H1 6770   0.472   8.095   1.153
 2176WAT     H2 6771   0.434   7.936   1.154
 2177WAT      O 6772   1.142   2.659   0.440
 2177WAT     H1 6773   1.061   2.608   0.469
 2177WAT     H2 6774   1.179   2.617   0.356
 2178WAT      O 6775   4.834   7.715   4.989
 2178WAT     H1 6776   4.879   7.658   4.921
 2178WAT     H2 6777   4.891   7.717   5.072
 2179WAT      O 6778   1.020   6.868   9.358
 2179WAT     H1 6779   1.021   6.934   9.283
 2179WAT     H2 6780   0.977   6.910   9.438
 2180WAT      O 6781   5.874   4.132   0.298
 2180WAT     H1 6782   5.829   4.049   0.263
 2180WAT     H2 6783   5.940   4.165   0.231
 2181WAT      O 6784   9.641   1.844   6.112
 2181WAT     H1 6785   9.627   1.860   6.210
 2181WAT     H2 6786   9.709   1.909   6.077
 2182WAT      O 6787   8.642   1.865   3.082
 2182WAT     H1 6788   8.558   1.844   3.132
 2182WAT     H2 6789   8.694   1.781   3.067
 2183WAT      O 6790   1.189   9.019   1.289
 2183WAT     H1 6791   1.288   9.028   1.298
 2183WAT     H2 6792   1.168   8.964   1.208
 2184WAT      O 6793   3.435   2.277   8.836
 2184WAT     H1 6794   3.445   2.293   8.738
 2184WAT     H2 6795   3.376   2.347   8.876
 2185WAT      O 6796   3.388   8.555   4.125
 2185WAT     H1 6797   3.487   8.562   4.135
 2185WAT     H2 6798   3.343   8.586   4.209
 2186WAT      O 6799   7.345   1.534   1.041
 2186WAT     H1 6800   7.298   1.558   0.956
 2186WAT     H2 6801   7.411   1.605   1.063
 2187WAT      O 6802   4.977   0.774   3.281
 2187WAT     H1 6803   5.015   0.683   3.295
 2187WAT     H2 6804   4.972   0.822   3.369
 2188WAT      O 6805   3.003   3.113   5.822
 2188WAT     H1 6806   3.059   3.184   5.865
 2188WAT     H2 6807   2.906   3.135   5.835
 2189WAT      O 6808   6.135   5.213   1.069
 2189WAT     H1 6809   6.133   5.113   1.057
 2189WAT     H2 6810   6.195   5.253   1.000
 2190WAT      O 6811   7.533   5.272   7.035
 2190WAT     H1 6812   7.544   5.236   6.942
 2190WAT     H2 6813   7.494   5.201   7.094
 2191WAT      O 6814   0.827   1.924   1.920
 2191WAT     H1 6815   0.842   1.939   2.018
 2191WAT     H2 6816   0.729   1.916   1.902
 2192WAT      O 6817   0.687   4.303   8.229
 2192WAT     H1 6818   0.730   4.279   8.316
 2192WAT     H2 6819   0.589   4.284   8.234
 2193WAT      O 6820   7.380   3.832   2.775
 2193WAT     H1 6821   7.446   3.905   2.791
 2193WAT     H2 6822   7.420   3.763   2.716
 2194WAT      O 6823   8.633   1.829   7.424
 2194WAT     H1 6824   8.638   1.731   7.406
 2194WAT     H2 6825   8.703   1.877   7.370
 2195WAT      O 6826   1.531   1.990   1.571
 2195WAT     H1 6827   1.543   1.973   1.474
 2195WAT     H2 6828   1.595   1.934   1.623
 2196WAT      O 6829   5.389   3.249   9.753
 2196WAT     H1 6830   5.323   3.294   9.693
 2196WAT     H2 6831   5.392   3.151   9.731
 2197WAT      O 6832   1.699   8.746   4.626
 2197WAT     H1 6833   1.648   8.809   4.686
 2197WAT     H2 6834   1.635   8.680   4.587
 2198WAT      O 6835   5.593   6.313   1.868
 2198WAT     H1 6836   5.504   6.342   1.835
 2198WAT     H2 6837   5.629   6.242   1.808
 2199WAT      O 6838   8.538   6.111   6.582
 2199WAT     H1 6839   8.607   6.183   6.591
 2199WAT     H2 6840   8.492   6.121   6.494
 2200WAT      O 6841   2.685   3.815   2.229
 2200WAT     H1 6842   2.632   3.817   2.314
 2200WAT     H2 6843   2.624   3.826   2.151
 2201WAT      O 6844   6.477   1.627   8.344
 2201WAT     H1 6845   6.391   1.614   8.294
 2201WAT     H2 6846   6.464   1.700   8.412
 2202WAT      O 6847   8.483   1.459   4.734
 2202WAT     H1 6848   8.540   1.458   4.816
 2202WAT     H2 6849   8.494   1.547   4.687
 2203WAT      O 6850   0.105   9.198   5.766
 2203WAT     H1 6851   0.161   9.141   5.828
 2203WAT     H2 6852   0.011   9.201   5.799
 2204WAT      O 6853   5.307   5.729   0.941
 2204WAT     H1 6854   5.234   5.736   1.010
 2204WAT     H2 6855   5.302   5.640   0.896
 2205WAT      O 6856   0.802   5.830   8.380
 2205WAT     H1 6857   0.842   5.739   8.374
 2205WAT     H2 6858   0.839   5.888   8.307
 2206WAT      O 6859   9.739   7.680   0.763
 2206WAT     H1 6860   9.652   7.670   0.715
 2206WAT     H2 6861   9.814   7.665   0.699
 2207WAT      O 6862   2.877   7.982   5.198
 2207WAT     H1 6863   2.962   8.032   5.211
 2207WAT     H2 6864   2.800   8.039   5.227
 2208WAT      O 6865   9.086   4.873   2.468
 2208WAT     H1 6866   9.120   4.781   2.449
 2208WAT     H2 6867   9.064   4.919   2.381
 2209WAT      O 6868   3.742   5.114   8.635
 2209WAT     H1 6869   3.674   5.128   8.564
 2209WAT     H2 6870   3.791   5.029   8.618
 2210WAT      O 6871   7.520   8.243   3.312
 2210WAT     H1 6872   7.442   8.296   3.278
 2210WAT     H2 6873   7.565   8.198   3.236
 2211WAT      O 6874   2.267   5.308   6.248
 2211WAT     H1 6875   2.174   5.277   6.228
 2211WAT     H2 6876   2.332   5.235   6.229
 2212WAT      O 6877   5.456   2.646   6.330
 2212WAT     H1 6878   5.397   2.725   6.347
 2212WAT     H2 6879   5.402   2.572   6.291
 2213WAT      O 6880   6.066   8.495   5.727
 2213WAT     H1 6881   6.060   8.589   5.760
 2213WAT     H2 6882   6.040   8.433   5.801
 2214WAT      O 6883   8.984   9.767   6.343
 2214WAT     H1 6884   9.039   9.843   6.310
 2214WAT     H2 6885   8.936   9.724   6.267
 2215WAT      O 6886   8.664   7.172   4.158
 2215WAT     H1 6887   8.637   7.087   4.202
 2215WAT     H2 6888   8.751   7.204   4.195
 2216WAT      O 6889   2.621   9.538   3.018
 2216WAT     H1 6890   2.633   9.529   2.919
 2216WAT     H2 6891   2.623   9.635   3.043
 2217WAT      O 6892   3.110   4.995   0.633
 2217WAT     H1 6893   3.203   4.997   0.598
 2217WAT     H2 6894   3.059   4.921   0.590
 2218WAT      O 6895   4.561   9.230   7.085
 2218WAT     H1 6896   4.508   9.201   7.005
 2218WAT     H2 6897   4.639   9.285   7.055
 2219WAT      O 6898   1.983   6.925   2.586
 2219WAT     H1 6899   1.928   6.850   2.549
 2219WAT     H2 6900   1.997   6.994   2.515
 2220WAT      O 6901   9.037   7.762   8.445
 2220WAT     H1 6902   8.993   7.673   8.447
 2220WAT     H2 6903   9.071   7.785   8.536
 2221WAT      O 6904   5.919   0.525   5.000
 2221WAT     H1 6905   5.969   0.591   5.056
 2221WAT     H2 6906   5.930   0.433   5.039
 2222WAT      O 6907   8.003   6.001   7.968
 2222WAT     H1 6908   8.080   5.946   7.937
 2222WAT     H2 6909   7.984   6.072   7.900
 2223WAT      O 6910   0.784   9.081   0.548
 2223WAT     H1 6911   0.822   8.993   0.520
 2223WAT     H2 6912   0.743   9.126   0.470
 2224WAT      O 6913   9.576   8.960   8.375
 2224WAT     H1 6914   9.552   9.042   8.427
 2224WAT     H2 6915   9.645   8.982   8.307
 2225WAT      O 6916   9.849   4.250   0.456
 2225WAT     H1 6917   9.814   4.343   0.446
 2225WAT     H2 6918   9.805   4.191   0.389
 2226WAT      O 6919   4.069   2.818   5.307
 2226WAT     H1 6920   4.142   2.844   5.244
 2226WAT     H2 6921   4.007   2.896   5.321
 2227WAT      O 6922   7.037   1.144   0.461
 2227WAT     H1 6923   7.099   1.138   0.383
 2227WAT     H2 6924   7.084   1.111   0.544
 2228WAT      O 6925   7.255   6.270   2.526
 2228WAT     H1 6926   7.182   6.269   2.594
 2228WAT     H2 6927   7.344   6.270   2.571
 2229WAT      O 6928   5.326   3.755   8.912
 2229WAT     H1 6929   5.239   3.715   8.884
 2229WAT     H2 6930   5.389   3.758   8.835
 2230WAT      O 6931   5.698   7.172   3.095
 2230WAT     H1 6932   5.715   7.238   3.022
 2230WAT     H2 6933   5.785   7.131   3.123
 2231WAT      O 6934   8.945   3.931   4.673
 2231WAT     H1 6935   8.870   3.931   4.607
 2231WAT     H2 6936   9.031   3.910   4.627
 2232WAT      O 6937   1.536   3.062   7.535
 2232WAT     H1 6938   1.581   2.991   7.590
 2232WAT     H2 6939   1.514   3.026   7.445
 2233WAT      O 6940   2.768   0.532   3.929
 2233WAT     H1 6941   2.675   0.506   3.904
 2233WAT     H2 6942   2.832   0.493   3.863
 2234WAT      O 6943   1.256   6.185   1.790
 2234WAT     H1 6944   1.225   6.258   1.728
 2234WAT     H2 6945   1.345   6.209   1.828
 2235WAT      O 6946   4.489   8.422   0.904
 2235WAT     H1 6947   4.419   8.395   0.971
 2235WAT     H2 6948   4.505   8.346   0.840
 2236WAT      O 6949   1.055   2.523   2.516
 2236WAT     H1 6950   1.029   2.502   2.610
 2236WAT     H2 6951   1.108   2.608   2.514
 2237WAT      O 6952   7.930   6.811   2.758
 2237WAT     H1 6953   7.893   6.719   2.756
 2237WAT     H2 6954   7.946   6.843   2.664
 2238WAT      O 6955   3.646   8.885   2.201
 2238WAT     H1 6956   3.547   8.876   2.205
 2238WAT     H2 6957   3.672   8.975   2.236
 2239WAT      O 6958   8.496   5.254   1.692
 2239WAT     H1 6959   8.502   5.154   1.700
 2239WAT     H2 6960   8.424   5.288   1.752
 2240WAT      O 6961   1.306   4.934   5.375
 2240WAT     H1 6962   1.387   4.875   5.374
 2240WAT     H2 6963   1.303   4.984   5.462
 2241WAT      O 6964   4.540   9.170   9.131
 2241WAT     H1 6965   4.566   9.140   9.223
 2241WAT     H2 6966   4.515   9.267   9.134
 2242WAT      O 6967   9.705   4.261   7.324
 2242WAT     H1 6968   9.737   4.229   7.413
 2242WAT     H2 6969   9.757   4.342   7.297
 2243WAT      O 6970   7.475   0.149   1.218
 2243WAT     H1 6971   7.523   0.097   1.148
 2243WAT     H2 6972   7.496   0.246   1.207
 2244WAT      O 6973   8.433   2.805   9.290
 2244WAT     H1 6974   8.474   2.865   9.358
 2244WAT     H2 6975   8.349   2.765   9.327
 2245WAT      O 6976   2.687   8.631   1.530
 2245WAT     H1 6977   2.603   8.678   1.557
 2245WAT     H2 6978   2.760   8.652   1.595
 2246WAT      O 6979   5.629   5.708   1.033
 2246WAT     H1 6980   5.628   5.621   1.083
 2246WAT     H2 6981   5.537   5.729   1.001
 2247WAT      O 6982   6.230   7.582   8.167
 2247WAT     H1 6983   6.212   7.539   8.079
 2247WAT     H2 6984   6.328   7.580   8.186
 2248WAT      O 6985   5.654   0.508   9.509
 2248WAT     H1 6986   5.727   0.459   9.460
 2248WAT     H2 6987   5.638   0.596   9.465
 2249WAT      O 6988   1.517   4.370   4.848
 2249WAT     H1 6989   1.447   4.298   4.849
 2249WAT     H2 6990   1.506   4.429   4.928
 2250WAT      O 6991   8.966   5.491   6.253
 2250WAT     H1 6992   8.982   5.415   6.316
 2250WAT     H2 6993   8.997   5.577   6.295
 2251WAT      O 6994   1.600   7.849   4.672
 2251WAT     H1 6995   1.623   7.938   4.710
 2251WAT     H2 6996   1.672   7.820   4.609
 2252WAT      O 6997   1.239   8.404   0.929
 2252WAT     H1 6998   1.246   8.503   0.934
 2252WAT     H2 6999   1.323   8.366   0.889
 2253WAT      O 7000   4.128   8.503   3.090
 2253WAT     H1 7001   4.137   8.428   3.024
 2253WAT     H2 7002   4.031   8.526   3.099
 2254WAT      O 7003   6.970   3.135   4.403
 2254WAT     H1 7004   6.982   3.036   4.400
 2254WAT     H2 7005   7.007   3.170   4.490
 2255WAT      O 7006   5.508   3.307   3.728
 2255WAT     H1 7007   5.516   3.367   3.648
 2255WAT     H2 7008   5.414   3.273   3.734
 2256WAT      O 7009   6.898   9.170   0.001
 2256WAT     H1 7010   6.818   9.131   0.047
 2256WAT     H2 7011   6.961   9.207   0.069
 2257WAT      O 7012   9.753   1.257   5.501
 2257WAT     H1 7013   9.849   1.241   5.527
 2257WAT     H2 7014   9.693   1.208   5.564
 2258WAT      O 7015   1.559   2.368   6.242
 2258WAT     H1 7016   1.578   2.301   6.314
 2258WAT     H2 7017   1.500   2.440   6.279
 2259WAT      O 7018   4.693   8.249   7.459
 2259WAT     H1 7019   4.686   8.199   7.372
 2259WAT     H2 7020   4.603   8.249   7.504
 2260WAT      O 7021   7.383   8.205   9.585
 2260WAT     H1 7022   7.315   8.256   9.637
 2260WAT     H2 7023   7.475   8.239   9.607
 2261WAT      O 7024   3.784   1.291   9.477
 2261WAT     H1 7025   3.735   1.336   9.551
 2261WAT     H2 7026   3.747   1.199   9.464
 2262WAT      O 7027   3.265   1.117   6.277
 2262WAT     H1 7028   3.166   1.107   6.285
 2262WAT     H2 7029   3.299   1.056   6.205
 2263WAT      O 7030   6.545   4.192   6.955
 2263WAT     H1 7031   6.528   4.110   7.009
 2263WAT     H2 7032   6.498   4.270   6.997
 2264WAT      O 7033   5.229   0.578   2.271
 2264WAT     H1 7034   5.201   0.674   2.276
 2264WAT     H2 7035   5.198   0.539   2.185
 2265WAT      O 7036   9.845   5.443   0.448
 2265WAT     H1 7037   9.748   5.451   0.423
 2265WAT     H2 7038   9.884   5.362   0.404
 2266WAT      O 7039   5.935   8.548   2.864
 2266WAT     H1 7040   5.929   8.473   2.929
 2266WAT     H2 7041   5.856   8.546   2.803
 2267WAT      O 7042   2.442   1.012   4.129
 2267WAT     H1 7043   2.362   1.017   4.189
 2267WAT     H2 7044   2.494   0.930   4.150
 2268WAT      O 7045   2.348   5.027   5.017
 2268WAT     H1 7046   2.407   4.947   5.009
 2268WAT     H2 7047   2.335   5.050   5.113
 2269WAT      O 7048   9.463   7.793   3.707
 2269WAT     H1 7049   9.499   7.853   3.778
 2269WAT     H2 7050   9.466   7.698   3.738
 2270WAT      O 7051   2.117   5.779   1.348
 2270WAT     H1 7052   2.072   5.849   1.293
 2270WAT     H2 7053   2.187   5.732   1.293
 2271WAT      O 7054   1.992   3.190   1.039
 2271WAT     H1 7055   2.056   3.162   1.110
 2271WAT     H2 7056   1.945   3.274   1.067
 2272WAT      O 7057   2.068   5.081   2.605
 2272WAT     H1 7058   2.160   5.059   2.573
 2272WAT     H2 7059   2.006   5.004   2.586
 2273WAT      O 7060   0.391   4.564   9.019
 2273WAT     H1 7061   0.400   4.593   8.924
 2273WAT     H2 7062   0.360   4.469   9.023
 2274WAT      O 7063   7.173   9.248   1.525
 2274WAT     H1 7064   7.179   9.153   1.557
 2274WAT     H2 7065   7.266   9.285   1.515
 2275WAT      O 7066   2.018   3.457   4.322
 2275WAT     H1 7067   1.956   3.395   4.370
 2275WAT     H2 7068   1.984   3.551   4.331
 2276WAT      O 7069   1.664   7.453   0.208
 2276WAT     H1 7070   1.757   7.471   0.178
 2276WAT     H2 7071   1.614   7.406   0.136
 2277WAT      O 7072   9.276   4.346   5.087
 2277WAT     H1 7073   9.308   4.438   5.110
 2277WAT     H2 7074   9.281   4.333   4.988
 2278WAT      O 7075   0.580   0.169   6.614
 2278WAT     H1 7076   0.487   0.134   6.606
 2278WAT     H2 7077   0.644   0.093   6.623
 2279WAT      O 7078   5.824   2.325   1.558
 2279WAT     H1 7079   5.806   2.381   1.477
 2279WAT     H2 7080   5.739   2.280   1.587
 2280WAT      O 7081   8.223   5.167   5.178
 2280WAT     H1 7082   8.176   5.210   5.254
 2280WAT     H2 7083   8.306   5.218   5.156
 2281WAT      O 7084   7.420   6.927   4.666
 2281WAT     H1 7085   7.448   6.831   4.661
 2281WAT     H2 7086   7.492   6.985   4.629
 2282WAT      O 7087   7.111   6.554   9.531
 2282WAT     H1 7088   7.137   6.650   9.532
 2282WAT     H2 7089   7.093   6.526   9.437
 2283WAT      O 7090   1.401   6.614   7.498
 2283WAT     H1 7091   1.492   6.626   7.460
 2283WAT     H2 7092   1.364   6.525   7.471
 2284WAT      O 7093   1.308   5.649   9.412
 2284WAT     H1 7094   1.268   5.560   9.390
 2284WAT     H2 7095   1.389   5.636   9.469
 2285WAT      O 7096   7.810   9.047   9.678
 2285WAT     H1 7097   7.889   9.073   9.622
 2285WAT     H2 7098   7.750   9.126   9.691
 2286WAT      O 7099   3.187   8.014   3.568
 2286WAT     H1 7100   3.104   8.044   3.614
 2286WAT     H2 7101   3.193   7.914   3.570
 2287WAT      O 7102   2.732   7.248   5.206
 2287WAT     H1 7103   2.766   7.255   5.112
 2287WAT     H2 7104   2.715   7.340   5.241
 2288WAT      O 7105   5.547   9.400   2.312
 2288WAT     H1 7106   5.583   9.464   2.244
 2288WAT     H2 7107   5.501   9.325   2.266
 2289WAT      O 7108   0.175   0.318   3.626
 2289WAT     H1 7109   0.081   0.336   3.598
 2289WAT     H2 7110   0.200   0.379   3.701
 2290WAT      O 7111   0.946   4.389   2.538
 2290WAT     H1 7112   0.984   4.355   2.624
 2290WAT     H2 7113   0.960   4.321   2.466
 2291WAT      O 7114   5.181   2.507   5.571
 2291WAT     H1 7115   5.139   2.596   5.555
 2291WAT     H2 7116   5.130   2.437   5.521
 2292WAT      O 7117   4.051   0.432   2.420
 2292WAT     H1 7118   4.091   0.491   2.490
 2292WAT     H2 7119   4.116   0.360   2.395
 2293WAT      O 7120   4.675   1.530   0.956
 2293WAT     H1 7121   4.623   1.531   0.871
 2293WAT     H2 7122   4.611   1.528   1.034
 2294WAT      O 7123   9.442   4.539   4.198
 2294WAT     H1 7124   9.378   4.463   4.184
 2294WAT     H2 7125   9.458   4.584   4.110
 2295WAT      O 7126   2.800   3.363   5.216
 2295WAT     H1 7127   2.785   3.347   5.313
 2295WAT     H2 7128   2.763   3.287   5.163
 2296WAT      O 7129   4.314   3.669   1.526
 2296WAT     H1 7130   4.222   3.652   1.561
 2296WAT     H2 7131   4.315   3.652   1.428
 2297WAT      O 7132   9.277   8.449   3.550
 2297WAT     H1 7133   9.195   8.495   3.517
 2297WAT     H2 7134   9.318   8.396   3.475
 2298WAT      O 7135   6.077   4.747   9.086
 2298WAT     H1 7136   6.080   4.842   9.055
 2298WAT     H2 7137   6.151   4.695   9.042
 2299WAT      O 7138   2.311   0.782   8.559
 2299WAT     H1 7139   2.343   0.860   8.507
 2299WAT     H2 7140   2.302   0.807   8.655
 2300WAT      O 7141   4.551   9.300   2.948
 2300WAT     H1 7142   4.462   9.328   2.983
 2300WAT     H2 7143   4.578   9.213   2.990
 2301WAT      O 7144   1.054   1.496   0.446
 2301WAT     H1 7145   0.983   1.565   0.429
 2301WAT     H2 7146   1.061   1.435   0.368
 2302WAT      O 7147   4.064   5.664   4.005
 2302WAT     H1 7148   4.020   5.731   3.945
 2302WAT     H2 7149   4.066   5.575   3.959
 2303WAT      O 7150   7.195   9.636   1.688
 2303WAT     H1 7151   7.294   9.633   1.707
 2303WAT     H2 7152   7.179   9.696   1.610
 2304WAT      O 7153   7.151   7.974   8.748
 2304WAT     H1 7154   7.083   7.900   8.744
 2304WAT     H2 7155   7.165   8.011   8.657
 2305WAT      O 7156   1.018   8.787   7.168
 2305WAT     H1 7157   1.080   8.718   7.206
 2305WAT     H2 7158   0.948   8.742   7.113
 2306WAT      O 7159   9.424   5.960   5.184
 2306WAT     H1 7160   9.489   6.025   5.146
 2306WAT     H2 7161   9.470   5.873   5.201
 2307WAT      O 7162   9.276   4.220   0.873
 2307WAT     H1 7163   9.261   4.168   0.956
 2307WAT     H2 7164   9.208   4.294   0.867
 2308WAT      O 7165   6.546   5.556   4.882
 2308WAT     H1 7166   6.597   5.491   4.826
 2308WAT     H2 7167   6.521   5.513   4.968
 2309WAT      O 7168   4.287   6.209   5.278
 2309WAT     H1 7169   4.334   6.144   5.337
 2309WAT     H2 7170   4.279   6.297   5.325
 2310WAT      O 7171   3.804   3.679   8.169
 2310WAT     H1 7172   3.808   3.732   8.084
 2310WAT     H2 7173   3.731   3.611   8.163
 2311WAT      O 7174   0.795   6.257   0.407
 2311WAT     H1 7175   0.758   6.281   0.317
 2311WAT     H2 7176   0.754   6.315   0.477
 2312WAT      O 7177   6.365   4.602   3.731
 2312WAT     H1 7178   6.354   4.524   3.669
 2312WAT     H2 7179   6.395   4.569   3.821
 2313WAT      O 7180   1.431   3.696   0.932
 2313WAT     H1 7181   1.442   3.649   1.019
 2313WAT     H2 7182   1.341   3.739   0.929
 2314WAT      O 7183   2.903   2.345   7.229
 2314WAT     H1 7184   2.977   2.370   7.292
 2314WAT     H2 7185   2.903   2.245   7.216
 2315WAT      O 7186   4.237   2.317   1.885
 2315WAT     H1 7187   4.190   2.388   1.938
 2315WAT     H2 7188   4.239   2.232   1.938
 2316WAT      O 7189   5.759   7.419   2.361
 2316WAT     H1 7190   5.721   7.345   2.305
 2316WAT     H2 7191   5.784   7.382   2.450
 2317WAT      O 7192   3.586   1.824   4.096
 2317WAT     H1 7193   3.502   1.845   4.046
 2317WAT     H2 7194   3.625   1.739   4.062
 2318WAT      O 7195   8.016   0.513   4.537
 2318WAT     H1 7196   8.108   0.505   4.498
 2318WAT     H2 7197   7.981   0.421   4.558
 2319WAT      O 7198   2.499   8.499   7.370
 2319WAT     H1 7199   2.432   8.461   7.434
 2319WAT     H2 7200   2.480   8.596   7.356
 2320WAT      O 7201   3.766   9.313   7.904
 2320WAT     H1 7202   3.796   9.356   7.989
 2320WAT     H2 7203   3.716   9.229   7.925
 2321WAT      O 7204   8.355   7.600   7.109
 2321WAT     H1 7205   8.288   7.664   7.072
 2321WAT     H2 7206   8.333   7.582   7.206
 2322WAT      O 7207   4.390   7.978   9.681
 2322WAT     H1 7208   4.464   8.032   9.721
 2322WAT     H2 7209   4.363   8.018   9.594
 2323WAT      O 7210   4.491   1.952   5.494
 2323WAT     H1 7211   4.454   1.981   5.406
 2323WAT     H2 7212   4.532   2.031   5.541
 2324WAT      O 7213   0.938   1.051   1.220
 2324WAT     H1 7214   0.970   1.016   1.132
 2324WAT     H2 7215   0.857   1.108   1.205
 2325WAT      O 7216   9.651   3.434   6.486
 2325WAT     H1 7217   9.745   3.430   6.454
 2325WAT     H2 7218   9.625   3.346   6.525
 2326WAT      O 7219   5.596   8.111   5.113
 2326WAT     H1 7220   5.521   8.076   5.057
 2326WAT     H2 7221   5.618   8.204   5.085
 2327WAT      O 7222   3.510   7.539   3.429
 2327WAT     H1 7223   3.592   7.544   3.487
 2327WAT     H2 7224   3.518   7.605   3.354
 2328WAT      O 7225   4.776   5.839   9.231
 2328WAT     H1 7226   4.873   5.850   9.249
 2328WAT     H2 7227   4.745   5.751   9.265
 2329WAT      O 7228   0.368   9.341   9.840
 2329WAT     H1 7229   0.299   9.407   9.869
 2329WAT     H2 7230   0.415   9.305   9.920
 2330WAT      O 7231   1.064   3.329   6.768
 2330WAT     H1 7232   1.088   3.233   6.761
 2330WAT     H2 7233   1.001   3.342   6.844
 2331WAT      O 7234   1.508   6.757   2.291
 2331WAT     H1 7235   1.493   6.836   2.231
 2331WAT     H2 7236   1.433   6.692   2.281
 2332WAT      O 7237   0.392   6.310   6.328
 2332WAT     H1 7238   0.324   6.346   6.393
 2332WAT     H2 7239   0.405   6.375   6.254
 2333WAT      O 7240   4.954   2.131   6.975
 2333WAT     H1 7241   4.867   2.140   6.927
 2333WAT     H2 7242   5.003   2.218   6.971
 2334WAT      O 7243   0.077   9.696   9.420
 2334WAT     H1 7244  -0.007   9.693   9.474
 2334WAT     H2 7245   0.130   9.613   9.435
 2335WAT      O 7246   6.731   5.503   5.129
 2335WAT     H1 7247   6.823   5.523   5.162
 2335WAT     H2 7248   6.726   5.407   5.101
 2336WAT      O 7249   4.938   6.018   7.952
 2336WAT     H1 7250   5.022   6.062   7.921
 2336WAT     H2 7251   4.908   5.951   7.883
 2337WAT      O 7252   5.302   5.337   9.118
 2337WAT     H1 7253   5.232   5.329   9.048
 2337WAT     H2 7254   5.282   5.414   9.178
 2338WAT      O 7255   8.333   6.562   6.005
 2338WAT     H1 7256   8.261   6.564   5.936
 2338WAT     H2 7257   8.383   6.649   6.003
 2339WAT      O 7258   0.645   1.912   6.943
 2339WAT     H1 7259   0.598   1.999   6.926
 2339WAT     H2 7260   0.691   1.916   7.031
 2340WAT      O 7261   0.370   2.864   6.398
 2340WAT     H1 7262   0.271   2.880   6.407
 2340WAT     H2 7263   0.395   2.868   6.301
 2341WAT      O 7264   8.947   2.213   2.315
 2341WAT     H1 7265   8.907   2.266   2.240
 2341WAT     H2 7266   8.998   2.275   2.376
 2342WAT      O 7267   1.506   1.688   8.311
 2342WAT     H1 7268   1.415   1.729   8.313
 2342WAT     H2 7269   1.499   1.591   8.288
 2343WAT      O 7270   6.379   1.888   0.979
 2343WAT     H1 7271   6.400   1.805   1.031
 2343WAT     H2 7272   6.280   1.896   0.968
 2344WAT      O 7273   3.742   1.025   9.395
 2344WAT     H1 7274   3.807   1.030   9.320
 2344WAT     H2 7275   3.656   0.986   9.362
 2345WAT      O 7276   2.203   9.576   7.094
 2345WAT     H1 7277   2.227   9.671   7.113
 2345WAT     H2 7278   2.127   9.573   7.029
 2346WAT      O 7279   3.373   5.276   7.570
 2346WAT     H1 7280   3.322   5.191   7.588
 2346WAT     H2 7281   3.368   5.335   7.651
 2347WAT      O 7282   0.366   3.235   4.519
 2347WAT     H1 7283   0.400   3.141   4.515
 2347WAT     H2 7284   0.294   3.248   4.450
 2348WAT      O 7285   3.390   9.372   1.700
 2348WAT     H1 7286   3.372   9.463   1.662
 2348WAT     H2 7287   3.480   9.372   1.744
 2349WAT      O 7288   1.409   4.554   3.856
 2349WAT     H1 7289   1.321   4.514   3.882
 2349WAT     H2 7290   1.478   4.529   3.923
 2350WAT      O 7291   2.656   4.851   3.196
 2350WAT     H1 7292   2.679   4.768   3.145
 2350WAT     H2 7293   2.740   4.898   3.223
 2351WAT      O 7294   6.308   3.718   6.246
 2351WAT     H1 7295   6.233   3.693   6.308
 2351WAT     H2 7296   6.271   3.754   6.161
 2352WAT      O 7297   7.159   0.571   7.246
 2352WAT     H1 7298   7.218   0.491   7.250
 2352WAT     H2 7299   7.133   0.589   7.151
 2353WAT      O 7300   3.044   5.460   4.503
 2353WAT     H1 7301   3.077   5.366   4.497
 2353WAT     H2 7302   3.113   5.517   4.548
 2354WAT      O 7303   7.224   6.841   8.281
 2354WAT     H1 7304   7.180   6.860   8.369
 2354WAT     H2 7305   7.282   6.761   8.289
 2355WAT      O 7306   2.672   9.435   6.545
 2355WAT     H1 7307   2.698   9.346   6.508
 2355WAT     H2 7308   2.591   9.425   6.603
 2356WAT      O 7309   5.545   1.690   0.829
 2356WAT     H1 7310   5.613   1.616   0.825
 2356WAT     H2 7311   5.455   1.654   0.803
 2357WAT      O 7312   1.205   4.071   4.069
 2357WAT     H1 7313   1.277   4.038   4.007
 2357WAT     H2 7314   1.121   4.086   4.017
 2358WAT      O 7315   5.063   8.687   3.844
 2358WAT     H1 7316   5.119   8.769   3.845
 2358WAT     H2 7317   5.030   8.670   3.751
 2359WAT      O 7318   8.687   2.894   7.919
 2359WAT     H1 7319   8.687   2.993   7.929
 2359WAT     H2 7320   8.647   2.852   8.000
 2360WAT      O 7321   6.309   9.711   8.989
 2360WAT     H1 7322   6.288   9.688   9.084
 2360WAT     H2 7323   6.349   9.632   8.943
 2361WAT      O 7324   1.555   1.824   0.738
 2361WAT     H1 7325   1.599   1.844   0.650
 2361WAT     H2 7326   1.462   1.860   0.738
 2362WAT      O 7327   9.297   7.010   7.112
 2362WAT     H1 7328   9.222   6.984   7.173
 2362WAT     H2 7329   9.264   7.074   7.043
 2363WAT      O 7330   4.342   6.381   4.167
 2363WAT     H1 7331   4.427   6.399   4.215
 2363WAT     H2 7332   4.330   6.282   4.156
 2364WAT      O 7333   1.549   7.638   0.844
 2364WAT     H1 7334   1.643   7.641   0.878
 2364WAT     H2 7335   1.496   7.710   0.888
 2365WAT      O 7336   0.616   7.551   7.146
 2365WAT     H1 7337   0.571   7.467   7.175
 2365WAT     H2 7338   0.711   7.531   7.121
 2366WAT      O 7339   7.120   2.160   5.977
 2366WAT     H1 7340   7.219   2.166   5.971
 2366WAT     H2 7341   7.094   2.086   6.038
 2367WAT      O 7342   3.215   3.660   4.610
 2367WAT     H1 7343   3.151   3.611   4.550
 2367WAT     H2 7344   3.308   3.649   4.575
 2368WAT      O 7345   6.658   0.822   9.850
 2368WAT     H1 7346   6.723   0.789   9.919
 2368WAT     H2 7347   6.703   0.887   9.790
 2369WAT      O 7348   7.277   0.752   2.328
 2369WAT     H1 7349   7.352   0.711   2.275
 2369WAT     H2 7350   7.304   0.757   2.424
 2370WAT      O 7351   4.015   2.842   7.121
 2370WAT     H1 7352   4.022   2.847   7.221
 2370WAT     H2 7353   3.919   2.833   7.095
 2371WAT      O 7354   1.019   7.922   9.132
 2371WAT     H1 7355   1.115   7.915   9.159
 2371WAT     H2 7356   1.010   7.902   9.034
 2372WAT      O 7357   0.561   4.243   0.745
 2372WAT     H1 7358   0.490   4.189   0.700
 2372WAT     H2 7359   0.564   4.334   0.705
 2373WAT      O 7360   6.459   1.354   9.228
 2373WAT     H1 7361   6.416   1.437   9.261
 2373WAT     H2 7362   6.516   1.375   9.148
 2374WAT      O 7363   4.753   5.891   4.069
 2374WAT     H1 7364   4.811   5.910   3.990
 2374WAT     H2 7365   4.713   5.976   4.103
 2375WAT      O 7366   2.095   2.686   8.397
 2375WAT     H1 7367   2.145   2.620   8.342
 2375WAT     H2 7368   2.089   2.773   8.347
 2376WAT      O 7369   1.980   7.685   9.738
 2376WAT     H1 7370   1.977   7.783   9.755
 2376WAT     H2 7371   2.001   7.669   9.641
 2377WAT      O 7372   1.940   5.117   2.834
 2377WAT     H1 7373   1.841   5.124   2.820
 2377WAT     H2 7374   1.985   5.097   2.747
 2378WAT      O 7375   8.611   1.759   0.477
 2378WAT     H1 7376   8.656   1.671   0.466
 2378WAT     H2 7377   8.594   1.800   0.388
 2379WAT      O 7378   7.340   1.653   4.622
 2379WAT     H1 7379   7.430   1.612   4.614
 2379WAT     H2 7380   7.276   1.587   4.662
 2380WAT      O 7381   7.657   6.072   7.047
 2380WAT     H1 7382   7.683   6.168   7.049
 2380WAT     H2 7383   7.737   6.016   7.024
 2381WAT      O 7384   8.806   8.643   0.951
 2381WAT     H1 7385   8.782   8.734   0.986
 2381WAT     H2 7386   8.900   8.645   0.917
 2382WAT      O 7387   4.194   1.299   0.173
 2382WAT     H1 7388   4.186   1.245   0.089
 2382WAT     H2 7389   4.123   1.272   0.237
 2383WAT      O 7390   1.357   0.510   5.214
 2383WAT     H1 7391   1.301   0.434   5.248
 2383WAT     H2 7392   1.393   0.562   5.291
 2384WAT      O 7393   0.321   0.572   1.564
 2384WAT     H1 7394   0.260   0.565   1.642
 2384WAT     H2 7395   0.280   0.525   1.485
 2385WAT      O 7396   1.778   2.473   4.732
 2385WAT     H1 7397   1.706   2.415   4.695
 2385WAT     H2 7398   1.739   2.538   4.797
 2386WAT      O 7399   3.615   4.938   7.000
 2386WAT     H1 7400   3.627   4.881   7.081
 2386WAT     H2 7401   3.536   4.906   6.948
 2387WAT      O 7402   5.428   7.398   8.729
 2387WAT     H1 7403   5.365   7.322   8.709
 2387WAT     H2 7404   5.496   7.404   8.655
 2388WAT      O 7405   1.821   4.573   9.837
 2388WAT     H1 7406   1.785   4.654   9.791
 2388WAT     H2 7407   1.762   4.549   9.915
 2389WAT      O 7408   0.556   8.980   8.217
 2389WAT     H1 7409   0.546   8.976   8.316
 2389WAT     H2 7410   0.654   8.982   8.193
 2390WAT      O 7411   5.767   3.172   8.697
 2390WAT     H1 7412   5.783   3.258   8.648
 2390WAT     H2 7413   5.784   3.095   8.636
 2391WAT      O 7414   8.111   2.608   5.105
 2391WAT     H1 7415   8.081   2.644   5.017
 2391WAT     H2 7416   8.115   2.508   5.101
 2392WAT      O 7417   0.189   2.194   8.067
 2392WAT     H1 7418   0.183   2.290   8.042
 2392WAT     H2 7419   0.135   2.178   8.150
 2393WAT      O 7420   6.743   5.650   6.060
 2393WAT     H1 7421   6.702   5.644   5.970
 2393WAT     H2 7422   6.787   5.739   6.072
 2394WAT      O 7423   2.614   7.063   0.448
 2394WAT     H1 7424   2.680   6.990   0.467
 2394WAT     H2 7425   2.529   7.045   0.497
 2395WAT      O 7426   8.355   9.272   7.794
 2395WAT     H1 7427   8.428   9.316   7.846
 2395WAT     H2 7428   8.377   9.176   7.781
 2396WAT      O 7429   9.287   9.350   8.743
 2396WAT     H1 7430   9.187   9.357   8.755
 2396WAT     H2 7431   9.320   9.430   8.693
 2397WAT      O 7432   7.672   2.172   5.339
 2397WAT     H1 7433   7.755   2.152   5.288
 2397WAT     H2 7434   7.659   2.271   5.346
 2398WAT      O 7435   3.198   7.772   3.230
 2398WAT     H1 7436   3.212   7.814   3.141
 2398WAT     H2 7437   3.121   7.816   3.276
 2399WAT      O 7438   4.343   6.815   2.137
 2399WAT     H1 7439   4.307   6.746   2.200
 2399WAT     H2 7440   4.340   6.779   2.044
 2400WAT      O 7441   3.714   7.529   7.432
 2400WAT     H1 7442   3.707   7.477   7.517
 2400WAT     H2 7443   3.788   7.491   7.376
 2401WAT      O 7444   8.140   8.402   4.537
 2401WAT     H1 7445   8.088   8.317   4.531
 2401WAT     H2 7446   8.191   8.404   4.623
 2402WAT      O 7447   8.027   2.719   4.862
 2402WAT     H1 7448   8.090   2.791   4.833
 2402WAT     H2 7449   8.018   2.651   4.789
 2403WAT      O 7450   7.154   8.525   9.314
 2403WAT     H1 7451   7.083   8.557   9.376
 2403WAT     H2 7452   7.178   8.430   9.338
 2404WAT      O 7453   4.402   0.481   9.238
 2404WAT     H1 7454   4.399   0.406   9.305
 2404WAT     H2 7455   4.376   0.566   9.283
 2405WAT      O 7456   6.817   2.842   3.514
 2405WAT     H1 7457   6.789   2.759   3.562
 2405WAT     H2 7458   6.746   2.911   3.523
 2406WAT      O 7459   2.519   2.628   2.585
 2406WAT     H1 7460   2.520   2.556   2.655
 2406WAT     H2 7461   2.424   2.651   2.563
 2407WAT      O 7462   8.274   2.594   7.675
 2407WAT     H1 7463   8.261   2.668   7.742
 2407WAT     H2 7464   8.368   2.595   7.642
 2408WAT      O 7465   0.777   0.015   2.567
 2408WAT     H1 7466   0.856   0.059   2.523
 2408WAT     H2 7467   0.744  -0.060   2.509
 2409WAT      O 7468   3.049   1.660   1.455
 2409WAT     H1 7469   3.125   1.641   1.392
 2409WAT     H2 7470   3.028   1.757   1.453
 2410WAT      O 7471   5.236   6.583   7.097
 2410WAT     H1 7472   5.232   6.553   7.002
 2410WAT     H2 7473   5.222   6.682   7.101
 2411WAT      O 7474   1.126   9.782   9.581
 2411WAT     H1 7475   1.149   9.702   9.636
 2411WAT     H2 7476   1.169   9.773   9.491
 2412WAT      O 7477   9.427   7.651   0.754
 2412WAT     H1 7478   9.452   7.625   0.848
 2412WAT     H2 7479   9.444   7.574   0.693
 2413WAT      O 7480   5.340   1.066   0.984
 2413WAT     H1 7481   5.349   1.025   1.075
 2413WAT     H2 7482   5.253   1.038   0.943
 2414WAT      O 7483   6.270   0.516   5.671
 2414WAT     H1 7484   6.252   0.420   5.650
 2414WAT     H2 7485   6.357   0.524   5.719
 2415WAT      O 7486   8.880   5.585   4.865
 2415WAT     H1 7487   8.883   5.682   4.843
 2415WAT     H2 7488   8.948   5.536   4.811
 2416WAT      O 7489   7.080   0.660   3.476
 2416WAT     H1 7490   7.044   0.575   3.437
 2416WAT     H2 7491   7.087   0.729   3.404
 2417WAT      O 7492   1.228   6.158   7.047
 2417WAT     H1 7493   1.185   6.096   6.982
 2417WAT     H2 7494   1.244   6.247   7.004
 2418WAT      O 7495   5.360   4.599   6.822
 2418WAT     H1 7496   5.366   4.666   6.896
 2418WAT     H2 7497   5.284   4.623   6.761
 2419WAT      O 7498   1.817   4.875   4.701
 2419WAT     H1 7499   1.763   4.938   4.645
 2419WAT     H2 7500   1.772   4.863   4.789
 2420WAT      O 7501   6.459   8.702   2.969
 2420WAT     H1 7502   6.500   8.791   2.992
 2420WAT     H2 7503   6.426   8.658   3.052
 2421WAT      O 7504   6.300   3.616   9.400
 2421WAT     H1 7505   6.319   3.601   9.303
 2421WAT     H2 7506   6.215   3.570   9.424
 2422WAT      O 7507   6.718   2.151   8.778
 2422WAT     H1 7508   6.789   2.098   8.824
 2422WAT     H2 7509   6.630   2.106   8.790
 2423WAT      O 7510   7.045   5.150   5.990
 2423WAT     H1 7511   7.086   5.236   5.959
 2423WAT     H2 7512   7.117   5.087   6.019
 2424WAT      O 7513   1.612   3.655   8.610
 2424WAT     H1 7514   1.542   3.595   8.649
 2424WAT     H2 7515   1.614   3.644   8.511
 2425WAT      O 7516   3.279   0.394   7.154
 2425WAT     H1 7517   3.359   0.372   7.209
 2425WAT     H2 7518   3.241   0.309   7.116
 2426WAT      O 7519   6.056   1.030   3.044
 2426WAT     H1 7520   6.011   0.963   3.103
 2426WAT     H2 7521   6.092   1.105   3.099
 2427WAT      O 7522   0.120   8.561   3.386
 2427WAT     H1 7523   0.207   8.514   3.405
 2427WAT     H2 7524   0.064   8.561   3.468
 2428WAT      O 7525   5.466   1.358   8.027
 2428WAT     H1 7526   5.508   1.419   8.093
 2428WAT     H2 7527   5.388   1.311   8.069
 2429WAT      O 7528   0.197   3.608   3.764
 2429WAT     H1 7529   0.164   3.543   3.833
 2429WAT     H2 7530   0.173   3.574   3.673
 2430WAT      O 7531   8.210   3.486   8.588
 2430WAT     H1 7532   8.278   3.558   8.571
 2430WAT     H2 7533   8.144   3.484   8.513
 2431WAT      O 7534   7.148   1.437   7.359
 2431WAT     H1 7535   7.051   1.453   7.341
 2431WAT     H2 7536   7.183   1.508   7.420
 2432WAT      O 7537   0.828   3.854   7.083
 2432WAT     H1 7538   0.897   3.888   7.147
 2432WAT     H2 7539   0.865   3.774   7.035
 2433WAT      O 7540   1.472   7.587   2.587
 2433WAT     H1 7541   1.538   7.531   2.638
 2433WAT     H2 7542   1.514   7.675   2.564
 2434WAT      O 7543   6.731   5.624   5.752
 2434WAT     H1 7544   6.701   5.647   5.660
 2434WAT     H2 7545   6.737   5.524   5.761
 2435WAT      O 7546   9.749   7.768   8.163
 2435WAT     H1 7547   9.781   7.777   8.257
 2435WAT     H2 7548   9.825   7.738   8.105
 2436WAT      O 7549   6.694   7.258   3.757
 2436WAT     H1 7550   6.731   7.226   3.670
 2436WAT     H2 7551   6.598   7.231   3.764
 2437WAT      O 7552   1.160   5.434   6.539
 2437WAT     H1 7553   1.065   5.454   6.515
 2437WAT     H2 7554   1.163   5.387   6.627
 2438WAT      O 7555   6.326   4.586   7.881
 2438WAT     H1 7556   6.283   4.669   7.845
 2438WAT     H2 7557   6.399   4.611   7.945
 2439WAT      O 7558   7.996   7.013   1.308
 2439WAT     H1 7559   7.898   7.017   1.322
 2439WAT     H2 7560   8.024   6.918   1.292
 2440WAT      O 7561   7.459   2.084   9.809
 2440WAT     H1 7562   7.520   2.057   9.735
 2440WAT     H2 7563   7.513   2.124   9.884
 2441WAT      O 7564   8.816   5.912   5.239
 2441WAT     H1 7565   8.905   5.943   5.204
 2441WAT     H2 7566   8.744   5.937   5.173
 2442WAT      O 7567   8.932   3.704   3.676
 2442WAT     H1 7568   8.890   3.715   3.766
 2442WAT     H2 7569   8.872   3.649   3.618
 2443WAT      O 7570   5.507   5.264   6.750
 2443WAT     H1 7571   5.526   5.282   6.654
 2443WAT     H2 7572   5.410   5.247   6.763
 2444WAT      O 7573   9.052   6.620   5.448
 2444WAT     H1 7574   8.989   6.575   5.384
 2444WAT     H2 7575   9.080   6.709   5.410
 2445WAT      O 7576   4.869   8.478   1.790
 2445WAT     H1 7577   4.810   8.470   1.870
 2445WAT     H2 7578   4.880   8.389   1.747
 2446WAT      O 7579   4.743   1.851   5.372
 2446WAT     H1 7580   4.812   1.785   5.344
 2446WAT     H2 7581   4.775   1.901   5.452
 2447WAT      O 7582   6.158   9.332   7.794
 2447WAT     H1 7583   6.083   9.351   7.730
 2447WAT     H2 7584   6.228   9.277   7.748
 2448WAT      O 7585   9.841   8.656   8.124
 2448WAT     H1 7586   9.897   8.719   8.071
 2448WAT     H2 7587   9.900   8.587   8.167
 2449WAT      O 7588   2.732   0.793   0.169
 2449WAT     H1 7589   2.769   0.766   0.258
 2449WAT     H2 7590   2.696   0.712   0.122
 2450WAT      O 7591   7.626   0.205   2.810
 2450WAT     H1 7592   7.637   0.135   2.880
 2450WAT     H2 7593   7.645   0.167   2.720
 2451WAT      O 7594   4.030   2.067   4.204
 2451WAT     H1 7595   4.012   2.154   4.157
 2451WAT     H2 7596   3.943   2.022   4.224
 2452WAT      O 7597   8.905   2.496   8.890
 2452WAT     H1 7598   8.869   2.444   8.813
 2452WAT     H2 7599   8.999   2.468   8.909
 2453WAT      O 7600   7.912   4.634   7.138
 2453WAT     H1 7601   7.834   4.607   7.082
 2453WAT     H2 7602   7.883   4.644   7.234
 2454WAT      O 7603   7.926   0.171   2.890
 2454WAT     H1 7604   7.897   0.163   2.985
 2454WAT     H2 7605   7.936   0.268   2.866
 2455WAT      O 7606   6.270   9.664   6.518
 2455WAT     H1 7607   6.284   9.595   6.447
 2455WAT     H2 7608   6.190   9.720   6.494
 2456WAT      O 7609   6.433   5.833   8.672
 2456WAT     H1 7610   6.408   5.863   8.764
 2456WAT     H2 7611   6.362   5.861   8.608
 2457WAT      O 7612   9.379   8.950   6.284
 2457WAT     H1 7613   9.342   9.042   6.267
 2457WAT     H2 7614   9.321   8.903   6.350
 2458WAT      O 7615   5.143   6.761   9.178
 2458WAT     H1 7616   5.146   6.666   9.148
 2458WAT     H2 7617   5.189   6.770   9.266
 2459WAT      O 7618   9.573   5.015   1.179
 2459WAT     H1 7619   9.644   5.030   1.110
 2459WAT     H2 7620   9.607   5.043   1.268
 2460WAT      O 7621   6.294   1.112   8.739
 2460WAT     H1 7622   6.214   1.123   8.798
 2460WAT     H2 7623   6.317   1.014   8.732
 2461WAT      O 7624   4.371   9.539   8.864
 2461WAT     H1 7625   4.400   9.633   8.844
 2461WAT     H2 7626   4.410   9.509   8.951
 2462WAT      O 7627   0.763   4.249   8.964
 2462WAT     H1 7628   0.758   4.149   8.961
 2462WAT     H2 7629   0.775   4.278   9.059
 2463WAT      O 7630   3.680   6.532   4.992
 2463WAT     H1 7631   3.731   6.603   4.943
 2463WAT     H2 7632   3.734   6.500   5.070
 2464WAT      O 7633   7.495   1.130   8.550
 2464WAT     H1 7634   7.474   1.033   8.559
 2464WAT     H2 7635   7.594   1.143   8.558
 2465WAT      O 7636   6.224   7.035   6.550
 2465WAT     H1 7637   6.205   7.080   6.637
 2465WAT     H2 7638   6.179   6.946   6.548
 2466WAT      O 7639   4.292   6.345   3.551
 2466WAT     H1 7640   4.208   6.318   3.597
 2466WAT     H2 7641   4.326   6.430   3.591
 2467WAT      O 7642   2.608   3.954   1.261
 2467WAT     H1 7643   2.650   3.984   1.175
 2467WAT     H2 7644   2.594   4.034   1.320
 2468WAT      O 7645   1.338   2.775   4.407
 2468WAT     H1 7646   1.414   2.722   4.445
 2468WAT     H2 7647   1.358   2.799   4.312
 2469WAT      O 7648   0.576   8.716   6.928
 2469WAT     H1 7649   0.498   8.710   6.991
 2469WAT     H2 7650   0.554   8.669   6.843
 2470WAT      O 7651   4.900   4.285   3.832
 2470WAT     H1 7652   4.942   4.201   3.798
 2470WAT     H2 7653   4.900   4.354   3.760
 2471WAT      O 7654   8.090   1.171   4.675
 2471WAT     H1 7655   8.065   1.172   4.772
 2471WAT     H2 7656   8.189   1.167   4.665
 2472WAT      O 7657   9.053   3.458   4.161
 2472WAT     H1 7658   9.104   3.482   4.243
 2472WAT     H2 7659   9.117   3.446   4.085
 2473WAT      O 7660   8.234   2.561   1.394
 2473WAT     H1 7661   8.323   2.600   1.418
 2473WAT     H2 7662   8.242   2.506   1.311
 2474WAT      O 7663   4.398   1.485   0.258
 2474WAT     H1 7664   4.316   1.430   0.241
 2474WAT     H2 7665   4.437   1.514   0.171
 2475WAT      O 7666   4.426   3.819   3.221
 2475WAT     H1 7667   4.472   3.806   3.133
 2475WAT     H2 7668   4.363   3.742   3.236
 2476WAT      O 7669   8.277   4.532   0.300
 2476WAT     H1 7670   8.315   4.456   0.352
 2476WAT     H2 7671   8.342   4.561   0.230
 2477WAT      O 7672   9.547   5.655   4.139
 2477WAT     H1 7673   9.540   5.561   4.106
 2477WAT     H2 7674   9.541   5.655   4.239
 2478WAT      O 7675   8.902   6.497   4.767
 2478WAT     H1 7676   8.820   6.484   4.823
 2478WAT     H2 7677   8.979   6.449   4.809
 2479WAT      O 7678   4.886   3.282   2.266
 2479WAT     H1 7679   4.807   3.232   2.300
 2479WAT     H2 7680   4.907   3.358   2.328
 2480WAT      O 7681   5.020   7.184   3.617
 2480WAT     H1 7682   5.052   7.134   3.535
 2480WAT     H2 7683   5.077   7.159   3.695
 2481WAT      O 7684   8.439   7.363   3.991
 2481WAT     H1 7685   8.341   7.356   3.974
 2481WAT     H2 7686   8.455   7.432   4.062
 2482WAT      O 7687   1.727   8.703   8.029
 2482WAT     H1 7688   1.730   8.619   7.975
 2482WAT     H2 7689   1.758   8.780   7.974
 2483WAT      O 7690   8.654   0.632   2.730
 2483WAT     H1 7691   8.743   0.641   2.775
 2483WAT     H2 7692   8.591   0.702   2.765
 2484WAT      O 7693   4.924   2.168   5.088
 2484WAT     H1 7694   4.852   2.099   5.081
 2484WAT     H2 7695   4.884   2.256   5.110
 2485WAT      O 7696   6.667   2.706   6.049
 2485WAT     H1 7697   6.585   2.750   6.012
 2485WAT     H2 7698   6.746   2.765   6.032
 2486WAT      O 7699   8.759   6.146   5.825
 2486WAT     H1 7700   8.815   6.150   5.907
 2486WAT     H2 7701   8.701   6.227   5.820
 2487WAT      O 7702   0.156   7.329   2.014
 2487WAT     H1 7703   0.126   7.422   2.036
 2487WAT     H2 7704   0.081   7.279   1.971
 2488WAT      O 7705   3.965   3.655   5.700
 2488WAT     H1 7706   3.942   3.753   5.695
 2488WAT     H2 7707   3.995   3.624   5.610
 2489WAT      O 7708   5.158   6.442   8.142
 2489WAT     H1 7709   5.137   6.525   8.193
 2489WAT     H2 7710   5.143   6.362   8.200
 2490WAT      O 7711   3.025   8.168   6.133
 2490WAT     H1 7712   3.028   8.268   6.130
 2490WAT     H2 7713   2.936   8.138   6.167
 2491WAT      O 7714   5.231   4.711   2.163
 2491WAT     H1 7715   5.273   4.794   2.197
 2491WAT     H2 7716   5.182   4.731   2.078
 2492WAT      O 7717   1.438   1.449   3.339
 2492WAT     H1 7718   1.442   1.379   3.409
 2492WAT     H2 7719   1.444   1.407   3.248
 2493WAT      O 7720   5.737   4.860   2.477
 2493WAT     H1 7721   5.661   4.822   2.531
 2493WAT     H2 7722   5.810   4.792   2.471
 2494WAT      O 7723   2.615   5.741   1.480
 2494WAT     H1 7724   2.715   5.749   1.473
 2494WAT     H2 7725   2.573   5.831   1.472
 2495WAT      O 7726   8.571   3.746   3.137
 2495WAT     H1 7727   8.556   3.815   3.208
 2495WAT     H2 7728   8.591   3.791   3.050
 2496WAT      O 7729   1.586   4.676   0.854
 2496WAT     H1 7730   1.620   4.759   0.898
 2496WAT     H2 7731   1.532   4.700   0.774
 2497WAT      O 7732   2.341   9.001   3.221
 2497WAT     H1 7733   2.338   8.901   3.225
 2497WAT     H2 7734   2.421   9.029   3.168
 2498WAT      O 7735   6.237   4.121   8.018
 2498WAT     H1 7736   6.231   4.196   8.084
 2498WAT     H2 7737   6.252   4.035   8.067
 2499WAT      O 7738   1.063   1.104   7.330
 2499WAT     H1 7739   1.057   1.136   7.236
 2499WAT     H2 7740   1.158   1.101   7.358
 2500WAT      O 7741   6.601   3.738   5.317
 2500WAT     H1 7742   6.648   3.654   5.290
 2500WAT     H2 7743   6.596   3.800   5.240
 2501WAT      O 7744   8.200   1.709   7.924
 2501WAT     H1 7745   8.222   1.756   7.839
 2501WAT     H2 7746   8.250   1.622   7.928
 2502WAT      O 7747   2.592   2.356   9.387
 2502WAT     H1 7748   2.568   2.261   9.408
 2502WAT     H2 7749   2.661   2.358   9.315
 2503WAT      O 7750   8.683   8.797   7.810
 2503WAT     H1 7751   8.647   8.708   7.781
 2503WAT     H2 7752   8.767   8.817   7.761
 2504WAT      O 7753   5.528   8.827   5.534
 2504WAT     H1 7754   5.474   8.763   5.590
 2504WAT     H2 7755   5.497   8.920   5.550
 2505WAT      O 7756   4.066   6.416   5.378
 2505WAT     H1 7757   4.089   6.512   5.388
 2505WAT     H2 7758   4.077   6.389   5.282
 2506WAT      O 7759   6.781   5.573   5.469
 2506WAT     H1 7760   6.773   5.660   5.421
 2506WAT     H2 7761   6.843   5.512   5.420
 2507WAT      O 7762   9.077   3.111   5.295
 2507WAT     H1 7763   9.121   3.177   5.235
 2507WAT     H2 7764   8.982   3.138   5.311
 2508WAT      O 7765   2.703   7.404   6.023
 2508WAT     H1 7766   2.696   7.367   5.930
 2508WAT     H2 7767   2.772   7.477   6.025
 2509WAT      O 7768   6.300   4.549   2.888
 2509WAT     H1 7769   6.232   4.482   2.858
 2509WAT     H2 7770   6.368   4.562   2.816
 2510WAT      O 7771   2.334   4.544   9.176
 2510WAT     H1 7772   2.350   4.639   9.201
 2510WAT     H2 7773   2.367   4.484   9.250
 2511WAT      O 7774   5.853   8.138   9.552
 2511WAT     H1 7775   5.905   8.054   9.536
 2511WAT     H2 7776   5.823   8.141   9.648
 2512WAT      O 7777   4.092   2.581   3.851
 2512WAT     H1 7778   4.160   2.618   3.914
 2512WAT     H2 7779   4.124   2.493   3.816
 2513WAT      O 7780   2.553   5.382   0.961
 2513WAT     H1 7781   2.593   5.348   0.876
 2513WAT     H2 7782   2.457   5.403   0.946
 2514WAT      O 7783   8.455   6.300   9.819
 2514WAT     H1 7784   8.446   6.370   9.890
 2514WAT     H2 7785   8.529   6.238   9.843
 2515WAT      O 7786   2.914   4.470   7.336
 2515WAT     H1 7787   2.860   4.395   7.375
 2515WAT     H2 7788   2.869   4.505   7.254
 2516WAT      O 7789   3.070   5.658   6.094
 2516WAT     H1 7790   3.076   5.750   6.055
 2516WAT     H2 7791   3.126   5.654   6.177
 2517WAT      O 7792   1.495   1.441   9.353
 2517WAT     H1 7793   1.522   1.374   9.422
 2517WAT     H2 7794   1.535   1.416   9.265
 2518WAT      O 7795   2.928   4.708   7.478
 2518WAT     H1 7796   2.955   4.701   7.574
 2518WAT     H2 7797   2.948   4.622   7.431
 2519WAT      O 7798   6.533   0.723   0.830
 2519WAT     H1 7799   6.514   0.751   0.736
 2519WAT     H2 7800   6.448   0.693   0.873
 2520WAT      O 7801   6.374   7.727   1.110
 2520WAT     H1 7802   6.340   7.643   1.067
 2520WAT     H2 7803   6.451   7.763   1.057
 2521WAT      O 7804   3.455   2.484   8.184
 2521WAT     H1 7805   3.530   2.472   8.119
 2521WAT     H2 7806   3.394   2.405   8.179
 2522WAT      O 7807   2.042   5.600   3.950
 2522WAT     H1 7808   2.076   5.560   3.865
 2522WAT     H2 7809   2.015   5.695   3.933
 2523WAT      O 7810   2.641   5.908   8.554
 2523WAT     H1 7811   2.590   5.898   8.639
 2523WAT     H2 7812   2.647   5.819   8.508
 2524WAT      O 7813   2.686   5.545   0.131
 2524WAT     H1 7814   2.678   5.606   0.210
 2524WAT     H2 7815   2.766   5.486   0.143
 2525WAT      O 7816   0.463   8.566   8.222
 2525WAT     H1 7817   0.391   8.616   8.270
 2525WAT     H2 7818   0.550   8.616   8.233
 2526WAT      O 7819   2.829   7.293   4.187
 2526WAT     H1 7820   2.799   7.326   4.098
 2526WAT     H2 7821   2.929   7.298   4.192
 2527WAT      O 7822   0.930   7.772   2.087
 2527WAT     H1 7823   0.843   7.722   2.082
 2527WAT     H2 7824   0.990   7.727   2.153
 2528WAT      O 7825   7.817   2.440   5.954
 2528WAT     H1 7826   7.841   2.482   6.041
 2528WAT     H2 7827   7.735   2.484   5.917
 2529WAT      O 7828   2.725   0.096   7.225
 2529WAT     H1 7829   2.650   0.114   7.161
 2529WAT     H2 7830   2.759   0.183   7.261
 2530WAT      O 7831   6.305   8.683   3.446
 2530WAT     H1 7832   6.384   8.741   3.460
 2530WAT     H2 7833   6.231   8.711   3.507
 2531WAT      O 7834   8.765   7.491   7.333
 2531WAT     H1 7835   8.774   7.563   7.264
 2531WAT     H2 7836   8.812   7.409   7.302
 2532WAT      O 7837   8.177   5.304   5.458
 2532WAT     H1 7838   8.104   5.316   5.526
 2532WAT     H2 7839   8.265   5.299   5.505
 2533WAT      O 7840   0.095   9.035   8.365
 2533WAT     H1 7841   0.158   8.992   8.300
 2533WAT     H2 7842   0.087   8.979   8.447
 2534WAT      O 7843   5.680   9.150   3.144
 2534WAT     H1 7844   5.604   9.086   3.127
 2534WAT     H2 7845   5.672   9.186   3.237
 2535WAT      O 7846   6.949   6.113   2.325
 2535WAT     H1 7847   6.962   6.210   2.305
 2535WAT     H2 7848   6.934   6.063   2.239
 2536WAT      O 7849   8.645   8.528   7.762
 2536WAT     H1 7850   8.591   8.475   7.827
 2536WAT     H2 7851   8.726   8.476   7.736
 2537WAT      O 7852   1.156   5.995   7.654
 2537WAT     H1 7853   1.099   5.969   7.576
 2537WAT     H2 7854   1.250   6.006   7.624
 2538WAT      O 7855   6.166   1.855   7.568
 2538WAT     H1 7856   6.150   1.940   7.620
 2538WAT     H2 7857   6.199   1.784   7.630
 2539WAT      O 7858   0.751   3.884   9.268
 2539WAT     H1 7859   0.757   3.803   9.210
 2539WAT     H2 7860   0.755   3.966   9.211
 2540WAT      O 7861   9.288   1.315   9.489
 2540WAT     H1 7862   9.378   1.288   9.524
 2540WAT     H2 7863   9.266   1.261   9.408
 2541WAT      O 7864   4.402   4.671   0.251
 2541WAT     H1 7865   4.374   4.614   0.328
 2541WAT     H2 7866   4.493   4.643   0.220
 2542WAT      O 7867   5.954   0.504   1.627
 2542WAT     H1 7868   5.939   0.527   1.530
 2542WAT     H2 7869   6.050   0.484   1.641
 2543WAT      O 7870   1.345   2.718   3.935
 2543WAT     H1 7871   1.295   2.632   3.925
 2543WAT     H2 7872   1.288   2.793   3.903
 2544WAT      O 7873   2.635   4.909   0.781
 2544WAT     H1 7874   2.645   4.834   0.717
 2544WAT     H2 7875   2.583   4.983   0.738
 2545WAT      O 7876   2.838   5.591   8.672
 2545WAT     H1 7877   2.887   5.676   8.692
 2545WAT     H2 7878   2.763   5.609   8.608
 2546WAT      O 7879   8.050   1.939   3.732
 2546WAT     H1 7880   7.997   1.987   3.802
 2546WAT     H2 7881   8.046   1.841   3.749
 2547WAT      O 7882   3.732   7.793   5.322
 2547WAT     H1 7883   3.669   7.820   5.249
 2547WAT     H2 7884   3.680   7.768   5.403
 2548WAT      O 7885   6.984   4.849   3.753
 2548WAT     H1 7886   6.919   4.848   3.829
 2548WAT     H2 7887   7.077   4.839   3.787
 2549WAT      O 7888   6.002   2.198   6.943
 2549WAT     H1 7889   6.064   2.196   6.864
 2549WAT     H2 7890   5.931   2.267   6.928
 2550WAT      O 7891   1.155   3.140   7.036
 2550WAT     H1 7892   1.241   3.155   6.988
 2550WAT     H2 7893   1.099   3.222   7.033
 2551WAT      O 7894   7.827   8.955   0.419
 2551WAT     H1 7895   7.772   8.978   0.499
 2551WAT     H2 7896   7.800   8.864   0.386
 2552WAT      O 7897   1.958   7.812   6.794
 2552WAT     H1 7898   2.002   7.769   6.715
 2552WAT     H2 7899   1.981   7.761   6.877
 2553WAT      O 7900   3.048   2.803   2.646
 2553WAT     H1 7901   3.101   2.755   2.577
 2553WAT     H2 7902   3.109   2.857   2.704
 2554WAT      O 7903   2.411   7.756   2.694
 2554WAT     H1 7904   2.478   7.686   2.667
 2554WAT     H2 7905   2.325   7.711   2.718
 2555WAT      O 7906   2.849   8.311   7.040
 2555WAT     H1 7907   2.895   8.268   7.117
 2555WAT     H2 7908   2.778   8.373   7.073
 2556WAT      O 7909   3.191   9.191   1.434
 2556WAT     H1 7910   3.132   9.268   1.410
 2556WAT     H2 7911   3.241   9.213   1.518
 2557WAT      O 7912   1.549   6.344   3.862
 2557WAT     H1 7913   1.492   6.415   3.821
 2557WAT     H2 7914   1.493   6.265   3.886
 2558WAT      O 7915   2.771   5.185   4.487
 2558WAT     H1 7916   2.778   5.284   4.477
 2558WAT     H2 7917   2.714   5.164   4.566
 2559WAT      O 7918   0.168   4.657   9.311
 2559WAT     H1 7919   0.137   4.589   9.244
 2559WAT     H2 7920   0.256   4.695   9.282
 2560WAT      O 7921   2.881   6.971   0.756
 2560WAT     H1 7922   2.836   6.953   0.668
 2560WAT     H2 7923   2.850   6.902   0.822
 2561WAT      O 7924   1.721   1.568   9.690
 2561WAT     H1 7925   1.702   1.478   9.730
 2561WAT     H2 7926   1.743   1.633   9.763
 2562WAT      O 7927   5.957   4.895   6.762
 2562WAT     H1 7928   5.995   4.912   6.671
 2562WAT     H2 7929   5.859   4.914   6.760
 2563WAT      O 7930   2.397   3.734   0.623
 2563WAT     H1 7931   2.309   3.776   0.645
 2563WAT     H2 7932   2.395   3.699   0.530
 2564WAT      O 7933   0.582   6.846   5.823
 2564WAT     H1 7934   0.564   6.943   5.839
 2564WAT     H2 7935   0.586   6.829   5.724
 2565WAT      O 7936   5.244   6.951   2.009
 2565WAT     H1 7937   5.340   6.938   2.031
 2565WAT     H2 7938   5.200   6.862   1.996
 2566WAT      O 7939   0.140   6.581   7.230
 2566WAT     H1 7940   0.108   6.594   7.324
 2566WAT     H2 7941   0.194   6.661   7.203
 2567WAT      O 7942   4.295   1.608   6.019
 2567WAT     H1 7943   4.355   1.657   6.082
 2567WAT     H2 7944   4.237   1.545   6.071
 2568WAT      O 7945   4.535   8.202   3.555
 2568WAT     H1 7946   4.597   8.234   3.627
 2568WAT     H2 7947   4.585   8.197   3.468
 2569WAT      O 7948   4.223   0.347   2.664
 2569WAT     H1 7949   4.208   0.425   2.725
 2569WAT     H2 7950   4.268   0.377   2.580
 2570WAT      O 7951   6.128   8.339   6.926
 2570WAT     H1 7952   6.062   8.389   6.982
 2570WAT     H2 7953   6.080   8.284   6.858
 2571WAT      O 7954   8.199   9.102   3.914
 2571WAT     H1 7955   8.180   9.144   4.002
 2571WAT     H2 7956   8.127   9.037   3.891
 2572WAT      O 7957   9.022   5.566   5.752
 2572WAT     H1 7958   9.065   5.650   5.785
 2572WAT     H2 7959   8.976   5.520   5.828
 2573WAT      O 7960   9.451   3.741   9.065
 2573WAT     H1 7961   9.356   3.766   9.044
 2573WAT     H2 7962   9.481   3.791   9.146
 2574WAT      O 7963   1.362   7.170   5.942
 2574WAT     H1 7964   1.441   7.209   5.895
 2574WAT     H2 7965   1.296   7.242   5.962
 2575WAT      O 7966   0.857   3.550   1.484
 2575WAT     H1 7967   0.852   3.477   1.552
 2575WAT     H2 7968   0.814   3.633   1.521
 2576WAT      O 7969   0.750   8.119   4.185
 2576WAT     H1 7970   0.811   8.093   4.109
 2576WAT     H2 7971   0.803   8.124   4.270
 2577WAT      O 7972   6.699   3.026   2.783
 2577WAT     H1 7973   6.695   2.981   2.694
 2577WAT     H2 7974   6.784   3.002   2.829
 2578WAT      O 7975   2.443   6.839   5.978
 2578WAT     H1 7976   2.418   6.934   5.963
 2578WAT     H2 7977   2.366   6.790   6.019
 2579WAT      O 7978   2.453   2.341   1.527
 2579WAT     H1 7979   2.475   2.313   1.621
 2579WAT     H2 7980   2.388   2.417   1.530
 2580WAT      O 7981   3.271   4.633   3.671
 2580WAT     H1 7982   3.296   4.729   3.687
 2580WAT     H2 7983   3.263   4.617   3.573
 2581WAT      O 7984   5.447   1.522   8.971
 2581WAT     H1 7985   5.423   1.428   8.948
 2581WAT     H2 7986   5.502   1.562   8.897
 2582WAT      O 7987   4.279   5.607   7.466
 2582WAT     H1 7988   4.225   5.523   7.469
 2582WAT     H2 7989   4.373   5.588   7.494
 2583WAT      O 7990   4.945   7.471   7.067
 2583WAT     H1 7991   4.918   7.482   6.972
 2583WAT     H2 7992   4.926   7.555   7.117
 2584WAT      O 7993   1.562   2.585   5.498
 2584WAT     H1 7994   1.598   2.670   5.460
 2584WAT     H2 7995   1.613   2.562   5.582
 2585WAT      O 7996   1.358   2.647   7.676
 2585WAT     H1 7997   1.371   2.724   7.614
 2585WAT     H2 7998   1.439   2.638   7.735
 2586WAT      O 7999   2.014   0.581   6.197
 2586WAT     H1 8000   2.008   0.486   6.227
 2586WAT     H2 8001   2.028   0.584   6.098
 2587WAT      O 8002   9.610   1.731   4.340
 2587WAT     H1 8003   9.604   1.734   4.439
 2587WAT     H2 8004   9.536   1.786   4.301
 2588WAT      O 8005   4.145   8.726   7.762
 2588WAT     H1 8006   4.117   8.761   7.852
 2588WAT     H2 8007   4.063   8.707   7.707
 2589WAT      O 8008   3.283   2.565   9.715
 2589WAT     H1 8009   3.204   2.611   9.675
 2589WAT     H2 8010   3.277   2.567   9.814
 2590WAT      O 8011   4.675   3.187   0.647
 2590WAT     H1 8012   4.703   3.092   0.640
 2590WAT     H2 8013   4.616   3.199   0.727
 2591WAT      O 8014   6.031   8.788   5.757
 2591WAT     H1 8015   6.064   8.828   5.671
 2591WAT     H2 8016   6.109   8.765   5.815
 2592WAT      O 8017   7.912   4.907   5.406
 2592WAT     H1 8018   7.868   4.983   5.358
 2592WAT     H2 8019   7.916   4.927   5.504
 2593WAT      O 8020   1.208   6.816   7.991
 2593WAT     H1 8021   1.212   6.719   8.016
 2593WAT     H2 8022   1.129   6.859   8.034
 2594WAT      O 8023   3.494   9.486   4.039
 2594WAT     H1 8024   3.442   9.403   4.018
 2594WAT     H2 8025   3.483   9.552   3.965
 2595WAT      O 8026   4.064   3.086   0.462
 2595WAT     H1 8027   3.983   3.054   0.512
 2595WAT     H2 8028   4.146   3.044   0.500
 2596WAT      O 8029   7.369   4.635   0.434
 2596WAT     H1 8030   7.373   4.583   0.349
 2596WAT     H2 8031   7.442   4.703   0.435
 2597WAT      O 8032   0.186   7.630   1.218
 2597WAT     H1 8033   0.089   7.616   1.240
 2597WAT     H2 8034   0.205   7.588   1.129
 2598WAT      O 8035   7.135   0.634   0.384
 2598WAT     H1 8036   7.175   0.696   0.316
 2598WAT     H2 8037   7.040   0.659   0.401
 2599WAT      O 8038   6.855   7.304   3.165
 2599WAT     H1 8039   6.953   7.294   3.180
 2599WAT     H2 8040   6.827   7.247   3.089
 2600WAT      O 8041   8.836   8.272   3.245
 2600WAT     H1 8042   8.803   8.184   3.212
 2600WAT     H2 8043   8.808   8.344   3.182
 2601WAT      O 8044   4.936   6.395   5.914
 2601WAT     H1 8045   4.939   6.485   5.959
 2601WAT     H2 8046   4.962   6.324   5.980
 2602WAT      O 8047   5.066   0.934   2.075
 2602WAT     H1 8048   5.118   1.018   2.085
 2602WAT     H2 8049   4.974   0.947   2.112
 2603WAT      O 8050   0.300   8.094   0.269
 2603WAT     H1 8051   0.212   8.098   0.223
 2603WAT     H2 8052   0.309   8.006   0.317
 2604WAT      O 8053   2.756   1.090   6.009
 2604WAT     H1 8054   2.820   1.167   6.003
 2604WAT     H2 8055   2.724   1.066   5.917
 2605WAT      O 8056   9.828   4.521   7.332
 2605WAT     H1 8057   9.746   4.562   7.372
 2605WAT     H2 8058   9.905   4.536   7.393
 2606WAT      O 8059   5.922   5.743   8.365
 2606WAT     H1 8060   5.835   5.790   8.354
 2606WAT     H2 8061   5.997   5.806   8.342
 2607WAT      O 8062   7.028   9.808   7.791
 2607WAT     H1 8063   6.979   9.767   7.714
 2607WAT     H2 8064   7.055   9.901   7.768
 2608WAT      O 8065   3.657   0.474   6.768
 2608WAT     H1 8066   3.741   0.429   6.800
 2608WAT     H2 8067   3.646   0.459   6.670
 2609WAT      O 8068   3.636   6.618   5.514
 2609WAT     H1 8069   3.667   6.695   5.457
 2609WAT     H2 8070   3.710   6.590   5.575
 2610WAT      O 8071   4.404   0.947   5.497
 2610WAT     H1 8072   4.428   0.904   5.410
 2610WAT     H2 8073   4.403   1.046   5.486
 2611WAT      O 8074   4.011   8.274   8.818
 2611WAT     H1 8075   3.953   8.263   8.899
 2611WAT     H2 8076   3.953   8.285   8.738
 2612WAT      O 8077   5.794   5.275   0.818
 2612WAT     H1 8078   5.832   5.229   0.737
 2612WAT     H2 8079   5.809   5.217   0.898
 2613WAT      O 8080   6.675   9.846   3.973
 2613WAT     H1 8081   6.745   9.866   3.904
 2613WAT     H2 8082   6.631   9.759   3.951
 2614WAT      O 8083   3.209   1.449   2.223
 2614WAT     H1 8084   3.259   1.462   2.137
 2614WAT     H2 8085   3.261   1.391   2.284
 2615WAT      O 8086   5.924   9.266   4.772
 2615WAT     H1 8087   6.020   9.249   4.791
 2615WAT     H2 8088   5.874   9.179   4.770
 2616WAT      O 8089   8.524   1.107   8.624
 2616WAT     H1 8090   8.496   1.074   8.534
 2616WAT     H2 8091   8.540   1.029   8.685
 2617WAT      O 8092   2.532   2.906   4.774
 2617WAT     H1 8093   2.582   2.883   4.857
 2617WAT     H2 8094   2.440   2.867   4.779
 2618WAT      O 8095   7.184   6.679   0.488
 2618WAT     H1 8096   7.090   6.707   0.504
 2618WAT     H2 8097   7.212   6.612   0.556
 2619WAT      O 8098   0.931   3.240   1.061
 2619WAT     H1 8099   0.973   3.269   1.147
 2619WAT     H2 8100   0.844   3.289   1.049
 2620WAT      O 8101   3.038   3.144   5.571
 2620WAT     H1 8102   3.026   3.126   5.668
 2620WAT     H2 8103   3.124   3.193   5.556
 2621WAT      O 8104   3.771   6.994   0.331
 2621WAT     H1 8105   3.755   7.042   0.245
 2621WAT     H2 8106   3.684   6.966   0.371
 2622WAT      O 8107   0.648   3.557   1.727
 2622WAT     H1 8108   0.683   3.645   1.694
 2622WAT     H2 8109   0.711   3.484   1.701
 2623WAT      O 8110   5.251   1.752   8.938
 2623WAT     H1 8111   5.159   1.792   8.941
 2623WAT     H2 8112   5.307   1.792   9.010
 2624WAT      O 8113   7.511   4.711   1.207
 2624WAT     H1 8114   7.593   4.667   1.170
 2624WAT     H2 8115   7.500   4.685   1.303
 2625WAT      O 8116   3.789   8.737   7.960
 2625WAT     H1 8117   3.886   8.762   7.959
 2625WAT     H2 8118   3.761   8.716   8.054
 2626WAT      O 8119   2.531   2.188   3.856
 2626WAT     H1 8120   2.516   2.248   3.778
 2626WAT     H2 8121   2.465   2.112   3.853
 2627WAT      O 8122   3.339   5.971   3.299
 2627WAT     H1 8123   3.397   6.047   3.328
 2627WAT     H2 8124   3.320   5.911   3.377
 2628WAT      O 8125   4.314   6.213   4.515
 2628WAT     H1 8126   4.250   6.154   4.465
 2628WAT     H2 8127   4.264   6.265   4.584
 2629WAT      O 8128   7.071   0.676   6.237
 2629WAT     H1 8129   7.150   0.681   6.176
 2629WAT     H2 8130   7.080   0.745   6.309
 2630WAT      O 8131   3.623   8.083   4.060
 2630WAT     H1 8132   3.676   8.151   4.008
 2630WAT     H2 8133   3.654   8.082   4.155
 2631WAT      O 8134   0.243   5.791   7.870
 2631WAT     H1 8135   0.334   5.782   7.830
 2631WAT     H2 8136   0.249   5.780   7.970
 2632WAT      O 8137   1.919   8.557   1.883
 2632WAT     H1 8138   1.948   8.590   1.973
 2632WAT     H2 8139   1.889   8.634   1.827
 2633WAT      O 8140   5.643   7.728   7.254
 2633WAT     H1 8141   5.622   7.631   7.271
 2633WAT     H2 8142   5.623   7.781   7.336
 2634WAT      O 8143   2.938   0.313   7.736
 2634WAT     H1 8144   2.993   0.355   7.663
 2634WAT     H2 8145   2.954   0.214   7.737
 2635WAT      O 8146   1.812   5.497   3.261
 2635WAT     H1 8147   1.826   5.575   3.201
 2635WAT     H2 8148   1.813   5.413   3.208
 2636WAT      O 8149   1.078   5.326   4.368
 2636WAT     H1 8150   1.095   5.314   4.270
 2636WAT     H2 8151   0.980   5.329   4.385
 2637WAT      O 8152   8.459   2.461   0.238
 2637WAT     H1 8153   8.539   2.495   0.189
 2637WAT     H2 8154   8.393   2.536   0.249
 2638WAT      O 8155   8.679   2.512   0.097
 2638WAT     H1 8156   8.744   2.570   0.146
 2638WAT     H2 8157   8.671   2.544   0.002
 2639WAT      O 8158   2.935   7.896   2.487
 2639WAT     H1 8159   2.851   7.844   2.471
 2639WAT     H2 8160   2.950   7.907   2.585
 2640WAT      O 8161   4.491   3.074   1.543
 2640WAT     H1 8162   4.515   3.159   1.497
 2640WAT     H2 8163   4.456   3.094   1.635
 2641WAT      O 8164   5.491   6.720   0.306
 2641WAT     H1 8165   5.413   6.666   0.274
 2641WAT     H2 8166   5.510   6.793   0.241
 2642WAT      O 8167   5.036   2.713   6.394
 2642WAT     H1 8168   4.992   2.628   6.365
 2642WAT     H2 8169   4.970   2.788   6.390
 2643WAT      O 8170   4.882   3.360   1.338
 2643WAT     H1 8171   4.923   3.272   1.363
 2643WAT     H2 8172   4.914   3.387   1.247
 2644WAT      O 8173   1.120   5.019   9.593
 2644WAT     H1 8174   1.144   4.934   9.547
 2644WAT     H2 8175   1.185   5.037   9.667
 2645WAT      O 8176   5.198   3.593   7.465
 2645WAT     H1 8177   5.101   3.570   7.463
 2645WAT     H2 8178   5.221   3.649   7.386
 2646WAT      O 8179   1.171   2.172   6.218
 2646WAT     H1 8180   1.189   2.267   6.242
 2646WAT     H2 8181   1.245   2.137   6.161
 2647WAT      O 8182   5.210   9.384   6.468
 2647WAT     H1 8183   5.214   9.483   6.450
 2647WAT     H2 8184   5.269   9.362   6.545
 2648WAT      O 8185   5.132   6.694   1.960
 2648WAT     H1 8186   5.101   6.615   1.907
 2648WAT     H2 8187   5.161   6.664   2.051
 2649WAT      O 8188   3.260   6.402   8.413
 2649WAT     H1 8189   3.182   6.404   8.476
 2649WAT     H2 8190   3.344   6.388   8.465
 2650WAT      O 8191   0.564   9.003   6.445
 2650WAT     H1 8192   0.468   9.007   6.417
 2650WAT     H2 8193   0.610   8.929   6.396
 2651WAT      O 8194   2.932   7.508   7.949
 2651WAT     H1 8195   2.948   7.490   8.046
 2651WAT     H2 8196   3.004   7.466   7.895
 2652WAT      O 8197   8.513   3.851   0.974
 2652WAT     H1 8198   8.436   3.788   0.985
 2652WAT     H2 8199   8.479   3.945   0.971
 2653WAT      O 8200   5.170   6.500   9.125
 2653WAT     H1 8201   5.093   6.437   9.139
 2653WAT     H2 8202   5.251   6.464   9.171
 2654WAT      O 8203   5.461   3.595   9.104
 2654WAT     H1 8204   5.417   3.643   9.028
 2654WAT     H2 8205   5.478   3.500   9.077
 2655WAT      O 8206   2.968   7.292   1.132
 2655WAT     H1 8207   3.024   7.301   1.215
 2655WAT     H2 8208   2.938   7.198   1.122
 2656WAT      O 8209   0.498   2.337   0.878
 2656WAT     H1 8210   0.473   2.432   0.860
 2656WAT     H2 8211   0.487   2.318   0.975
 2657WAT      O 8212   7.446   1.601   5.199
 2657WAT     H1 8213   7.529   1.656   5.211
 2657WAT     H2 8214   7.470   1.504   5.195
 2658WAT      O 8215   3.509   3.326   6.914
 2658WAT     H1 8216   3.476   3.355   6.824
 2658WAT     H2 8217   3.609   3.331   6.916
 2659WAT      O 8218   2.623   1.575   1.463
 2659WAT     H1 8219   2.567   1.656   1.448
 2659WAT     H2 8220   2.695   1.571   1.395
 2660WAT      O 8221   5.426   9.278   1.919
 2660WAT     H1 8222   5.420   9.251   1.823
 2660WAT     H2 8223   5.507   9.236   1.960
 2661WAT      O 8224   1.649   9.387   7.482
 2661WAT     H1 8225   1.667   9.335   7.566
 2661WAT     H2 8226   1.557   9.427   7.487
 2662WAT      O 8227   4.183   3.697   7.510
 2662WAT     H1 8228   4.161   3.643   7.591
 2662WAT     H2 8229   4.106   3.759   7.490
 2663WAT      O 8230   9.601   9.681   1.888
 2663WAT     H1 8231   9.506   9.685   1.855
 2663WAT     H2 8232   9.658   9.738   1.829
 2664WAT      O 8233   3.924   6.964   9.804
 2664WAT     H1 8234   3.991   7.023   9.849
 2664WAT     H2 8235   3.919   6.986   9.707
 2665WAT      O 8236   4.419   8.976   3.675
 2665WAT     H1 8237   4.392   9.069   3.653
 2665WAT     H2 8238   4.337   8.920   3.690
 2666WAT      O 8239   7.673   2.506   7.271
 2666WAT     H1 8240   7.710   2.500   7.178
 2666WAT     H2 8241   7.619   2.590   7.280
 2667WAT      O 8242   8.934   8.887   1.171
 2667WAT     H1 8243   8.843   8.888   1.129
 2667WAT     H2 8244   8.970   8.980   1.174
 2668WAT      O 8245   5.222   7.946   0.848
 2668WAT     H1 8246   5.239   7.848   0.851
 2668WAT     H2 8247   5.239   7.986   0.939
 2669WAT      O 8248   6.909   6.995   2.280
 2669WAT     H1 8249   6.848   6.982   2.201
 2669WAT     H2 8250   7.003   6.975   2.252
 2670WAT      O 8251   6.666   2.815   1.759
 2670WAT     H1 8252   6.619   2.805   1.846
 2670WAT     H2 8253   6.605   2.787   1.685
 2671WAT      O 8254   3.144   0.634   0.417
 2671WAT     H1 8255   3.120   0.731   0.420
 2671WAT     H2 8256   3.191   0.614   0.331
 2672WAT      O 8257   4.211   9.113   1.423
 2672WAT     H1 8258   4.286   9.092   1.485
 2672WAT     H2 8259   4.155   9.032   1.408
 2673WAT      O 8260   7.717   8.490   7.012
 2673WAT     H1 8261   7.685   8.451   6.926
 2673WAT     H2 8262   7.655   8.464   7.086
 2674WAT      O 8263   2.254   1.434   6.991
 2674WAT     H1 8264   2.218   1.406   6.903
 2674WAT     H2 8265   2.353   1.427   6.991
 2675WAT      O 8266   0.251   2.934   4.341
 2675WAT     H1 8267   0.331   2.947   4.400
 2675WAT     H2 8268   0.181   3.001   4.366
 2676WAT      O 8269   7.362   4.894   6.332
 2676WAT     H1 8270   7.449   4.852   6.305
 2676WAT     H2 8271   7.375   4.945   6.417
 2677WAT      O 8272   8.789   7.028   9.728
 2677WAT     H1 8273   8.694   7.001   9.712
 2677WAT     H2 8274   8.850   6.961   9.686
 2678WAT      O 8275   5.729   4.504   2.910
 2678WAT     H1 8276   5.714   4.514   2.812
 2678WAT     H2 8277   5.671   4.569   2.960
 2679WAT      O 8278   6.424   7.831   1.910
 2679WAT     H1 8279   6.522   7.829   1.928
 2679WAT     H2 8280   6.382   7.746   1.942
 2680WAT      O 8281   7.874   1.290   0.242
 2680WAT     H1 8282   7.824   1.346   0.308
 2680WAT     H2 8283   7.956   1.252   0.285
 2681WAT      O 8284   2.986   8.118   2.344
 2681WAT     H1 8285   2.943   8.118   2.254
 2681WAT     H2 8286   2.965   8.032   2.391
 2682WAT      O 8287   5.459   5.129   0.233
 2682WAT     H1 8288   5.555   5.099   0.238
 2682WAT     H2 8289   5.436   5.150   0.138
 2683WAT      O 8290   5.387   1.871   3.962
 2683WAT     H1 8291   5.393   1.773   3.982
 2683WAT     H2 8292   5.449   1.894   3.888
 2684WAT      O 8293   8.047   2.651   5.863
 2684WAT     H1 8294   8.021   2.740   5.826
 2684WAT     H2 8295   7.979   2.582   5.838
 2685WAT      O 8296   7.856   3.460   0.828
 2685WAT     H1 8297   7.820   3.386   0.770
 2685WAT     H2 8298   7.940   3.496   0.788
 2686WAT      O 8299   8.808   3.729   0.036
 2686WAT     H1 8300   8.780   3.813  -0.010
 2686WAT     H2 8301   8.740   3.706   0.107
 2687WAT      O 8302   1.716   2.874   0.888
 2687WAT     H1 8303   1.619   2.857   0.870
 2687WAT     H2 8304   1.727   2.968   0.920
 2688WAT      O 8305   0.576   8.755   1.520
 2688WAT     H1 8306   0.634   8.729   1.598
 2688WAT     H2 8307   0.482   8.767   1.551
 2689WAT      O 8308   7.523   6.187   3.828
 2689WAT     H1 8309   7.498   6.284   3.822
 2689WAT     H2 8310   7.531   6.160   3.924
 2690WAT      O 8311   3.994   8.839   1.118
 2690WAT     H1 8312   3.899   8.871   1.112
 2690WAT     H2 8313   3.996   8.739   1.106
 2691WAT      O 8314   6.015   7.266   3.848
 2691WAT     H1 8315   6.032   7.268   3.946
 2691WAT     H2 8316   6.063   7.342   3.804
 2692WAT      O 8317   6.640   7.460   5.258
 2692WAT     H1 8318   6.549   7.449   5.218
 2692WAT     H2 8319   6.710   7.439   5.189
 2693WAT      O 8320   4.484   4.110   6.192
 2693WAT     H1 8321   4.535   4.195   6.178
 2693WAT     H2 8322   4.415   4.124   6.263
 2694WAT      O 8323   0.339   0.709   4.761
 2694WAT     H1 8324   0.339   0.714   4.861
 2694WAT     H2 8325   0.422   0.752   4.725
 2695WAT      O 8326   8.179   9.413   1.133
 2695WAT     H1 8327   8.249   9.450   1.195
 2695WAT     H2 8328   8.217   9.406   1.040
 2696WAT      O 8329   3.268   4.653   7.014
 2696WAT     H1 8330   3.241   4.558   7.001
 2696WAT     H2 8331   3.310   4.664   7.104
 2697WAT      O 8332   9.727   6.240   1.270
 2697WAT     H1 8333   9.642   6.212   1.224
 2697WAT     H2 8334   9.716   6.231   1.369
 2698WAT      O 8335   8.426   0.281   3.036
 2698WAT     H1 8336   8.357   0.353   3.037
 2698WAT     H2 8337   8.517   0.321   3.045
 2699WAT      O 8338   7.208   1.767   9.653
 2699WAT     H1 8339   7.143   1.763   9.728
 2699WAT     H2 8340   7.180   1.703   9.581
 2700WAT      O 8341   1.830   1.997   5.967
 2700WAT     H1 8342   1.915   2.023   6.014
 2700WAT     H2 8343   1.847   1.992   5.868
 2701WAT      O 8344   3.892   3.373   1.518
 2701WAT     H1 8345   3.823   3.384   1.590
 2701WAT     H2 8346   3.860   3.418   1.434
 2702WAT      O 8347   4.804   9.136   6.521
 2702WAT     H1 8348   4.764   9.182   6.601
 2702WAT     H2 8349   4.900   9.162   6.512
 2703WAT      O 8350   4.129   5.635   2.674
 2703WAT     H1 8351   4.179   5.631   2.761
 2703WAT     H2 8352   4.166   5.708   2.617
 2704WAT      O 8353   9.488   7.365   5.136
 2704WAT     H1 8354   9.551   7.324   5.070
 2704WAT     H2 8355   9.519   7.344   5.229
 2705WAT      O 8356   2.907   8.379   9.629
 2705WAT     H1 8357   2.944   8.371   9.537
 2705WAT     H2 8358   2.942   8.306   9.686
 2706WAT      O 8359   8.785   1.802   1.211
 2706WAT     H1 8360   8.773   1.780   1.308
 2706WAT     H2 8361   8.698   1.790   1.163
 2707WAT      O 8362   0.012   3.927   0.458
 2707WAT     H1 8363  -0.060   3.923   0.528
 2707WAT     H2 8364   0.039   4.022   0.444
 2708WAT      O 8365   8.917   3.955   7.426
 2708WAT     H1 8366   8.818   3.963   7.422
 2708WAT     H2 8367   8.947   3.881   7.367
 2709WAT      O 8368   6.404   3.492   8.117
 2709WAT     H1 8369   6.361   3.579   8.093
 2709WAT     H2 8370   6.394   3.428   8.041
 2710WAT      O 8371   5.093   8.590   0.049
 2710WAT     H1 8372   5.165   8.529   0.016
 2710WAT     H2 8373   5.056   8.554   0.135
 2711WAT      O 8374   4.364   3.783   9.201
 2711WAT     H1 8375   4.369   3.769   9.103
 2711WAT     H2 8376   4.358   3.694   9.247
 2712WAT      O 8377   9.879   4.675   6.960
 2712WAT     H1 8378   9.881   4.770   6.994
 2712WAT     H2 8379   9.887   4.676   6.860
 2713WAT      O 8380   9.542   7.094   3.640
 2713WAT     H1 8381   9.508   7.187   3.624
 2713WAT     H2 8382   9.641   7.096   3.650
 2714WAT      O 8383   7.054   0.218   8.640
 2714WAT     H1 8384   7.059   0.197   8.738
 2714WAT     H2 8385   7.044   0.317   8.628
 2715WAT      O 8386   4.922   4.861   3.143
 2715WAT     H1 8387   4.871   4.944   3.165
 2715WAT     H2 8388   4.914   4.842   3.045
 2716WAT      O 8389   5.348   4.746   1.200
 2716WAT     H1 8390   5.250   4.749   1.178
 2716WAT     H2 8391   5.398   4.808   1.139
 2717WAT      O 8392   7.320   1.469   1.923
 2717WAT     H1 8393   7.229   1.494   1.890
 2717WAT     H2 8394   7.331   1.499   2.018
 2718WAT      O 8395   6.007   4.767   6.064
 2718WAT     H1 8396   5.978   4.688   6.010
 2718WAT     H2 8397   6.089   4.743   6.117
 2719WAT      O 8398   4.522   4.672   1.510
 2719WAT     H1 8399   4.523   4.768   1.482
 2719WAT     H2 8400   4.428   4.643   1.526
 2720WAT      O 8401   4.061   6.135   4.438
 2720WAT     H1 8402   4.056   6.191   4.520
 2720WAT     H2 8403   4.035   6.041   4.459
 2721WAT      O 8404   1.145   2.594   4.724
 2721WAT     H1 8405   1.089   2.515   4.746
 2721WAT     H2 8406   1.242   2.569   4.728
 2722WAT      O 8407   8.781   1.146   0.803
 2722WAT     H1 8408   8.739   1.170   0.890
 2722WAT     H2 8409   8.803   1.048   0.802
 2723WAT      O 8410   4.938   6.149   5.593
 2723WAT     H1 8411   4.850   6.191   5.570
 2723WAT     H2 8412   5.009   6.219   5.595
 2724WAT      O 8413   2.435   5.237   7.278
 2724WAT     H1 8414   2.378   5.158   7.256
 2724WAT     H2 8415   2.446   5.294   7.196
 2725WAT      O 8416   7.112   9.807   5.362
 2725WAT     H1 8417   7.208   9.828   5.345
 2725WAT     H2 8418   7.055   9.853   5.294
 2726WAT      O 8419   7.316   7.902   5.022
 2726WAT     H1 8420   7.259   7.923   5.102
 2726WAT     H2 8421   7.295   7.967   4.949
 2727WAT      O 8422   1.698   0.992   5.507
 2727WAT     H1 8423   1.711   0.997   5.607
 2727WAT     H2 8424   1.734   0.905   5.474
 2728WAT      O 8425   2.438   4.724   9.579
 2728WAT     H1 8426   2.355   4.730   9.634
 2728WAT     H2 8427   2.454   4.811   9.533
 2729WAT      O 8428   6.735   0.241   9.529
 2729WAT     H1 8429   6.784   0.155   9.536
 2729WAT     H2 8430   6.725   0.267   9.433
 2730WAT      O 8431   9.561   5.217   0.021
 2730WAT     H1 8432   9.547   5.256   0.112
 2730WAT     H2 8433   9.473   5.186  -0.015
 2731WAT      O 8434   4.210   7.578   3.677
 2731WAT     H1 8435   4.204   7.646   3.603
 2731WAT     H2 8436   4.249   7.494   3.642
 2732WAT      O 8437   7.502   1.650   1.343
 2732WAT     H1 8438   7.494   1.703   1.259
 2732WAT     H2 8439   7.598   1.648   1.371
 2733WAT      O 8440   1.730   4.832   6.571
 2733WAT     H1 8441   1.643   4.793   6.541
 2733WAT     H2 8442   1.774   4.771   6.636
 2734WAT      O 8443   0.395   7.502   1.947
 2734WAT     H1 8444   0.309   7.452   1.935
 2734WAT     H2 8445   0.471   7.445   1.916
 2735WAT      O 8446   0.817   7.179   3.583
 2735WAT     H1 8447   0.718   7.182   3.593
 2735WAT     H2 8448   0.841   7.178   3.486
 2736WAT      O 8449   9.188   5.888   6.677
 2736WAT     H1 8450   9.248   5.945   6.734
 2736WAT     H2 8451   9.226   5.796   6.671
 2737WAT      O 8452   4.982   2.186   9.058
 2737WAT     H1 8453   4.903   2.193   8.998
 2737WAT     H2 8454   5.058   2.144   9.009
 2738WAT      O 8455   5.109   0.884   5.980
 2738WAT     H1 8456   5.020   0.850   5.949
 2738WAT     H2 8457   5.136   0.962   5.923
 2739WAT      O 8458   7.537   5.145   4.916
 2739WAT     H1 8459   7.624   5.124   4.872
 2739WAT     H2 8460   7.462   5.125   4.853
 2740WAT      O 8461   3.653   2.503   1.014
 2740WAT     H1 8462   3.694   2.412   1.001
 2740WAT     H2 8463   3.554   2.494   1.018
 2741WAT      O 8464   0.366   8.835   2.216
 2741WAT     H1 8465   0.390   8.885   2.300
 2741WAT     H2 8466   0.447   8.788   2.182
 2742WAT      O 8467   4.142   7.737   6.838
 2742WAT     H1 8468   4.078   7.669   6.804
 2742WAT     H2 8469   4.211   7.757   6.769
 2743WAT      O 8470   8.226   1.680   8.335
 2743WAT     H1 8471   8.268   1.645   8.252
 2743WAT     H2 8472   8.126   1.677   8.326
 2744WAT      O 8473   9.511   5.687   9.766
 2744WAT     H1 8474   9.481   5.729   9.852
 2744WAT     H2 8475   9.553   5.757   9.708
 2745WAT      O 8476   8.420   5.499   2.492
 2745WAT     H1 8477   8.474   5.445   2.557
 2745WAT     H2 8478   8.434   5.596   2.511
 2746WAT      O 8479   0.133   7.637   3.145
 2746WAT     H1 8480   0.066   7.669   3.213
 2746WAT     H2 8481   0.098   7.656   3.053
 2747WAT      O 8482   2.601   3.478   7.520
 2747WAT     H1 8483   2.574   3.406   7.584
 2747WAT     H2 8484   2.597   3.567   7.567
 2748WAT      O 8485   9.439   0.691   5.973
 2748WAT     H1 8486   9.374   0.747   5.921
 2748WAT     H2 8487   9.530   0.732   5.968
 2749WAT      O 8488   3.012   0.400   4.817
 2749WAT     H1 8489   2.972   0.353   4.738
 2749WAT     H2 8490   3.108   0.375   4.825
 2750WAT      O 8491   6.960   4.790   7.380
 2750WAT     H1 8492   7.013   4.724   7.433
 2750WAT     H2 8493   6.891   4.742   7.326
 2751WAT      O 8494   3.500   1.692   7.262
 2751WAT     H1 8495   3.537   1.705   7.354
 2751WAT     H2 8496   3.415   1.640   7.267
 2752WAT      O 8497   0.319   1.052   2.634
 2752WAT     H1 8498   0.417   1.051   2.649
 2752WAT     H2 8499   0.273   0.999   2.705
 2753WAT      O 8500   3.856   7.210   8.089
 2753WAT     H1 8501   3.887   7.131   8.141
 2753WAT     H2 8502   3.857   7.188   7.991
 2754WAT      O 8503   1.680   2.042   6.491
 2754WAT     H1 8504   1.619   1.996   6.555
 2754WAT     H2 8505   1.667   2.141   6.499
 2755WAT      O 8506   3.370   0.315   3.758
 2755WAT     H1 8507   3.368   0.405   3.802
 2755WAT     H2 8508   3.449   0.310   3.697
 2756WAT      O 8509   6.830   0.714   4.862
 2756WAT     H1 8510   6.738   0.709   4.901
 2756WAT     H2 8511   6.874   0.624   4.868
 2757WAT      O 8512   6.571   6.730   4.487
 2757WAT     H1 8513   6.604   6.824   4.476
 2757WAT     H2 8514   6.471   6.729   4.482
 2758WAT      O 8515   5.484   6.457   1.501
 2758WAT     H1 8516   5.446   6.493   1.587
 2758WAT     H2 8517   5.436   6.374   1.476
 2759WAT      O 8518   8.116   1.658   3.313
 2759WAT     H1 8519   8.193   1.722   3.314
 2759WAT     H2 8520   8.140   1.577   3.366
 2760WAT      O 8521   4.309   8.997   7.492
 2760WAT     H1 8522   4.381   8.965   7.554
 2760WAT     H2 8523   4.349   9.027   7.406
 2761WAT      O 8524   3.984   0.135   2.530
 2761WAT     H1 8525   3.984   0.051   2.476
 2761WAT     H2 8526   4.076   0.174   2.531
 2762WAT      O 8527   7.903   6.180   5.093
 2762WAT     H1 8528   7.810   6.158   5.122
 2762WAT     H2 8529   7.900   6.240   5.013
 2763WAT      O 8530   6.727   3.540   5.191
 2763WAT     H1 8531   6.765   3.615   5.137
 2763WAT     H2 8532   6.778   3.456   5.172
 2764WAT      O 8533   6.674   3.515   1.933
 2764WAT     H1 8534   6.675   3.422   1.895
 2764WAT     H2 8535   6.751   3.567   1.894
 2765WAT      O 8536   3.300   0.208   0.562
 2765WAT     H1 8537   3.397   0.187   0.568
 2765WAT     H2 8538   3.286   0.307   0.568
 2766WAT      O 8539   5.836   9.575   7.634
 2766WAT     H1 8540   5.812   9.481   7.609
 2766WAT     H2 8541   5.765   9.613   7.692
 2767WAT      O 8542   1.851   7.915   2.835
 2767WAT     H1 8543   1.871   7.962   2.921
 2767WAT     H2 8544   1.782   7.967   2.784
 2768WAT      O 8545   3.910   4.169   2.327
 2768WAT     H1 8546   3.924   4.268   2.320
 2768WAT     H2 8547   3.874   4.135   2.240
 2769WAT      O 8548   3.930   8.436   7.362
 2769WAT     H1 8549   3.911   8.342   7.392
 2769WAT     H2 8550   4.023   8.462   7.390
 2770WAT      O 8551   5.116   6.553   1.035
 2770WAT     H1 8552   5.144   6.507   0.951
 2770WAT     H2 8553   5.184   6.538   1.107
 2771WAT      O 8554   0.271   0.818   2.511
 2771WAT     H1 8555   0.314   0.907   2.525
 2771WAT     H2 8556   0.313   0.750   2.571
 2772WAT      O 8557   2.960   8.204   8.740
 2772WAT     H1 8558   3.033   8.138   8.723
 2772WAT     H2 8559   2.987   8.265   8.815
 2773WAT      O 8560   4.671   1.384   9.613
 2773WAT     H1 8561   4.748   1.340   9.566
 2773WAT     H2 8562   4.677   1.365   9.711
 2774WAT      O 8563   1.808   3.962   8.882
 2774WAT     H1 8564   1.805   4.058   8.909
 2774WAT     H2 8565   1.883   3.916   8.929
 2775WAT      O 8566   9.839   5.544   5.270
 2775WAT     H1 8567   9.932   5.513   5.249
 2775WAT     H2 8568   9.774   5.470   5.248
 2776WAT      O 8569   7.631   2.518   9.588
 2776WAT     H1 8570   7.687   2.495   9.667
 2776WAT     H2 8571   7.549   2.568   9.618
 2777WAT      O 8572   4.148   5.297   1.931
 2777WAT     H1 8573   4.116   5.224   1.870
 2777WAT     H2 8574   4.220   5.261   1.991
 2778WAT      O 8575   1.440   2.958   4.178
 2778WAT     H1 8576   1.488   2.872   4.159
 2778WAT     H2 8577   1.506   3.026   4.212
 2779WAT      O 8578   1.288   4.879   6.122
 2779WAT     H1 8579   1.232   4.816   6.176
 2779WAT     H2 8580   1.233   4.915   6.046
 2780WAT      O 8581   4.579   9.275   1.729
 2780WAT     H1 8582   4.621   9.362   1.754
 2780WAT     H2 8583   4.480   9.288   1.717
 2781WAT      O 8584   3.381   6.584   5.638
 2781WAT     H1 8585   3.394   6.485   5.649
 2781WAT     H2 8586   3.452   6.620   5.577
 2782WAT      O 8587   0.320   3.618   4.485
 2782WAT     H1 8588   0.389   3.554   4.454
 2782WAT     H2 8589   0.354   3.669   4.564
 2783WAT      O 8590   4.863   2.129   1.965
 2783WAT     H1 8591   4.909   2.151   1.879
 2783WAT     H2 8592   4.915   2.168   2.041
 2784WAT      O 8593   3.662   8.151   8.867
 2784WAT     H1 8594   3.565   8.172   8.876
 2784WAT     H2 8595   3.693   8.176   8.775
 2785WAT      O 8596   7.678   1.134   5.024
 2785WAT     H1 8597   7.760   1.078   5.030
 2785WAT     H2 8598   7.636   1.123   4.934
 2786WAT      O 8599   3.202   9.304   2.754
 2786WAT     H1 8600   3.285   9.355   2.775
 2786WAT     H2 8601   3.132   9.323   2.822
 2787WAT      O 8602   2.965   1.933   2.841
 2787WAT     H1 8603   2.923   2.009   2.792
 2787WAT     H2 8604   3.039   1.967   2.898
 2788WAT      O 8605   7.500   2.994   4.271
 2788WAT     H1 8606   7.532   2.900   4.257
 2788WAT     H2 8607   7.405   3.001   4.240
 2789WAT      O 8608   5.006   2.378   8.092
 2789WAT     H1 8609   4.931   2.346   8.150
 2789WAT     H2 8610   4.970   2.437   8.020
 2790WAT      O 8611   2.213   4.408   1.507
 2790WAT     H1 8612   2.182   4.326   1.460
 2790WAT     H2 8613   2.134   4.464   1.532
 2791WAT      O 8614   8.060   4.311   3.020
 2791WAT     H1 8615   8.131   4.253   2.979
 2791WAT     H2 8616   8.002   4.348   2.948
 2792WAT      O 8617   8.550   2.261   8.314
 2792WAT     H1 8618   8.482   2.329   8.286
 2792WAT     H2 8619   8.620   2.305   8.370
 2793WAT      O 8620   9.519   6.836   7.756
 2793WAT     H1 8621   9.550   6.766   7.692
 2793WAT     H2 8622   9.591   6.852   7.824
 2794WAT      O 8623   1.935   4.295   1.087
 2794WAT     H1 8624   1.845   4.337   1.078
 2794WAT     H2 8625   2.003   4.366   1.104
 2795WAT      O 8626   2.895   1.341   1.664
 2795WAT     H1 8627   2.960   1.275   1.701
 2795WAT     H2 8628   2.921   1.433   1.693
 2796WAT      O 8629   0.196   1.527   9.756
 2796WAT     H1 8630   0.145   1.539   9.671
 2796WAT     H2 8631   0.236   1.436   9.759
 2797WAT      O 8632   9.234   1.516   3.736
 2797WAT     H1 8633   9.200   1.438   3.789
 2797WAT     H2 8634   9.306   1.563   3.787
 2798WAT      O 8635   7.257   8.277   5.847
 2798WAT     H1 8636   7.224   8.215   5.775
 2798WAT     H2 8637   7.328   8.231   5.901
 2799WAT      O 8638   8.422   5.750   0.554
 2799WAT     H1 8639   8.328   5.777   0.573
 2799WAT     H2 8640   8.430   5.651   0.564
 2800WAT      O 8641   5.264   3.526   4.309
 2800WAT     H1 8642   5.261   3.505   4.406
 2800WAT     H2 8643   5.310   3.451   4.260
 2801WAT      O 8644   7.929   2.982   9.425
 2801WAT     H1 8645   7.852   3.044   9.409
 2801WAT     H2 8646   7.893   2.891   9.446
 2802WAT      O 8647   3.227   8.076   7.565
 2802WAT     H1 8648   3.225   8.028   7.478
 2802WAT     H2 8649   3.149   8.048   7.621
 2803WAT      O 8650   3.779   2.481   7.064
 2803WAT     H1 8651   3.872   2.465   7.097
 2803WAT     H2 8652   3.781   2.544   6.987
 2804WAT      O 8653   6.522   4.809   4.029
 2804WAT     H1 8654   6.515   4.826   4.128
 2804WAT     H2 8655   6.565   4.720   4.014
 2805WAT      O 8656   6.766   6.836   4.041
 2805WAT     H1 8657   6.817   6.776   4.102
 2805WAT     H2 8658   6.827   6.905   4.002
 2806WAT      O 8659   9.316   7.546   8.628
 2806WAT     H1 8660   9.222   7.535   8.594
 2806WAT     H2 8661   9.326   7.498   8.715
 2807WAT      O 8662   3.627   7.557   4.694
 2807WAT     H1 8663   3.596   7.618   4.622
 2807WAT     H2 8664   3.723   7.533   4.679
 2808WAT      O 8665   2.463   3.707   5.039
 2808WAT     H1 8666   2.479   3.614   5.005
 2808WAT     H2 8667   2.407   3.702   5.121
 2809WAT      O 8668   8.673   5.784   6.174
 2809WAT     H1 8669   8.719   5.756   6.258
 2809WAT     H2 8670   8.737   5.776   6.097
 2810WAT      O 8671   9.619   1.142   2.888
 2810WAT     H1 8672   9.542   1.184   2.936
 2810WAT     H2 8673   9.586   1.065   2.834
 2811WAT      O 8674   3.729   7.886   7.967
 2811WAT     H1 8675   3.630   7.904   7.972
 2811WAT     H2 8676   3.778   7.973   7.974
 2812WAT      O 8677   7.937   7.142   3.382
 2812WAT     H1 8678   7.896   7.097   3.462
 2812WAT     H2 8679   7.938   7.078   3.305
 2813WAT      O 8680   0.258   4.483   3.848
 2813WAT     H1 8681   0.249   4.582   3.840
 2813WAT     H2 8682   0.343   4.454   3.803
 2814WAT      O 8683   4.381   9.762   3.954
 2814WAT     H1 8684   4.283   9.778   3.944
 2814WAT     H2 8685   4.415   9.708   3.877
 2815WAT      O 8686   3.152   8.301   7.174
 2815WAT     H1 8687   3.167   8.343   7.085
 2815WAT     H2 8688   3.112   8.210   7.162
 2816WAT      O 8689   1.275   8.776   3.325
 2816WAT     H1 8690   1.273   8.704   3.255
 2816WAT     H2 8691   1.204   8.843   3.306
 2817WAT      O 8692   2.274   9.264   7.653
 2817WAT     H1 8693   2.256   9.187   7.713
 2817WAT     H2 8694   2.255   9.238   7.558
 2818WAT      O 8695   0.348   5.807   5.588
 2818WAT     H1 8696   0.440   5.775   5.608
 2818WAT     H2 8697   0.329   5.796   5.491
 2819WAT      O 8698   5.496   3.879   1.691
 2819WAT     H1 8699   5.407   3.925   1.698
 2819WAT     H2 8700   5.519   3.866   1.595
 2820WAT      O 8701   0.736   0.545   9.557
 2820WAT     H1 8702   0.706   0.533   9.651
 2820WAT     H2 8703   0.805   0.476   9.535
 2821WAT      O 8704   0.042   7.594   2.035
 2821WAT     H1 8705   0.084   7.669   2.086
 2821WAT     H2 8706  -0.051   7.619   2.009
 2822WAT      O 8707   2.949   1.295   5.974
 2822WAT     H1 8708   2.905   1.371   6.022
 2822WAT     H2 8709   3.048   1.306   5.977
 2823WAT      O 8710   4.439   6.613   0.525
 2823WAT     H1 8711   4.364   6.563   0.568
 2823WAT     H2 8712   4.526   6.577   0.560
 2824WAT      O 8713   1.627   9.213   7.701
 2824WAT     H1 8714   1.551   9.233   7.762
 2824WAT     H2 8715   1.625   9.116   7.675
 2825WAT      O 8716   4.934   9.685   6.985
 2825WAT     H1 8717   4.898   9.755   6.924
 2825WAT     H2 8718   4.991   9.621   6.932
 2826WAT      O 8719   2.246   1.208   5.967
 2826WAT     H1 8720   2.224   1.270   5.892
 2826WAT     H2 8721   2.164   1.190   6.021
 2827WAT      O 8722   2.660   4.379   0.217
 2827WAT     H1 8723   2.649   4.294   0.268
 2827WAT     H2 8724   2.755   4.409   0.222
 2828WAT      O 8725   6.544   2.193   6.301
 2828WAT     H1 8726   6.516   2.282   6.336
 2828WAT     H2 8727   6.473   2.159   6.238
 2829WAT      O 8728   5.577   9.162   2.532
 2829WAT     H1 8729   5.546   9.248   2.491
 2829WAT     H2 8730   5.542   9.156   2.626
 2830WAT      O 8731   6.644   4.266   4.888
 2830WAT     H1 8732   6.709   4.341   4.898
 2830WAT     H2 8733   6.615   4.235   4.978
 2831WAT      O 8734   6.935   9.657   7.304
 2831WAT     H1 8735   7.024   9.612   7.296
 2831WAT     H2 8736   6.937   9.745   7.257
 2832WAT      O 8737   1.982   2.715   7.143
 2832WAT     H1 8738   2.080   2.729   7.127
 2832WAT     H2 8739   1.935   2.803   7.143
 2833WAT      O 8740   3.032   9.236   2.152
 2833WAT     H1 8741   3.017   9.151   2.204
 2833WAT     H2 8742   2.973   9.308   2.188
 2834WAT      O 8743   2.780   3.400   6.412
 2834WAT     H1 8744   2.713   3.441   6.473
 2834WAT     H2 8745   2.866   3.450   6.419
 2835WAT      O 8746   6.829   8.014   9.426
 2835WAT     H1 8747   6.902   8.020   9.494
 2835WAT     H2 8748   6.766   7.941   9.451
 2836WAT      O 8749   7.394   5.389   4.738
 2836WAT     H1 8750   7.484   5.427   4.719
 2836WAT     H2 8751   7.351   5.441   4.812
 2837WAT      O 8752   9.058   1.521   0.623
 2837WAT     H1 8753   9.148   1.478   0.631
 2837WAT     H2 8754   9.065   1.617   0.649
 2838WAT      O 8755   7.514   0.597   9.345
 2838WAT     H1 8756   7.454   0.638   9.414
 2838WAT     H2 8757   7.477   0.509   9.317
 2839WAT      O 8758   4.230   2.752   9.108
 2839WAT     H1 8759   4.140   2.796   9.106
 2839WAT     H2 8760   4.224   2.661   9.067
 2840WAT      O 8761   0.798   2.114   1.313
 2840WAT     H1 8762   0.815   2.098   1.410
 2840WAT     H2 8763   0.718   2.061   1.284
 2841WAT      O 8764   6.127   5.407   3.466
 2841WAT     H1 8765   6.209   5.394   3.411
 2841WAT     H2 8766   6.060   5.460   3.413
 2842WAT      O 8767   6.820   8.245   3.970
 2842WAT     H1 8768   6.805   8.305   3.892
 2842WAT     H2 8769   6.841   8.299   4.051
 2843WAT      O 8770   7.894   2.765   8.620
 2843WAT     H1 8771   7.841   2.850   8.619
 2843WAT     H2 8772   7.892   2.723   8.530
 2844WAT      O 8773   5.873   7.208   8.776
 2844WAT     H1 8774   5.862   7.112   8.798
 2844WAT     H2 8775   5.803   7.235   8.709
 2845WAT      O 8776   4.710   9.779   0.832
 2845WAT     H1 8777   4.800   9.821   0.822
 2845WAT     H2 8778   4.718   9.694   0.883
 2846WAT      O 8779   3.962   2.322   4.046
 2846WAT     H1 8780   3.941   2.403   4.100
 2846WAT     H2 8781   3.914   2.327   3.958
 2847WAT      O 8782   5.652   0.966   3.400
 2847WAT     H1 8783   5.616   0.976   3.307
 2847WAT     H2 8784   5.594   1.017   3.464
 2848WAT      O 8785   4.019   1.747   5.096
 2848WAT     H1 8786   4.066   1.811   5.035
 2848WAT     H2 8787   4.077   1.668   5.111
 2849WAT      O 8788   2.036   4.482   7.741
 2849WAT     H1 8789   1.971   4.418   7.699
 2849WAT     H2 8790   2.126   4.470   7.700
 2850WAT      O 8791   7.193   5.434   5.282
 2850WAT     H1 8792   7.193   5.469   5.375
 2850WAT     H2 8793   7.286   5.407   5.257
 2851WAT      O 8794   6.538   9.423   8.070
 2851WAT     H1 8795   6.594   9.498   8.106
 2851WAT     H2 8796   6.521   9.438   7.973
 2852WAT      O 8797   1.710   5.421   7.458
 2852WAT     H1 8798   1.648   5.355   7.499
 2852WAT     H2 8799   1.798   5.378   7.441
 2853WAT      O 8800   9.696   7.445   2.877
 2853WAT     H1 8801   9.601   7.425   2.852
 2853WAT     H2 8802   9.757   7.385   2.826
 2854WAT      O 8803   3.523   7.104   1.655
 2854WAT     H1 8804   3.498   7.016   1.612
 2854WAT     H2 8805   3.623   7.115   1.652
 2855WAT      O 8806   2.228   3.275   3.131
 2855WAT     H1 8807   2.157   3.260   3.063
 2855WAT     H2 8808   2.261   3.186   3.165
 2856WAT      O 8809   9.176   6.877   2.004
 2856WAT     H1 8810   9.106   6.807   2.016
 2856WAT     H2 8811   9.267   6.837   2.016
 2857WAT      O 8812   5.761   8.370   1.053
 2857WAT     H1 8813   5.768   8.344   0.957
 2857WAT     H2 8814   5.741   8.290   1.109
 2858WAT      O 8815   7.314   8.927   6.297
 2858WAT     H1 8816   7.320   8.848   6.358
 2858WAT     H2 8817   7.218   8.946   6.278
 2859WAT      O 8818   3.882   9.354   9.509
 2859WAT     H1 8819   3.885   9.378   9.412
 2859WAT     H2 8820   3.807   9.402   9.554
 2860WAT      O 8821   6.598   8.042   9.699
 2860WAT     H1 8822   6.539   8.089   9.633
 2860WAT     H2 8823   6.643   8.110   9.757
 2861WAT      O 8824   0.156   7.165   3.019
 2861WAT     H1 8825   0.237   7.199   2.970
 2861WAT     H2 8826   0.128   7.232   3.088
 2862WAT      O 8827   6.124   2.405   1.398
 2862WAT     H1 8828   6.119   2.305   1.404
 2862WAT     H2 8829   6.058   2.445   1.462
 2863WAT      O 8830   6.626   9.236   0.493
 2863WAT     H1 8831   6.667   9.147   0.512
 2863WAT     H2 8832   6.651   9.300   0.566
 2864WAT      O 8833   1.708   4.465   6.784
 2864WAT     H1 8834   1.669   4.409   6.711
 2864WAT     H2 8835   1.669   4.437   6.872
 2865WAT      O 8836   4.554   8.846   0.144
 2865WAT     H1 8837   4.467   8.819   0.103
 2865WAT     H2 8838   4.569   8.796   0.229
 2866WAT      O 8839   8.988   9.705   0.268
 2866WAT     H1 8840   9.041   9.627   0.233
 2866WAT     H2 8841   8.922   9.734   0.200
 2867WAT      O 8842   3.642   8.706   3.456
 2867WAT     H1 8843   3.715   8.743   3.513
 2867WAT     H2 8844   3.554   8.740   3.490
 2868WAT      O 8845   8.421   7.021   9.071
 2868WAT     H1 8846   8.452   6.941   9.122
 2868WAT     H2 8847   8.500   7.077   9.046
 2869WAT      O 8848   6.722   3.948   3.117
 2869WAT     H1 8849   6.677   3.869   3.077
 2869WAT     H2 8850   6.821   3.941   3.101
 2870WAT      O 8851   6.578   3.128   3.246
 2870WAT     H1 8852   6.601   3.086   3.334
 2870WAT     H2 8853   6.591   3.061   3.173
 2871WAT      O 8854   4.545   4.430   3.618
 2871WAT     H1 8855   4.458   4.454   3.574
 2871WAT     H2 8856   4.618   4.428   3.550
 2872WAT      O 8857   6.814   8.705   2.388
 2872WAT     H1 8858   6.778   8.791   2.350
 2872WAT     H2 8859   6.783   8.629   2.331
 2873WAT      O 8860   8.151   6.883   4.356
 2873WAT     H1 8861   8.147   6.932   4.269
 2873WAT     H2 8862   8.115   6.791   4.345
 2874WAT      O 8863   0.276   4.936   3.237
 2874WAT     H1 8864   0.196   4.892   3.196
 2874WAT     H2 8865   0.300   5.018   3.185
 2875WAT      O 8866   9.367   3.793   2.651
 2875WAT     H1 8867   9.439   3.811   2.719
 2875WAT     H2 8868   9.278   3.817   2.690
 2876WAT      O 8869   2.434   7.404   6.815
 2876WAT     H1 8870   2.436   7.305   6.832
 2876WAT     H2 8871   2.494   7.425   6.738
 2877WAT      O 8872   1.556   5.520   5.433
 2877WAT     H1 8873   1.604   5.536   5.346
 2877WAT     H2 8874   1.566   5.601   5.491
 2878WAT      O 8875   5.381   1.972   7.637
 2878WAT     H1 8876   5.444   1.926   7.700
 2878WAT     H2 8877   5.352   2.058   7.677
 2879WAT      O 8878   0.302   2.102   4.065
 2879WAT     H1 8879   0.263   2.041   4.134
 2879WAT     H2 8880   0.336   2.185   4.109
 2880WAT      O 8881   4.059   4.442   2.658
 2880WAT     H1 8882   4.117   4.363   2.637
 2880WAT     H2 8883   3.972   4.410   2.696
 2881WAT      O 8884   2.820   6.143   6.705
 2881WAT     H1 8885   2.789   6.237   6.694
 2881WAT     H2 8886   2.864   6.132   6.794
 2882WAT      O 8887   2.770   7.820   4.285
 2882WAT     H1 8888   2.677   7.853   4.266
 2882WAT     H2 8889   2.835   7.893   4.269
 2883WAT      O 8890   8.653   5.709   2.941
 2883WAT     H1 8891   8.633   5.656   2.859
 2883WAT     H2 8892   8.589   5.786   2.947
 2884WAT      O 8893   9.730   0.983   6.955
 2884WAT     H1 8894   9.660   1.027   7.012
 2884WAT     H2 8895   9.790   0.928   7.013
 2885WAT      O 8896   3.273   4.140   1.887
 2885WAT     H1 8897   3.319   4.228   1.882
 2885WAT     H2 8898   3.335   4.073   1.928
 2886WAT      O 8899   2.778   4.186   2.207
 2886WAT     H1 8900   2.692   4.235   2.189
 2886WAT     H2 8901   2.816   4.152   2.121
 2887WAT      O 8902   1.626   0.595   4.465
 2887WAT     H1 8903   1.577   0.538   4.531
 2887WAT     H2 8904   1.569   0.608   4.384
 2888WAT      O 8905   3.771   7.312   8.774
 2888WAT     H1 8906   3.695   7.347   8.721
 2888WAT     H2 8907   3.741   7.233   8.828
 2889WAT      O 8908   1.063   2.715   7.241
 2889WAT     H1 8909   0.991   2.769   7.285
 2889WAT     H2 8910   1.023   2.636   7.195
 2890WAT      O 8911   0.711   8.630   9.260
 2890WAT     H1 8912   0.699   8.653   9.164
 2890WAT     H2 8913   0.805   8.601   9.276
 2891WAT      O 8914   3.436   2.979   3.359
 2891WAT     H1 8915   3.461   3.076   3.354
 2891WAT     H2 8916   3.448   2.946   3.452
 2892WAT      O 8917   5.960   8.130   4.591
 2892WAT     H1 8918   5.990   8.221   4.563
 2892WAT     H2 8919   6.036   8.083   4.637
 2893WAT      O 8920   9.003   3.434   6.308
 2893WAT     H1 8921   9.081   3.497   6.303
 2893WAT     H2 8922   8.949   3.443   6.224
 2894WAT      O 8923   6.857   7.309   8.945
 2894WAT     H1 8924   6.838   7.407   8.950
 2894WAT     H2 8925   6.884   7.276   9.036
 2895WAT      O 8926   2.500   6.507   4.622
 2895WAT     H1 8927   2.566   6.550   4.560
 2895WAT     H2 8928   2.430   6.575   4.647
 2896WAT      O 8929   6.903   9.115   0.735
 2896WAT     H1 8930   6.813   9.072   0.732
 2896WAT     H2 8931   6.974   9.045   0.737
 2897WAT      O 8932   6.682   3.196   2.603
 2897WAT     H1 8933   6.583   3.191   2.588
 2897WAT     H2 8934   6.707   3.141   2.682
 2898WAT      O 8935   2.775   5.604   1.961
 2898WAT     H1 8936   2.854   5.542   1.957
 2898WAT     H2 8937   2.694   5.556   1.928
 2899WAT      O 8938   7.083   4.594   2.743
 2899WAT     H1 8939   7.173   4.635   2.732
 2899WAT     H2 8940   7.020   4.636   2.678
 2900WAT      O 8941   2.981   7.418   2.881
 2900WAT     H1 8942   2.887   7.402   2.852
 2900WAT     H2 8943   3.021   7.491   2.825
 2901WAT      O 8944   6.804   0.276   5.665
 2901WAT     H1 8945   6.764   0.188   5.691
 2901WAT     H2 8946   6.893   0.262   5.624
 2902WAT      O 8947   5.382   9.255   4.945
 2902WAT     H1 8948   5.474   9.272   4.979
 2902WAT     H2 8949   5.322   9.331   4.971
 2903WAT      O 8950   1.430   8.603   7.875
 2903WAT     H1 8951   1.510   8.544   7.883
 2903WAT     H2 8952   1.401   8.633   7.966
 2904WAT      O 8953   5.966   9.759   4.066
 2904WAT     H1 8954   6.056   9.796   4.092
 2904WAT     H2 8955   5.931   9.703   4.141
 2905WAT      O 8956   1.870   7.067   1.043
 2905WAT     H1 8957   1.845   7.152   1.090
 2905WAT     H2 8958   1.909   7.088   0.954
 2906WAT      O 8959   9.412   1.038   4.174
 2906WAT     H1 8960   9.373   1.114   4.122
 2906WAT     H2 8961   9.512   1.049   4.178
 2907WAT      O 8962   8.529   6.958   9.698
 2907WAT     H1 8963   8.497   6.894   9.768
 2907WAT     H2 8964   8.461   7.031   9.687
 2908WAT      O 8965   0.856   7.718   6.102
 2908WAT     H1 8966   0.807   7.730   6.016
 2908WAT     H2 8967   0.864   7.620   6.121
 2909WAT      O 8968   2.205   5.287   9.742
 2909WAT     H1 8969   2.222   5.316   9.836
 2909WAT     H2 8970   2.171   5.364   9.689
 2910WAT      O 8971   6.143   2.890   5.517
 2910WAT     H1 8972   6.215   2.866   5.582
 2910WAT     H2 8973   6.077   2.816   5.511
 2911WAT      O 8974   8.757   1.359   5.744
 2911WAT     H1 8975   8.843   1.311   5.761
 2911WAT     H2 8976   8.729   1.343   5.649
 2912WAT      O 8977   2.671   0.772   6.999
 2912WAT     H1 8978   2.618   0.733   7.075
 2912WAT     H2 8979   2.767   0.780   7.025
 2913WAT      O 8980   2.764   7.159   2.937
 2913WAT     H1 8981   2.704   7.084   2.910
 2913WAT     H2 8982   2.787   7.149   3.034
 2914WAT      O 8983   9.532   1.366   6.277
 2914WAT     H1 8984   9.485   1.444   6.317
 2914WAT     H2 8985   9.603   1.334   6.340
 2915WAT      O 8986   5.167   8.322   0.929
 2915WAT     H1 8987   5.167   8.349   1.026
 2915WAT     H2 8988   5.159   8.223   0.922
 2916WAT      O 8989   9.303   6.947   8.839
 2916WAT     H1 8990   9.335   7.039   8.861
 2916WAT     H2 8991   9.376   6.881   8.856
 2917WAT      O 8992   6.447   0.399   8.392
 2917WAT     H1 8993   6.372   0.369   8.334
 2917WAT     H2 8994   6.429   0.374   8.487
 2918WAT      O 8995   2.402   8.340   5.032
 2918WAT     H1 8996   2.400   8.254   5.084
 2918WAT     H2 8997   2.341   8.406   5.075
 2919WAT      O 8998   3.053   9.471   1.471
 2919WAT     H1 8999   3.044   9.430   1.562
 2919WAT     H2 9000   3.148   9.500   1.457
 2920WAT      O 9001   2.096   8.658   4.341
 2920WAT     H1 9002   2.123   8.748   4.306
 2920WAT     H2 9003   2.170   8.593   4.327
 2921WAT      O 9004   6.223   0.121   4.439
 2921WAT     H1 9005   6.218   0.154   4.533
 2921WAT     H2 9006   6.257   0.195   4.380
 2922WAT      O 9007   1.739   8.962   7.901
 2922WAT     H1 9008   1.688   8.910   7.833
 2922WAT     H2 9009   1.833   8.973   7.871
 2923WAT      O 9010   7.959   5.399   5.933
 2923WAT     H1 9011   7.911   5.483   5.956
 2923WAT     H2 9012   7.906   5.320   5.965
 2924WAT      O 9013   1.039   9.759   7.764
 2924WAT     H1 9014   1.114   9.723   7.819
 2924WAT     H2 9015   0.975   9.808   7.823
 2925WAT      O 9016   8.055   3.019   3.584
 2925WAT     H1 9017   7.971   2.978   3.549
 2925WAT     H2 9018   8.065   2.998   3.681
 2926WAT      O 9019   9.098   6.960   7.297
 2926WAT     H1 9020   9.034   6.967   7.220
 2926WAT     H2 9021   9.051   6.985   7.382
 2927WAT      O 9022   4.066   8.152   0.637
 2927WAT     H1 9023   3.970   8.177   0.625
 2927WAT     H2 9024   4.081   8.059   0.602
 2928WAT      O 9025   8.434   4.523   9.729
 2928WAT     H1 9026   8.510   4.579   9.696
 2928WAT     H2 9027   8.378   4.494   9.652
 2929WAT      O 9028   1.347   8.550   5.883
 2929WAT     H1 9029   1.354   8.644   5.850
 2929WAT     H2 9030   1.372   8.486   5.810
 2930WAT      O 9031   9.482   6.698   4.519
 2930WAT     H1 9032   9.576   6.699   4.484
 2930WAT     H2 9033   9.481   6.727   4.614
 2931WAT      O 9034   2.000   1.319   2.728
 2931WAT     H1 9035   2.019   1.351   2.635
 2931WAT     H2 9036   2.038   1.227   2.740
 2932WAT      O 9037   0.380   6.765   0.785
 2932WAT     H1 9038   0.291   6.810   0.781
 2932WAT     H2 9039   0.377   6.681   0.730
 2933WAT      O 9040   5.797   5.891   1.259
 2933WAT     H1 9041   5.799   5.830   1.180
 2933WAT     H2 9042   5.705   5.926   1.272
 2934WAT      O 9043   0.599   3.315   2.087
 2934WAT     H1 9044   0.691   3.281   2.067
 2934WAT     H2 9045   0.598   3.415   2.078
 2935WAT      O 9046   6.877   5.876   8.484
 2935WAT     H1 9047   6.778   5.878   8.469
 2935WAT     H2 9048   6.897   5.893   8.580
 2936WAT      O 9049   5.858   6.741   0.032
 2936WAT     H1 9050   5.868   6.840   0.024
 2936WAT     H2 9051   5.938   6.696  -0.008
 2937WAT      O 9052   5.817   3.443   6.568
 2937WAT     H1 9053   5.880   3.424   6.492
 2937WAT     H2 9054   5.815   3.541   6.586
 2938WAT      O 9055   1.370   0.101   6.072
 2938WAT     H1 9056   1.297   0.038   6.100
 2938WAT     H2 9057   1.455   0.049   6.059
 2939WAT      O 9058   2.754   0.464   3.478
 2939WAT     H1 9059   2.724   0.419   3.394
 2939WAT     H2 9060   2.683   0.456   3.548
 2940WAT      O 9061   0.497   2.288   7.564
 2940WAT     H1 9062   0.481   2.242   7.476
 2940WAT     H2 9063   0.517   2.219   7.634
 2941WAT      O 9064   8.506   6.333   2.219
 2941WAT     H1 9065   8.454   6.264   2.269
 2941WAT     H2 9066   8.565   6.383   2.282
 2942WAT      O 9067   8.040   8.384   5.642
 2942WAT     H1 9068   8.115   8.388   5.708
 2942WAT     H2 9069   7.991   8.297   5.651
 2943WAT      O 9070   5.046   3.467   4.122
 2943WAT     H1 9071   5.093   3.454   4.034
 2943WAT     H2 9072   5.109   3.504   4.189
 2944WAT      O 9073   5.414   2.720   5.559
 2944WAT     H1 9074   5.440   2.724   5.655
 2944WAT     H2 9075   5.442   2.632   5.520
 2945WAT      O 9076   6.610   6.663   6.626
 2945WAT     H1 9077   6.603   6.653   6.726
 2945WAT     H2 9078   6.569   6.750   6.599
 2946WAT      O 9079   8.771   8.204   7.450
 2946WAT     H1 9080   8.711   8.151   7.390
 2946WAT     H2 9081   8.862   8.162   7.450
 2947WAT      O 9082   1.372   6.062   2.211
 2947WAT     H1 9083   1.364   6.123   2.290
 2947WAT     H2 9084   1.406   6.114   2.133
 2948WAT      O 9085   7.976   0.009   6.834
 2948WAT     H1 9086   7.965   0.107   6.815
 2948WAT     H2 9087   7.933  -0.043   6.760
 2949WAT      O 9088   9.681   3.816   0.947
 2949WAT     H1 9089   9.710   3.794   1.040
 2949WAT     H2 9090   9.755   3.795   0.883
 2950WAT      O 9091   9.663   9.558   7.641
 2950WAT     H1 9092   9.645   9.550   7.739
 2950WAT     H2 9093   9.625   9.479   7.593
 2951WAT      O 9094   0.634   9.067   0.783
 2951WAT     H1 9095   0.719   9.092   0.738
 2951WAT     H2 9096   0.628   9.112   0.872
 2952WAT      O 9097   2.239   2.078   2.490
 2952WAT     H1 9098   2.309   2.057   2.558
 2952WAT     H2 9099   2.178   2.000   2.480
 2953WAT      O 9100   3.226   9.155   1.718
 2953WAT     H1 9101   3.245   9.110   1.805
 2953WAT     H2 9102   3.290   9.232   1.707
 2954WAT      O 9103   7.303   2.783   0.999
 2954WAT     H1 9104   7.387   2.740   0.964
 2954WAT     H2 9105   7.308   2.788   1.099
 2955WAT      O 9106   7.573   6.387   2.043
 2955WAT     H1 9107   7.659   6.435   2.056
 2955WAT     H2 9108   7.579   6.327   1.963
 2956WAT      O 9109   3.912   1.400   1.970
 2956WAT     H1 9110   3.922   1.358   2.060
 2956WAT     H2 9111   3.836   1.356   1.921
 2957WAT      O 9112   5.578   0.362   9.179
 2957WAT     H1 9113   5.644   0.331   9.247
 2957WAT     H2 9114   5.596   0.317   9.092
 2958WAT      O 9115   4.938   2.632   5.986
 2958WAT     H1 9116   4.922   2.663   5.893
 2958WAT     H2 9117   4.858   2.653   6.042
 2959WAT      O 9118   4.310   0.498   4.357
 2959WAT     H1 9119   4.269   0.421   4.405
 2959WAT     H2 9120   4.398   0.471   4.318
 2960WAT      O 9121   0.779   5.775   7.710
 2960WAT     H1 9122   0.776   5.875   7.702
 2960WAT     H2 9123   0.849   5.749   7.776
 2961WAT      O 9124   2.259   6.770   8.792
 2961WAT     H1 9125   2.350   6.729   8.783
 2961WAT     H2 9126   2.239   6.785   8.888
 2962WAT      O 9127   5.955   9.256   1.358
 2962WAT     H1 9128   5.942   9.157   1.345
 2962WAT     H2 9129   6.000   9.294   1.277
 2963WAT      O 9130   7.193   1.423   3.217
 2963WAT     H1 9131   7.099   1.448   3.192
 2963WAT     H2 9132   7.193   1.382   3.308
 2964WAT      O 9133   8.909   6.077   8.575
 2964WAT     H1 9134   8.908   6.029   8.487
 2964WAT     H2 9135   8.999   6.068   8.616
 2965WAT      O 9136   7.881   9.637   5.070
 2965WAT     H1 9137   7.826   9.568   5.023
 2965WAT     H2 9138   7.847   9.649   5.163
 2966WAT      O 9139   0.961   1.584   8.177
 2966WAT     H1 9140   1.051   1.553   8.148
 2966WAT     H2 9141   0.928   1.655   8.115
 2967WAT      O 9142   2.197   3.580   1.486
 2967WAT     H1 9143   2.165   3.546   1.398
 2967WAT     H2 9144   2.234   3.672   1.474
 2968WAT      O 9145   8.931   4.779   9.243
 2968WAT     H1 9146   8.859   4.719   9.278
 2968WAT     H2 9147   8.890   4.851   9.187
 2969WAT      O 9148   1.357   8.473   2.259
 2969WAT     H1 9149   1.367   8.556   2.314
 2969WAT     H2 9150   1.435   8.463   2.198
 2970WAT      O 9151   9.670   8.272   7.591
 2970WAT     H1 9152   9.668   8.289   7.493
 2970WAT     H2 9153   9.690   8.357   7.640
 2971WAT      O 9154   0.833   2.057   5.629
 2971WAT     H1 9155   0.767   2.126   5.598
 2971WAT     H2 9156   0.785   1.988   5.684
 2972WAT      O 9157   3.926   5.745   3.778
 2972WAT     H1 9158   3.868   5.822   3.804
 2972WAT     H2 9159   3.884   5.660   3.810
 2973WAT      O 9160   5.070   0.436   4.338
 2973WAT     H1 9161   5.141   0.506   4.343
 2973WAT     H2 9162   5.040   0.411   4.430
 2974WAT      O 9163   7.634   1.969   8.243
 2974WAT     H1 9164   7.731   1.976   8.221
 2974WAT     H2 9165   7.579   1.990   8.162
 2975WAT      O 9166   6.257   3.896   8.195
 2975WAT     H1 9167   6.198   3.935   8.266
 2975WAT     H2 9168   6.212   3.817   8.154
 2976WAT      O 9169   0.507   2.197   8.915
 2976WAT     H1 9170   0.476   2.258   8.842
 2976WAT     H2 9171   0.595   2.229   8.950
 2977WAT      O 9172   7.051   2.516   4.367
 2977WAT     H1 9173   6.965   2.497   4.318
 2977WAT     H2 9174   7.036   2.589   4.434
 2978WAT      O 9175   5.528   7.907   4.175
 2978WAT     H1 9176   5.449   7.926   4.118
 2978WAT     H2 9177   5.575   7.826   4.142
 2979WAT      O 9178   4.992   8.273   3.861
 2979WAT     H1 9179   4.982   8.205   3.933
 2979WAT     H2 9180   5.089   8.294   3.849
 2980WAT      O 9181   7.905   8.645   6.872
 2980WAT     H1 9182   7.923   8.584   6.795
 2980WAT     H2 9183   7.849   8.597   6.940
 2981WAT      O 9184   2.280   6.464   8.981
 2981WAT     H1 9185   2.318   6.534   8.920
 2981WAT     H2 9186   2.352   6.398   9.005
 2982WAT      O 9187   1.432   8.316   7.398
 2982WAT     H1 9188   1.527   8.293   7.377
 2982WAT     H2 9189   1.419   8.415   7.392
 2983WAT      O 9190   6.066   4.421   9.400
 2983WAT     H1 9191   6.158   4.449   9.372
 2983WAT     H2 9192   6.022   4.497   9.449
 2984WAT      O 9193   4.535   7.952   4.491
 2984WAT     H1 9194   4.460   7.928   4.430
 2984WAT     H2 9195   4.504   8.016   4.561
 2985WAT      O 9196   5.961   8.766   5.332
 2985WAT     H1 9197   5.917   8.780   5.421
 2985WAT     H2 9198   6.041   8.825   5.323
 2986WAT      O 9199   2.204   2.198   3.511
 2986WAT     H1 9200   2.194   2.271   3.443
 2986WAT     H2 9201   2.135   2.127   3.494
 2987WAT      O 9202   4.777   1.174   1.951
 2987WAT     H1 9203   4.871   1.208   1.958
 2987WAT     H2 9204   4.734   1.211   1.869
 2988WAT      O 9205   0.529   3.093   6.829
 2988WAT     H1 9206   0.530   3.002   6.788
 2988WAT     H2 9207   0.569   3.159   6.765
 2989WAT      O 9208   4.432   5.860   6.326
 2989WAT     H1 9209   4.411   5.943   6.274
 2989WAT     H2 9210   4.367   5.851   6.401
 2990WAT      O 9211   8.955   9.699   4.038
 2990WAT     H1 9212   9.031   9.645   4.074
 2990WAT     H2 9213   8.869   9.659   4.069
 2991WAT      O 9214   5.672   0.905   1.080
 2991WAT     H1 9215   5.602   0.905   1.151
 2991WAT     H2 9216   5.669   0.819   1.029
 2992WAT      O 9217   6.224   2.640   1.526
 2992WAT     H1 9218   6.284   2.634   1.446
 2992WAT     H2 9219   6.129   2.638   1.496
 2993WAT      O 9220   9.545   8.137   7.007
 2993WAT     H1 9221   9.593   8.183   6.932
 2993WAT     H2 9222   9.462   8.188   7.030
 2994WAT      O 9223   8.680   7.783   9.520
 2994WAT     H1 9224   8.732   7.835   9.453
 2994WAT     H2 9225   8.703   7.686   9.512
 2995WAT      O 9226   1.307   0.791   0.489
 2995WAT     H1 9227   1.343   0.770   0.398
 2995WAT     H2 9228   1.347   0.877   0.521
 2996WAT      O 9229   5.425   2.483   8.346
 2996WAT     H1 9230   5.391   2.568   8.386
 2996WAT     H2 9231   5.375   2.464   8.261
 2997WAT      O 9232   8.847   6.565   1.043
 2997WAT     H1 9233   8.919   6.619   1.085
 2997WAT     H2 9234   8.838   6.478   1.090
 2998WAT      O 9235   2.804   3.571   9.015
 2998WAT     H1 9236   2.708   3.598   9.009
 2998WAT     H2 9237   2.811   3.471   9.010
 2999WAT      O 9238   1.110   0.629   9.801
 2999WAT     H1 9239   1.035   0.584   9.849
 2999WAT     H2 9240   1.180   0.655   9.868
 3000WAT      O 9241   8.771   1.139   1.268
 3000WAT     H1 9242   8.804   1.067   1.330
 3000WAT     H2 9243   8.766   1.226   1.317
 3001WAT      O 9244   3.724   6.217   1.413
 3001WAT     H1 9245   3.675   6.289   1.463
 3001WAT     H2 9246   3.670   6.133   1.415
 3002WAT      O 9247   1.636   2.495   9.439
 3002WAT     H1 9248   1.710   2.553   9.404
 3002WAT     H2 9249   1.671   2.403   9.454
 3003WAT      O 9250   9.315   0.226   0.334
 3003WAT     H1 9251   9.329   0.219   0.235
 3003WAT     H2 9252   9.401   0.207   0.381
 3004WAT      O 9253   7.318   2.561   1.847
 3004WAT     H1 9254   7.397   2.501   1.856
 3004WAT     H2 9255   7.348   2.652   1.819
 3005WAT      O 9256   0.372   2.839   2.306
 3005WAT     H1 9257   0.285   2.864   2.349
 3005WAT     H2 9258   0.362   2.841   2.207
 3006WAT      O 9259   0.455   9.713   8.611
 3006WAT     H1 9260   0.458   9.675   8.703
 3006WAT     H2 9261   0.420   9.644   8.548
 3007WAT      O 9262   4.684   9.589   7.716
 3007WAT     H1 9263   4.682   9.491   7.699
 3007WAT     H2 9264   4.639   9.637   7.641
 3008WAT      O 9265   5.593   1.507   5.110
 3008WAT     H1 9266   5.673   1.453   5.139
 3008WAT     H2 9267   5.595   1.518   5.011
 3009WAT      O 9268   4.757   8.932   6.306
 3009WAT     H1 9269   4.810   9.017   6.303
 3009WAT     H2 9270   4.755   8.898   6.400
 3010WAT      O 9271   6.330   1.426   9.835
 3010WAT     H1 9272   6.302   1.445   9.928
 3010WAT     H2 9273   6.301   1.333   9.809
 3011WAT      O 9274   4.819   8.056   4.001
 3011WAT     H1 9275   4.729   8.093   4.022
 3011WAT     H2 9276   4.812   7.987   3.929
 3012WAT      O 9277   9.687   8.274   3.456
 3012WAT     H1 9278   9.758   8.233   3.399
 3012WAT     H2 9279   9.721   8.361   3.494
 3013WAT      O 9280   0.170   6.001   5.709
 3013WAT     H1 9281   0.254   5.951   5.689
 3013WAT     H2 9282   0.110   6.000   5.629
 3014WAT      O 9283   5.413   8.086   5.851
 3014WAT     H1 9284   5.496   8.135   5.877
 3014WAT     H2 9285   5.439   8.000   5.805
 3015WAT      O 9286   6.494   4.707   7.598
 3015WAT     H1 9287   6.567   4.674   7.658
 3015WAT     H2 9288   6.477   4.640   7.525
 3016WAT      O 9289   6.365   1.748   2.072
 3016WAT     H1 9290   6.399   1.664   2.115
 3016WAT     H2 9291   6.301   1.725   1.999
 3017WAT      O 9292   6.115   1.795   8.414
 3017WAT     H1 9293   6.191   1.798   8.479
 3017WAT     H2 9294   6.028   1.796   8.464
 3018WAT      O 9295   7.408   6.831   2.109
 3018WAT     H1 9296   7.397   6.876   2.021
 3018WAT     H2 9297   7.408   6.731   2.097
 3019WAT      O 9298   3.554   8.653   7.405
 3019WAT     H1 9299   3.639   8.635   7.354
 3019WAT     H2 9300   3.550   8.592   7.484
 3020WAT      O 9301   9.739   2.719   0.360
 3020WAT     H1 9302   9.722   2.818   0.359
 3020WAT     H2 9303   9.673   2.673   0.300
 3021WAT      O 9304   5.498   4.871   9.079
 3021WAT     H1 9305   5.436   4.922   9.139
 3021WAT     H2 9306   5.513   4.923   8.995
 3022WAT      O 9307   5.089   3.558   6.165
 3022WAT     H1 9308   5.062   3.500   6.242
 3022WAT     H2 9309   5.007   3.592   6.119
 3023WAT      O 9310   5.531   8.392   1.871
 3023WAT     H1 9311   5.581   8.310   1.898
 3023WAT     H2 9312   5.527   8.455   1.949
 3024WAT      O 9313   1.643   0.505   8.407
 3024WAT     H1 9314   1.588   0.434   8.453
 3024WAT     H2 9315   1.605   0.523   8.316
 3025WAT      O 9316   7.299   6.706   9.775
 3025WAT     H1 9317   7.227   6.667   9.832
 3025WAT     H2 9318   7.259   6.759   9.701
 3026WAT      O 9319   5.838   6.890   2.814
 3026WAT     H1 9320   5.910   6.951   2.783
 3026WAT     H2 9321   5.839   6.807   2.758
 3027WAT      O 9322   5.199   8.943   9.076
 3027WAT     H1 9323   5.126   8.878   9.052
 3027WAT     H2 9324   5.198   8.959   9.174
 3028WAT      O 9325   6.806   3.665   3.816
 3028WAT     H1 9326   6.736   3.728   3.783
 3028WAT     H2 9327   6.846   3.703   3.900
 3029WAT      O 9328   0.447   5.044   2.812
 3029WAT     H1 9329   0.535   5.091   2.816
 3029WAT     H2 9330   0.460   4.947   2.831
 3030WAT      O 9331   5.562   6.982   8.057
 3030WAT     H1 9332   5.507   7.041   8.116
 3030WAT     H2 9333   5.655   7.019   8.051
 3031WAT      O 9334   7.567   1.344   1.035
 3031WAT     H1 9335   7.577   1.329   0.937
 3031WAT     H2 9336   7.487   1.402   1.052
 3032WAT      O 9337   5.346   9.213   6.995
 3032WAT     H1 9338   5.379   9.296   7.039
 3032WAT     H2 9339   5.247   9.219   6.979
 3033WAT      O 9340   9.208   4.090   3.840
 3033WAT     H1 9341   9.208   4.124   3.746
 3033WAT     H2 9342   9.301   4.062   3.864
 3034WAT      O 9343   7.006   8.746   7.894
 3034WAT     H1 9344   6.953   8.691   7.830
 3034WAT     H2 9345   7.082   8.692   7.930
 3035WAT      O 9346   4.026   3.200   0.966
 3035WAT     H1 9347   3.933   3.220   0.996
 3035WAT     H2 9348   4.091   3.234   1.034
 3036WAT      O 9349   2.351   4.124   0.867
 3036WAT     H1 9350   2.260   4.116   0.908
 3036WAT     H2 9351   2.344   4.179   0.783
 3037WAT      O 9352   3.605   3.111   7.604
 3037WAT     H1 9353   3.586   3.108   7.702
 3037WAT     H2 9354   3.703   3.108   7.589
 3038WAT      O 9355   5.177   8.610   8.053
 3038WAT     H1 9356   5.093   8.658   8.029
 3038WAT     H2 9357   5.181   8.598   8.152
 3039WAT      O 9358   4.263   7.393   5.612
 3039WAT     H1 9359   4.315   7.457   5.668
 3039WAT     H2 9360   4.269   7.301   5.651
 3040WAT      O 9361   2.621   7.398   6.593
 3040WAT     H1 9362   2.579   7.354   6.514
 3040WAT     H2 9363   2.716   7.368   6.602
 3041WAT      O 9364   7.781   8.355   4.430
 3041WAT     H1 9365   7.776   8.421   4.355
 3041WAT     H2 9366   7.859   8.294   4.416
 3042WAT      O 9367   4.026   0.087   7.689
 3042WAT     H1 9368   4.068   0.086   7.779
 3042WAT     H2 9369   3.952   0.020   7.685
 3043WAT      O 9370   8.297   4.412   2.061
 3043WAT     H1 9371   8.378   4.364   2.095
 3043WAT     H2 9372   8.284   4.496   2.113
 3044WAT      O 9373   4.838   2.922   3.555
 3044WAT     H1 9374   4.798   3.012   3.571
 3044WAT     H2 9375   4.770   2.861   3.514
 3045WAT      O 9376   2.223   7.189   6.889
 3045WAT     H1 9377   2.173   7.151   6.811
 3045WAT     H2 9378   2.320   7.194   6.868
 3046WAT      O 9379   5.216   9.187   0.139
 3046WAT     H1 9380   5.313   9.165   0.127
 3046WAT     H2 9381   5.175   9.212   0.051
 3047WAT      O 9382   9.030   2.475   0.605
 3047WAT     H1 9383   9.022   2.498   0.509
 3047WAT     H2 9384   8.938   2.464   0.644
 3048WAT      O 9385   3.017   0.753   7.351
 3048WAT     H1 9386   3.016   0.674   7.414
 3048WAT     H2 9387   2.932   0.804   7.360
 3049WAT      O 9388   5.643   3.144   9.830
 3049WAT     H1 9389   5.695   3.176   9.909
 3049WAT     H2 9390   5.555   3.191   9.828
 3050WAT      O 9391   8.616   3.122   0.742
 3050WAT     H1 9392   8.579   3.199   0.793
 3050WAT     H2 9393   8.554   3.044   0.748
 3051WAT      O 9394   5.558   8.645   6.237
 3051WAT     H1 9395   5.615   8.572   6.274
 3051WAT     H2 9396   5.597   8.734   6.262
 3052WAT      O 9397   3.384   3.009   4.138
 3052WAT     H1 9398   3.419   2.985   4.048
 3052WAT     H2 9399   3.460   3.016   4.203
 3053WAT      O 9400   4.306   0.511   1.722
 3053WAT     H1 9401   4.363   0.429   1.719
 3053WAT     H2 9402   4.264   0.526   1.632
 3054WAT      O 9403   0.787   8.488   0.133
 3054WAT     H1 9404   0.717   8.521   0.197
 3054WAT     H2 9405   0.871   8.468   0.183
 3055WAT      O 9406   1.361   5.711   1.131
 3055WAT     H1 9407   1.300   5.664   1.195
 3055WAT     H2 9408   1.360   5.809   1.150
 3056WAT      O 9409   1.522   5.314   2.822
 3056WAT     H1 9410   1.596   5.377   2.796
 3056WAT     H2 9411   1.555   5.220   2.814
 3057WAT      O 9412   6.627   5.785   0.362
 3057WAT     H1 9413   6.575   5.759   0.281
 3057WAT     H2 9414   6.565   5.791   0.440
 3058WAT      O 9415   0.304   4.355   6.562
 3058WAT     H1 9416   0.212   4.353   6.602
 3058WAT     H2 9417   0.336   4.262   6.546
 3059WAT      O 9418   4.029   6.115   5.784
 3059WAT     H1 9419   4.038   6.070   5.695
 3059WAT     H2 9420   4.038   6.214   5.772
 3060WAT      O 9421   1.215   2.582   7.001
 3060WAT     H1 9422   1.267   2.516   6.948
 3060WAT     H2 9423   1.178   2.653   6.941
 3061WAT      O 9424   4.043   9.584   0.450
 3061WAT     H1 9425   4.055   9.611   0.355
 3061WAT     H2 9426   3.987   9.651   0.498
 3062WAT      O 9427   9.761   1.084   1.200
 3062WAT     H1 9428   9.744   1.019   1.273
 3062WAT     H2 9429   9.799   1.036   1.121
 3063WAT      O 9430   0.084   2.165   1.286
 3063WAT     H1 9431   0.123   2.080   1.249
 3063WAT     H2 9432   0.084   2.236   1.216
 3064WAT      O 9433   2.105   9.365   6.329
 3064WAT     H1 9434   2.190   9.391   6.374
 3064WAT     H2 9435   2.093   9.421   6.247
 3065WAT      O 9436   6.102   0.434   3.303
 3065WAT     H1 9437   6.180   0.410   3.245
 3065WAT     H2 9438   6.039   0.357   3.308
 3066WAT      O 9439   4.703   7.414   6.520
 3066WAT     H1 9440   4.782   7.434   6.579
 3066WAT     H2 9441   4.622   7.401   6.577
 3067WAT      O 9442   6.222   6.257   5.078
 3067WAT     H1 9443   6.155   6.301   5.018
 3067WAT     H2 9444   6.313   6.295   5.060
 3068WAT      O 9445   4.257   6.038   8.313
 3068WAT     H1 9446   4.279   5.940   8.312
 3068WAT     H2 9447   4.309   6.085   8.243
 3069WAT      O 9448   8.513   0.742   8.237
 3069WAT     H1 9449   8.483   0.647   8.234
 3069WAT     H2 9450   8.609   0.747   8.207
 3070WAT      O 9451   2.314   7.398   3.472
 3070WAT     H1 9452   2.284   7.307   3.499
 3070WAT     H2 9453   2.414   7.402   3.474
 3071WAT      O 9454   2.159   9.203   3.171
 3071WAT     H1 9455   2.226   9.132   3.154
 3071WAT     H2 9456   2.204   9.291   3.181
 3072WAT      O 9457   7.850   1.864   6.189
 3072WAT     H1 9458   7.914   1.920   6.241
 3072WAT     H2 9459   7.777   1.922   6.152
 3073WAT      O 9460   2.763   7.509   5.306
 3073WAT     H1 9461   2.685   7.551   5.259
 3073WAT     H2 9462   2.844   7.567   5.295
 3074WAT      O 9463   3.771   8.264   4.701
 3074WAT     H1 9464   3.816   8.315   4.774
 3074WAT     H2 9465   3.704   8.322   4.655
 3075WAT      O 9466   4.568   9.246   4.162
 3075WAT     H1 9467   4.546   9.153   4.131
 3075WAT     H2 9468   4.487   9.304   4.154
 3076WAT      O 9469   1.780   0.031   3.511
 3076WAT     H1 9470   1.773  -0.042   3.579
 3076WAT     H2 9471   1.865   0.081   3.524
 3077WAT      O 9472   3.022   1.095   8.313
 3077WAT     H1 9473   3.021   1.082   8.214
 3077WAT     H2 9474   2.939   1.143   8.342
 3078WAT      O 9475   6.449   2.348   8.009
 3078WAT     H1 9476   6.408   2.387   8.091
 3078WAT     H2 9477   6.472   2.252   8.026
 3079WAT      O 9478   4.176   8.168   5.774
 3079WAT     H1 9479   4.094   8.206   5.817
 3079WAT     H2 9480   4.199   8.081   5.816
 3080WAT      O 9481   6.329   4.602   0.474
 3080WAT     H1 9482   6.254   4.621   0.537
 3080WAT     H2 9483   6.350   4.504   0.475
 3081WAT      O 9484   8.375   4.870   1.958
 3081WAT     H1 9485   8.280   4.881   1.928
 3081WAT     H2 9486   8.400   4.943   2.021
 3082WAT      O 9487   9.264   1.927   7.798
 3082WAT     H1 9488   9.316   1.877   7.867
 3082WAT     H2 9489   9.269   1.877   7.711
 3083WAT      O 9490   3.243   4.809   7.695
 3083WAT     H1 9491   3.152   4.772   7.713
 3083WAT     H2 9492   3.280   4.848   7.779
 3084WAT      O 9493   4.903   5.207   6.854
 3084WAT     H1 9494   4.931   5.282   6.794
 3084WAT     H2 9495   4.952   5.214   6.941
 3085WAT      O 9496   5.942   7.301   8.157
 3085WAT     H1 9497   5.852   7.260   8.171
 3085WAT     H2 9498   5.961   7.365   8.232
 3086WAT      O 9499   4.670   9.514   1.370
 3086WAT     H1 9500   4.658   9.448   1.296
 3086WAT     H2 9501   4.597   9.501   1.438
 3087WAT      O 9502   2.909   9.824   8.773
 3087WAT     H1 9503   2.898   9.812   8.872
 3087WAT     H2 9504   3.004   9.848   8.753
 3088WAT      O 9505   2.919   1.980   9.565
 3088WAT     H1 9506   2.927   1.881   9.577
 3088WAT     H2 9507   2.872   2.000   9.479
 3089WAT      O 9508   6.521   5.039   2.274
 3089WAT     H1 9509   6.498   4.999   2.363
 3089WAT     H2 9510   6.513   4.969   2.204
 3090WAT      O 9511   8.963   2.744   8.782
 3090WAT     H1 9512   8.957   2.653   8.821
 3090WAT     H2 9513   8.881   2.796   8.805
 3091WAT      O 9514   0.602   5.701   5.584
 3091WAT     H1 9515   0.592   5.636   5.508
 3091WAT     H2 9516   0.677   5.672   5.643
 3092WAT      O 9517   1.460   9.468   4.237
 3092WAT     H1 9518   1.482   9.547   4.294
 3092WAT     H2 9519   1.532   9.454   4.169
 3093WAT      O 9520   2.133   0.131   7.350
 3093WAT     H1 9521   2.055   0.116   7.288
 3093WAT     H2 9522   2.104   0.114   7.444
 3094WAT      O 9523   3.675   6.139   2.275
 3094WAT     H1 9524   3.768   6.142   2.311
 3094WAT     H2 9525   3.669   6.197   2.194
 3095WAT      O 9526   3.622   2.034   0.814
 3095WAT     H1 9527   3.525   2.035   0.793
 3095WAT     H2 9528   3.674   2.025   0.729
 3096WAT      O 9529   2.030   1.894   1.448
 3096WAT     H1 9530   2.101   1.965   1.439
 3096WAT     H2 9531   1.998   1.890   1.542
 3097WAT      O 9532   5.378   6.500   7.324
 3097WAT     H1 9533   5.319   6.529   7.249
 3097WAT     H2 9534   5.325   6.497   7.409
 3098WAT      O 9535   9.049   8.831   5.213
 3098WAT     H1 9536   9.017   8.853   5.305
 3098WAT     H2 9537   8.971   8.812   5.154
 3099WAT      O 9538   2.268   6.664   6.313
 3099WAT     H1 9539   2.285   6.569   6.287
 3099WAT     H2 9540   2.327   6.688   6.391
 3100WAT      O 9541   8.437   1.973   2.122
 3100WAT     H1 9542   8.507   2.028   2.168
 3100WAT     H2 9543   8.394   2.029   2.050
 3101WAT      O 9544   1.413   6.376   9.326
 3101WAT     H1 9545   1.404   6.343   9.232
 3101WAT     H2 9546   1.434   6.299   9.386
 3102WAT      O 9547   0.447   9.176   0.208
 3102WAT     H1 9548   0.394   9.091   0.199
 3102WAT     H2 9549   0.388   9.248   0.244
 3103WAT      O 9550   7.874   3.240   3.731
 3103WAT     H1 9551   7.809   3.166   3.744
 3103WAT     H2 9552   7.921   3.260   3.817
 3104WAT      O 9553   3.089   7.645   5.618
 3104WAT     H1 9554   3.093   7.709   5.541
 3104WAT     H2 9555   2.994   7.633   5.647
 3105WAT      O 9556   5.469   7.130   8.483
 3105WAT     H1 9557   5.512   7.048   8.446
 3105WAT     H2 9558   5.399   7.104   8.549
 3106WAT      O 9559   6.969   0.807   8.790
 3106WAT     H1 9560   7.003   0.799   8.697
 3106WAT     H2 9561   6.892   0.744   8.803
 3107WAT      O 9562   8.801   1.837   6.276
 3107WAT     H1 9563   8.792   1.831   6.376
 3107WAT     H2 9564   8.716   1.873   6.237
 3108WAT      O 9565   3.673   2.472   1.434
 3108WAT     H1 9566   3.671   2.572   1.429
 3108WAT     H2 9567   3.722   2.443   1.516
 3109WAT      O 9568   5.412   8.458   2.148
 3109WAT     H1 9569   5.375   8.367   2.166
 3109WAT     H2 9570   5.338   8.525   2.152
 3110WAT      O 9571   5.100   8.826   1.585
 3110WAT     H1 9572   5.175   8.870   1.535
 3110WAT     H2 9573   5.105   8.727   1.574
 3111WAT      O 9574   7.290   8.361   1.179
 3111WAT     H1 9575   7.243   8.281   1.216
 3111WAT     H2 9576   7.235   8.401   1.107
 3112WAT      O 9577   7.342   5.715   7.747
 3112WAT     H1 9578   7.438   5.720   7.771
 3112WAT     H2 9579   7.307   5.808   7.732
 3113WAT      O 9580   2.473   5.951   6.515
 3113WAT     H1 9581   2.501   6.047   6.514
 3113WAT     H2 9582   2.456   5.920   6.422
 3114WAT      O 9583   9.418   8.904   5.052
 3114WAT     H1 9584   9.431   8.839   5.127
 3114WAT     H2 9585   9.497   8.965   5.047
 3115WAT      O 9586   5.919   5.581   6.537
 3115WAT     H1 9587   5.934   5.484   6.558
 3115WAT     H2 9588   5.859   5.588   6.457
 3116WAT      O 9589   1.789   7.760   5.813
 3116WAT     H1 9590   1.827   7.841   5.858
 3116WAT     H2 9591   1.710   7.727   5.865
 3117WAT      O 9592   6.122   7.161   4.894
 3117WAT     H1 9593   6.089   7.246   4.852
 3117WAT     H2 9594   6.082   7.083   4.846
 3118WAT      O 9595   5.321   5.149   4.680
 3118WAT     H1 9596   5.398   5.127   4.621
 3118WAT     H2 9597   5.340   5.234   4.730
 3119WAT      O 9598   4.603   3.919   1.726
 3119WAT     H1 9599   4.506   3.897   1.738
 3119WAT     H2 9600   4.653   3.836   1.702
 3120WAT      O 9601   8.726   6.158   0.356
 3120WAT     H1 9602   8.780   6.107   0.289
 3120WAT     H2 9603   8.741   6.256   0.342
 3121WAT      O 9604   4.490   2.014   4.200
 3121WAT     H1 9605   4.397   1.982   4.218
 3121WAT     H2 9606   4.510   2.094   4.256
 3122WAT      O 9607   1.050   6.455   3.114
 3122WAT     H1 9608   0.987   6.377   3.113
 3122WAT     H2 9609   1.086   6.469   3.022
 3123WAT      O 9610   5.853   8.815   0.194
 3123WAT     H1 9611   5.853   8.733   0.137
 3123WAT     H2 9612   5.854   8.897   0.136
 3124WAT      O 9613   4.143   1.918   2.852
 3124WAT     H1 9614   4.102   1.853   2.789
 3124WAT     H2 9615   4.080   1.995   2.866
 3125WAT      O 9616   0.279   2.539   6.214
 3125WAT     H1 9617   0.367   2.553   6.259
 3125WAT     H2 9618   0.290   2.477   6.136
 3126WAT      O 9619   2.109   5.417   5.661
 3126WAT     H1 9620   2.019   5.453   5.684
 3126WAT     H2 9621   2.136   5.449   5.570
 3127WAT      O 9622   1.337   6.972   3.722
 3127WAT     H1 9623   1.297   6.892   3.767
 3127WAT     H2 9624   1.432   6.982   3.750
 3128WAT      O 9625   0.961   4.755   9.358
 3128WAT     H1 9626   0.982   4.719   9.449
 3128WAT     H2 9627   0.915   4.686   9.304
 3129WAT      O 9628   7.185   0.057   9.060
 3129WAT     H1 9629   7.197   0.087   9.155
 3129WAT     H2 9630   7.122  -0.020   9.057
 3130WAT      O 9631   0.359   1.829   4.197
 3130WAT     H1 9632   0.302   1.810   4.276
 3130WAT     H2 9633   0.422   1.753   4.182
 3131WAT      O 9634   5.360   4.028   8.083
 3131WAT     H1 9635   5.341   4.046   8.179
 3131WAT     H2 9636   5.458   4.042   8.065
 3132WAT      O 9637   4.873   5.442   2.024
 3132WAT     H1 9638   4.845   5.348   2.002
 3132WAT     H2 9639   4.917   5.483   1.944
 3133WAT      O 9640   2.659   1.212   7.053
 3133WAT     H1 9641   2.728   1.203   7.124
 3133WAT     H2 9642   2.568   1.203   7.094
 3134WAT      O 9643   7.069   4.841   9.257
 3134WAT     H1 9644   7.152   4.811   9.210
 3134WAT     H2 9645   6.989   4.810   9.206
 3135WAT      O 9646   1.141   7.137   5.670
 3135WAT     H1 9647   1.089   7.185   5.599
 3135WAT     H2 9648   1.167   7.047   5.636
 3136WAT      O 9649   5.803   7.114   6.530
 3136WAT     H1 9650   5.826   7.047   6.460
 3136WAT     H2 9651   5.721   7.164   6.503
 3137WAT      O 9652   3.361   0.844   1.350
 3137WAT     H1 9653   3.340   0.819   1.256
 3137WAT     H2 9654   3.457   0.822   1.370
 3138WAT      O 9655   3.906   4.815   2.212
 3138WAT     H1 9656   3.930   4.775   2.301
 3138WAT     H2 9657   3.980   4.797   2.147
 3139WAT      O 9658   9.546   5.581   1.926
 3139WAT     H1 9659   9.464   5.599   1.873
 3139WAT     H2 9660   9.590   5.668   1.951
 3140WAT      O 9661   6.169   7.561   2.844
 3140WAT     H1 9662   6.098   7.508   2.891
 3140WAT     H2 9663   6.150   7.659   2.855
 3141WAT      O 9664   3.926   4.104   4.063
 3141WAT     H1 9665   3.916   4.009   4.095
 3141WAT     H2 9666   4.013   4.141   4.096
 3142WAT      O 9667   5.011   6.391   2.152
 3142WAT     H1 9668   4.948   6.313   2.158
 3142WAT     H2 9669   4.959   6.473   2.127
 3143WAT      O 9670   3.743   3.080   5.107
 3143WAT     H1 9671   3.791   3.073   5.019
 3143WAT     H2 9672   3.658   3.027   5.103
 3144WAT      O 9673   6.407   5.707   6.005
 3144WAT     H1 9674   6.499   5.745   6.014
 3144WAT     H2 9675   6.385   5.694   5.909
 3145WAT      O 9676   5.308   4.399   8.414
 3145WAT     H1 9677   5.313   4.430   8.509
 3145WAT     H2 9678   5.212   4.394   8.386
 3146WAT      O 9679   2.598   0.512   1.111
 3146WAT     H1 9680   2.651   0.574   1.169
 3146WAT     H2 9681   2.611   0.418   1.142
 3147WAT      O 9682   6.536   2.236   4.332
 3147WAT     H1 9683   6.586   2.150   4.344
 3147WAT     H2 9684   6.596   2.305   4.293
 3148WAT      O 9685   3.878   7.284   5.301
 3148WAT     H1 9686   3.847   7.275   5.206
 3148WAT     H2 9687   3.875   7.380   5.328
 3149WAT      O 9688   2.004   5.862   3.212
 3149WAT     H1 9689   1.984   5.869   3.309
 3149WAT     H2 9690   2.090   5.813   3.199
 3150WAT      O 9691   5.856   7.947   1.397
 3150WAT     H1 9692   5.916   8.000   1.337
 3150WAT     H2 9693   5.876   7.849   1.385
 3151WAT      O 9694   4.631   4.318   6.996
 3151WAT     H1 9695   4.607   4.414   6.978
 3151WAT     H2 9696   4.726   4.302   6.968
 3152WAT      O 9697   2.119   2.220   4.391
 3152WAT     H1 9698   2.047   2.198   4.325
 3152WAT     H2 9699   2.155   2.135   4.429
 3153WAT      O 9700   7.987   1.465   1.812
 3153WAT     H1 9701   8.046   1.539   1.780
 3153WAT     H2 9702   8.016   1.436   1.903
 3154WAT      O 9703   0.977   5.718   1.207
 3154WAT     H1 9704   0.891   5.753   1.246
 3154WAT     H2 9705   0.978   5.618   1.215
 3155WAT      O 9706   5.233   8.909   5.771
 3155WAT     H1 9707   5.281   8.953   5.847
 3155WAT     H2 9708   5.229   8.972   5.693
 3156WAT      O 9709   1.800   6.512   1.232
 3156WAT     H1 9710   1.762   6.420   1.225
 3156WAT     H2 9711   1.726   6.578   1.244
 3157WAT      O 9712   9.205   3.474   0.567
 3157WAT     H1 9713   9.127   3.521   0.609
 3157WAT     H2 9714   9.276   3.460   0.635
 3158WAT      O 9715   1.086   9.550   0.888
 3158WAT     H1 9716   1.144   9.478   0.926
 3158WAT     H2 9717   1.143   9.628   0.862
 3159WAT      O 9718   1.776   5.266   2.439
 3159WAT     H1 9719   1.690   5.280   2.392
 3159WAT     H2 9720   1.844   5.229   2.376
 3160WAT      O 9721   0.947   3.052   6.821
 3160WAT     H1 9722   0.877   3.084   6.885
 3160WAT     H2 9723   1.037   3.055   6.865
 3161WAT      O 9724   8.720   8.297   4.903
 3161WAT     H1 9725   8.724   8.395   4.887
 3161WAT     H2 9726   8.812   8.262   4.921
 3162WAT      O 9727   1.689   8.267   3.113
 3162WAT     H1 9728   1.644   8.318   3.040
 3162WAT     H2 9729   1.652   8.174   3.116
 3163WAT      O 9730   6.377   0.405   3.606
 3163WAT     H1 9731   6.329   0.480   3.651
 3163WAT     H2 9732   6.457   0.441   3.558
 3164WAT      O 9733   8.449   4.254   0.404
 3164WAT     H1 9734   8.514   4.309   0.457
 3164WAT     H2 9735   8.488   4.164   0.386
 3165WAT      O 9736   8.061   4.544   3.808
 3165WAT     H1 9737   7.996   4.487   3.858
 3165WAT     H2 9738   8.079   4.628   3.859
 3166WAT      O 9739   8.615   0.496   0.552
 3166WAT     H1 9740   8.603   0.544   0.639
 3166WAT     H2 9741   8.675   0.418   0.565
 3167WAT      O 9742   9.828   8.757   7.741
 3167WAT     H1 9743   9.776   8.821   7.797
 3167WAT     H2 9744   9.835   8.792   7.648
 3168WAT      O 9745   8.140   2.416   0.915
 3168WAT     H1 9746   8.155   2.340   0.851
 3168WAT     H2 9747   8.228   2.445   0.953
 3169WAT      O 9748   7.209   2.035   6.723
 3169WAT     H1 9749   7.305   2.049   6.696
 3169WAT     H2 9750   7.162   2.123   6.723
 3170WAT      O 9751   6.687   0.746   4.522
 3170WAT     H1 9752   6.734   0.667   4.561
 3170WAT     H2 9753   6.589   0.727   4.517
 3171WAT      O 9754   1.831   4.084   3.681
 3171WAT     H1 9755   1.796   4.145   3.753
 3171WAT     H2 9756   1.804   4.120   3.591
 3172WAT      O 9757   3.461   4.925   5.258
 3172WAT     H1 9758   3.374   4.912   5.305
 3172WAT     H2 9759   3.450   4.902   5.161
 3173WAT      O 9760   5.369   2.370   2.511
 3173WAT     H1 9761   5.445   2.349   2.573
 3173WAT     H2 9762   5.321   2.285   2.488
 3174WAT      O 9763   3.799   4.202   9.843
 3174WAT     H1 9764   3.759   4.233   9.757
 3174WAT     H2 9765   3.756   4.116   9.871
 3175WAT      O 9766   8.752   6.139   9.188
 3175WAT     H1 9767   8.762   6.205   9.114
 3175WAT     H2 9768   8.758   6.046   9.151
 3176WAT      O 9769   7.202   5.638   2.414
 3176WAT     H1 9770   7.245   5.595   2.494
 3176WAT     H2 9771   7.268   5.696   2.367
 3177WAT      O 9772   6.385   7.112   3.380
 3177WAT     H1 9773   6.479   7.138   3.360
 3177WAT     H2 9774   6.381   7.016   3.405
 3178WAT      O 9775   7.832   9.637   6.326
 3178WAT     H1 9776   7.858   9.597   6.238
 3178WAT     H2 9777   7.863   9.577   6.400
 3179WAT      O 9778   7.482   6.414   5.310
 3179WAT     H1 9779   7.475   6.500   5.359
 3179WAT     H2 9780   7.421   6.417   5.230
 3180WAT      O 9781   2.830   8.182   9.317
 3180WAT     H1 9782   2.859   8.093   9.352
 3180WAT     H2 9783   2.902   8.249   9.331
 3181WAT      O 9784   5.032   9.185   1.594
 3181WAT     H1 9785   5.118   9.191   1.543
 3181WAT     H2 9786   4.955   9.183   1.530
 3182WAT      O 9787   0.113   3.800   6.245
 3182WAT     H1 9788   0.087   3.893   6.272
 3182WAT     H2 9789   0.087   3.784   6.149
 3183WAT      O 9790   9.232   1.915   0.258
 3183WAT     H1 9791   9.250   1.985   0.328
 3183WAT     H2 9792   9.256   1.825   0.294
 3184WAT      O 9793   3.817   4.744   3.440
 3184WAT     H1 9794   3.837   4.679   3.366
 3184WAT     H2 9795   3.901   4.764   3.490
 3185WAT      O 9796   3.751   2.465   2.144
 3185WAT     H1 9797   3.705   2.449   2.231
 3185WAT     H2 9798   3.683   2.491   2.074
 3186WAT      O 9799   1.758   7.458   9.211
 3186WAT     H1 9800   1.686   7.396   9.179
 3186WAT     H2 9801   1.717   7.534   9.260
 3187WAT      O 9802   2.147   7.683   2.646
 3187WAT     H1 9803   2.049   7.695   2.660
 3187WAT     H2 9804   2.181   7.613   2.708
 3188WAT      O 9805   7.323   3.828   4.982
 3188WAT     H1 9806   7.417   3.845   5.013
 3188WAT     H2 9807   7.260   3.884   5.035
 3189WAT      O 9808   6.612   2.952   2.477
 3189WAT     H1 9809   6.515   2.978   2.472
 3189WAT     H2 9810   6.669   3.031   2.454
 3190WAT      O 9811   6.248   6.437   5.458
 3190WAT     H1 9812   6.287   6.465   5.370
 3190WAT     H2 9813   6.305   6.472   5.532
 3191WAT      O 9814   1.458   5.440   4.527
 3191WAT     H1 9815   1.460   5.387   4.442
 3191WAT     H2 9816   1.371   5.490   4.532
 3192WAT      O 9817   0.248   2.371   6.887
 3192WAT     H1 9818   0.326   2.407   6.937
 3192WAT     H2 9819   0.224   2.433   6.813
 3193WAT      O 9820   9.475   3.606   7.854
 3193WAT     H1 9821   9.477   3.672   7.929
 3193WAT     H2 9822   9.426   3.524   7.883
 3194WAT      O 9823   9.001   7.449   1.601
 3194WAT     H1 9824   9.025   7.427   1.506
 3194WAT     H2 9825   9.006   7.548   1.614
 3195WAT      O 9826   7.559   5.688   2.264
 3195WAT     H1 9827   7.630   5.649   2.323
 3195WAT     H2 9828   7.595   5.771   2.219
 3196WAT      O 9829   0.540   3.856   2.014
 3196WAT     H1 9830   0.504   3.831   2.104
 3196WAT     H2 9831   0.482   3.926   1.973
 3197WAT      O 9832   6.499   1.385   5.914
 3197WAT     H1 9833   6.431   1.380   5.988
 3197WAT     H2 9834   6.510   1.295   5.872
 3198WAT      O 9835   5.744   1.522   0.491
 3198WAT     H1 9836   5.761   1.506   0.588
 3198WAT     H2 9837   5.788   1.608   0.463
 3199WAT      O 9838   0.718   3.009   2.793
 3199WAT     H1 9839   0.765   3.089   2.755
 3199WAT     H2 9840   0.637   2.989   2.739
 3200WAT      O 9841   4.165   1.821   9.452
 3200WAT     H1 9842   4.247   1.874   9.474
 3200WAT     H2 9843   4.116   1.798   9.536
 3201WAT      O 9844   5.899   1.055   2.327
 3201WAT     H1 9845   5.914   1.095   2.237
 3201WAT     H2 9846   5.823   1.102   2.373
 3202WAT      O 9847   7.725   6.237   6.223
 3202WAT     H1 9848   7.760   6.251   6.131
 3202WAT     H2 9849   7.633   6.275   6.231
 3203WAT      O 9850   5.211   2.368   3.186
 3203WAT     H1 9851   5.235   2.271   3.183
 3203WAT     H2 9852   5.293   2.422   3.203
 3204WAT      O 9853   6.301   5.684   1.645
 3204WAT     H1 9854   6.345   5.596   1.661
 3204WAT     H2 9855   6.274   5.691   1.549
 3205WAT      O 9856   5.547   1.565   6.024
 3205WAT     H1 9857   5.599   1.480   6.033
 3205WAT     H2 9858   5.494   1.581   6.107
 3206WAT      O 9859   9.024   2.289   6.071
 3206WAT     H1 9860   9.070   2.246   5.993
 3206WAT     H2 9861   9.082   2.282   6.152
 3207WAT      O 9862   2.447   3.167   4.696
 3207WAT     H1 9863   2.483   3.077   4.721
 3207WAT     H2 9864   2.517   3.236   4.707
 3208WAT      O 9865   1.874   9.333   2.793
 3208WAT     H1 9866   1.946   9.266   2.775
 3208WAT     H2 9867   1.894   9.418   2.746
 3209WAT      O 9868   9.517   5.347   4.518
 3209WAT     H1 9869   9.501   5.340   4.616
 3209WAT     H2 9870   9.430   5.339   4.469
 3210WAT      O 9871   2.633   5.740   3.599
 3210WAT     H1 9872   2.716   5.732   3.544
 3210WAT     H2 9873   2.568   5.800   3.552
 3211WAT      O 9874   8.108   7.929   8.688
 3211WAT     H1 9875   8.053   7.990   8.744
 3211WAT     H2 9876   8.087   7.945   8.591
 3212WAT      O 9877   6.710   7.700   5.384
 3212WAT     H1 9878   6.643   7.648   5.331
 3212WAT     H2 9879   6.715   7.664   5.477
 3213WAT      O 9880   4.883   2.415   6.556
 3213WAT     H1 9881   4.886   2.484   6.628
 3213WAT     H2 9882   4.879   2.461   6.467
 3214WAT      O 9883   7.307   6.712   7.032
 3214WAT     H1 9884   7.221   6.737   6.987
 3214WAT     H2 9885   7.318   6.765   7.115
 3215WAT      O 9886   4.223   1.781   2.013
 3215WAT     H1 9887   4.203   1.686   1.989
 3215WAT     H2 9888   4.245   1.833   1.930
 3216WAT      O 9889   7.197   6.306   0.074
 3216WAT     H1 9890   7.214   6.404   0.058
 3216WAT     H2 9891   7.120   6.276   0.017
 3217WAT      O 9892   3.523   0.468   5.172
 3217WAT     H1 9893   3.613   0.428   5.152
 3217WAT     H2 9894   3.511   0.551   5.117
 3218WAT      O 9895   0.572   9.273   1.202
 3218WAT     H1 9896   0.657   9.281   1.254
 3218WAT     H2 9897   0.496   9.258   1.265
 3219WAT      O 9898   4.470   0.037   4.229
 3219WAT     H1 9899   4.424  -0.018   4.299
 3219WAT     H2 9900   4.470  -0.014   4.143
 3220WAT      O 9901   6.406   1.591   4.986
 3220WAT     H1 9902   6.396   1.668   5.049
 3220WAT     H2 9903   6.482   1.534   5.015
 3221WAT      O 9904   0.873   8.846   7.490
 3221WAT     H1 9905   0.928   8.909   7.436
 3221WAT     H2 9906   0.835   8.893   7.569
 3222WAT      O 9907   0.142   0.715   8.197
 3222WAT     H1 9908   0.177   0.672   8.280
 3222WAT     H2 9909   0.058   0.765   8.219
 3223WAT      O 9910   0.337   5.525   3.352
 3223WAT     H1 9911   0.320   5.623   3.339
 3223WAT     H2 9912   0.250   5.475   3.345
 3224WAT      O 9913   2.108   0.021   9.869
 3224WAT     H1 9914   2.152   0.089   9.811
 3224WAT     H2 9915   2.135  -0.071   9.840
 3225WAT      O 9916   3.999   3.398   5.124
 3225WAT     H1 9917   4.055   3.480   5.110
 3225WAT     H2 9918   3.988   3.350   5.037
 3226WAT      O 9919   2.270   0.244   6.264
 3226WAT     H1 9920   2.181   0.265   6.224
 3226WAT     H2 9921   2.309   0.326   6.305
 3227WAT      O 9922   7.090   7.393   5.781
 3227WAT     H1 9923   7.129   7.328   5.716
 3227WAT     H2 9924   6.993   7.406   5.760
 3228WAT      O 9925   4.451   8.174   8.091
 3228WAT     H1 9926   4.441   8.215   8.000
 3228WAT     H2 9927   4.394   8.224   8.156
 3229WAT      O 9928   9.827   3.618   2.129
 3229WAT     H1 9929   9.881   3.537   2.106
 3229WAT     H2 9930   9.765   3.640   2.054
 3230WAT      O 9931   3.544   7.118   9.664
 3230WAT     H1 9932   3.561   7.102   9.567
 3230WAT     H2 9933   3.445   7.118   9.681
 3231WAT      O 9934   6.347   0.465   8.994
 3231WAT     H1 9935   6.285   0.388   9.008
 3231WAT     H2 9936   6.294   0.550   8.994
 3232WAT      O 9937   0.794   7.902   3.715
 3232WAT     H1 9938   0.774   7.882   3.811
 3232WAT     H2 9939   0.728   7.969   3.681
 3233WAT      O 9940   1.931   3.242   6.550
 3233WAT     H1 9941   1.955   3.192   6.467
 3233WAT     H2 9942   2.002   3.229   6.619
 3234WAT      O 9943   9.053   3.991   5.848
 3234WAT     H1 9944   9.151   3.983   5.826
 3234WAT     H2 9945   9.022   4.084   5.831
 3235WAT      O 9946   0.555   3.097   7.356
 3235WAT     H1 9947   0.608   3.174   7.390
 3235WAT     H2 9948   0.486   3.130   7.291
 3236WAT      O 9949   9.303   5.619   1.807
 3236WAT     H1 9950   9.359   5.561   1.748
 3236WAT     H2 9951   9.229   5.659   1.753
 3237WAT      O 9952   1.154   9.717   8.225
 3237WAT     H1 9953   1.203   9.803   8.238
 3237WAT     H2 9954   1.183   9.651   8.295
 3238WAT      O 9955   1.412   0.498   4.851
 3238WAT     H1 9956   1.365   0.573   4.897
 3238WAT     H2 9957   1.485   0.464   4.911
 3239WAT      O 9958   9.228   9.772   6.554
 3239WAT     H1 9959   9.284   9.802   6.476
 3239WAT     H2 9960   9.133   9.800   6.539
 3240WAT      O 9961   7.456   5.718   0.129
 3240WAT     H1 9962   7.430   5.627   0.162
 3240WAT     H2 9963   7.419   5.787   0.190
 3241WAT      O 9964   6.316   2.805   8.772
 3241WAT     H1 9965   6.350   2.857   8.851
 3241WAT     H2 9966   6.251   2.862   8.721
 3242WAT      O 9967   7.765   6.907   1.626
 3242WAT     H1 9968   7.702   6.862   1.689
 3242WAT     H2 9969   7.816   6.978   1.675
 3243WAT      O 9970   2.876   4.134   4.497
 3243WAT     H1 9971   2.815   4.156   4.573
 3243WAT     H2 9972   2.827   4.139   4.410
 3244WAT      O 9973   8.151   6.966   9.050
 3244WAT     H1 9974   8.155   6.925   8.958
 3244WAT     H2 9975   8.243   6.996   9.076
 3245WAT      O 9976   3.088   9.266   8.892
 3245WAT     H1 9977   3.019   9.274   8.820
 3245WAT     H2 9978   3.149   9.190   8.871
 3246WAT      O 9979   8.173   4.619   5.813
 3246WAT     H1 9980   8.233   4.694   5.787
 3246WAT     H2 9981   8.226   4.550   5.863
 3247WAT      O 9982   9.709   2.620   4.581
 3247WAT     H1 9983   9.804   2.652   4.589
 3247WAT     H2 9984   9.707   2.520   4.586
 3248WAT      O 9985   0.430   9.298   2.377
 3248WAT     H1 9986   0.436   9.356   2.459
 3248WAT     H2 9987   0.393   9.353   2.302
 3249WAT      O 9988   2.242   8.445   9.607
 3249WAT     H1 9989   2.278   8.353   9.590
 3249WAT     H2 9990   2.304   8.495   9.667
 3250WAT      O 9991   9.197   7.172   8.595
 3250WAT     H1 9992   9.226   7.076   8.603
 3250WAT     H2 9993   9.107   7.183   8.637
 3251WAT      O 9994   7.966   2.417   3.876
 3251WAT     H1 9995   7.947   2.421   3.778
 3251WAT     H2 9996   7.956   2.509   3.916
 3252WAT      O 9997   4.866   3.938   0.283
 3252WAT     H1 9998   4.918   3.866   0.329
 3252WAT     H2 9999   4.929   3.998   0.233
 3253WAT      O10000   6.238   6.161   9.400
 3253WAT     H110001   6.192   6.251   9.399
 3253WAT     H210002   6.223   6.118   9.489
 3254WAT      O10003   4.343   2.280   5.089
 3254WAT     H110004   4.296   2.333   5.159
 3254WAT     H210005   4.353   2.335   5.006
 3255WAT      O10006   1.174   0.498   7.763
 3255WAT     H110007   1.176   0.597   7.774
 3255WAT     H210008   1.210   0.474   7.672
 3256WAT      O10009   2.888   3.695   7.539
 3256WAT     H110010   2.919   3.737   7.454
 3256WAT     H210011   2.794   3.723   7.559
 3257WAT      O10012   3.606   0.526   1.126
 3257WAT     H110013   3.601   0.526   1.226
 3257WAT     H210014   3.658   0.446   1.096
 3258WAT      O10015   1.633   5.658   6.076
 3258WAT     H110016   1.606   5.710   5.995
 3258WAT     H210017   1.693   5.713   6.133
 3259WAT      O10018   8.208   1.371   4.968
 3259WAT     H110019   8.116   1.362   4.932
 3259WAT     H210020   8.243   1.463   4.947
 3260WAT      O10021   6.205   1.399   7.109
 3260WAT     H110022   6.131   1.341   7.144
 3260WAT     H210023   6.274   1.341   7.065
 3261WAT      O10024   7.938   1.972   3.506
 3261WAT     H110025   7.915   1.894   3.448
 3261WAT     H210026   8.008   1.943   3.573
 3262WAT      O10027   6.633   7.229   4.182
 3262WAT     H110028   6.541   7.267   4.185
 3262WAT     H210029   6.628   7.129   4.177
 3263WAT      O10030   8.387   4.727   7.048
 3263WAT     H110031   8.329   4.668   7.104
 3263WAT     H210032   8.332   4.801   7.010
 3264WAT      O10033   3.473   3.756   0.376
 3264WAT     H110034   3.451   3.693   0.451
 3264WAT     H210035   3.570   3.749   0.353
 3265WAT      O10036   6.037   5.996   8.268
 3265WAT     H110037   6.025   5.941   8.186
 3265WAT     H210038   6.132   6.028   8.273
 3266WAT      O10039   5.621   7.118   3.337
 3266WAT     H110040   5.684   7.043   3.354
 3266WAT     H210041   5.642   7.161   3.249
 3267WAT      O10042   5.784   8.205   8.662
 3267WAT     H110043   5.841   8.185   8.582
 3267WAT     H210044   5.693   8.166   8.647
 3268WAT      O10045   2.172   2.102   1.757
 3268WAT     H110046   2.097   2.036   1.747
 3268WAT     H210047   2.135   2.195   1.748
 3269WAT      O10048   4.215   2.230   8.955
 3269WAT     H110049   4.309   2.209   8.983
 3269WAT     H210050   4.203   2.205   8.859
 3270WAT      O10051   0.193   4.351   5.827
 3270WAT     H110052   0.159   4.350   5.921
 3270WAT     H210053   0.293   4.349   5.827
 3271WAT      O10054   9.594   0.226   0.376
 3271WAT     H110055   9.576   0.313   0.329
 3271WAT     H210056   9.626   0.159   0.310
 3272WAT      O10057   5.527   7.202   6.546
 3272WAT     H110058   5.523   7.234   6.451
 3272WAT     H210059   5.456   7.247   6.599
 3273WAT      O10060   7.631   0.835   7.127
 3273WAT     H110061   7.532   0.823   7.122
 3273WAT     H210062   7.672   0.810   7.040
 3274WAT      O10063   4.234   7.786   7.886
 3274WAT     H110064   4.144   7.742   7.889
 3274WAT     H210065   4.233   7.859   7.818
 3275WAT      O10066   7.532   6.409   6.425
 3275WAT     H110067   7.500   6.376   6.514
 3275WAT     H210068   7.593   6.486   6.438
 3276WAT      O10069   9.869   0.425   2.286
 3276WAT     H110070   9.937   0.360   2.318
 3276WAT     H210071   9.876   0.510   2.339
 3277WAT      O10072   2.540   2.704   4.431
 3277WAT     H110073   2.530   2.707   4.331
 3277WAT     H210074   2.564   2.795   4.465
 3278WAT      O10075   1.238   9.705   7.953
 3278WAT     H110076   1.330   9.739   7.931
 3278WAT     H210077   1.225   9.706   8.052
 3279WAT      O10078   4.590   0.614   4.016
 3279WAT     H110079   4.662   0.547   3.999
 3279WAT     H210080   4.614   0.701   3.972
 3280WAT      O10081   1.150   7.665   3.907
 3280WAT     H110082   1.223   7.604   3.938
 3280WAT     H210083   1.086   7.680   3.982
 3281WAT      O10084   2.539   8.990   8.342
 3281WAT     H110085   2.493   9.072   8.376
 3281WAT     H210086   2.490   8.909   8.374
 3282WAT      O10087   4.745   7.159   1.946
 3282WAT     H110088   4.781   7.197   1.861
 3282WAT     H210089   4.821   7.135   2.007
 3283WAT      O10090   5.526   2.177   6.589
 3283WAT     H110091   5.541   2.127   6.674
 3283WAT     H210092   5.575   2.264   6.593
 3284WAT      O10093   4.572   0.162   3.487
 3284WAT     H110094   4.546   0.091   3.421
 3284WAT     H210095   4.636   0.225   3.443
 3285WAT      O10096   6.873   4.910   0.550
 3285WAT     H110097   6.940   4.857   0.499
 3285WAT     H210098   6.782   4.895   0.512
 3286WAT      O10099   5.362   3.706   9.376
 3286WAT     H110100   5.392   3.681   9.284
 3286WAT     H210101   5.271   3.748   9.371
 3287WAT      O10102   3.909   8.537   9.707
 3287WAT     H110103   3.858   8.484   9.640
 3287WAT     H210104   3.850   8.608   9.746
 3288WAT      O10105   5.140   9.290   3.761
 3288WAT     H110106   5.189   9.353   3.821
 3288WAT     H210107   5.137   9.327   3.669
 3289WAT      O10108   2.788   8.513   4.329
 3289WAT     H110109   2.720   8.441   4.349
 3289WAT     H210110   2.743   8.587   4.279
 3290WAT      O10111   6.482   0.125   1.312
 3290WAT     H110112   6.483   0.179   1.228
 3290WAT     H210113   6.399   0.070   1.316
 3291WAT      O10114   1.022   3.860   2.482
 3291WAT     H110115   1.078   3.942   2.489
 3291WAT     H210116   1.077   3.780   2.506
 3292WAT      O10117   3.778   7.988   2.425
 3292WAT     H110118   3.761   7.894   2.454
 3292WAT     H210119   3.767   7.995   2.326
 3293WAT      O10120   8.723   6.225   0.703
 3293WAT     H110121   8.754   6.140   0.660
 3293WAT     H210122   8.661   6.203   0.778
 3294WAT      O10123   4.799   9.189   7.246
 3294WAT     H110124   4.719   9.199   7.187
 3294WAT     H210125   4.826   9.093   7.251
 3295WAT      O10126   9.863   4.930   7.453
 3295WAT     H110127   9.941   4.919   7.391
 3295WAT     H210128   9.793   4.863   7.428
 3296WAT      O10129   6.812   7.154   8.725
 3296WAT     H110130   6.817   7.222   8.798
 3296WAT     H210131   6.723   7.159   8.680
 3297WAT      O10132   2.488   0.654   9.641
 3297WAT     H110133   2.541   0.738   9.633
 3297WAT     H210134   2.392   0.673   9.621
 3298WAT      O10135   3.504   4.280   2.243
 3298WAT     H110136   3.534   4.248   2.333
 3298WAT     H210137   3.428   4.344   2.254
 3299WAT      O10138   9.218   3.606   0.943
 3299WAT     H110139   9.224   3.691   0.892
 3299WAT     H210140   9.282   3.539   0.904
 3300WAT      O10141   8.754   8.107   1.711
 3300WAT     H110142   8.695   8.182   1.742
 3300WAT     H210143   8.705   8.020   1.721
 3301WAT      O10144   5.455   0.405   2.828
 3301WAT     H110145   5.462   0.490   2.881
 3301WAT     H210146   5.518   0.337   2.867
 3302WAT      O10147   8.064   5.020   9.171
 3302WAT     H110148   7.981   5.072   9.152
 3302WAT     H210149   8.045   4.952   9.242
 3303WAT      O10150   6.516   6.067   9.686
 3303WAT     H110151   6.609   6.097   9.706
 3303WAT     H210152   6.491   5.993   9.748
 3304WAT      O10153   8.734   3.896   9.391
 3304WAT     H110154   8.758   3.829   9.461
 3304WAT     H210155   8.782   3.874   9.306
 3305WAT      O10156   2.257   6.936   6.227
 3305WAT     H110157   2.288   6.843   6.206
 3305WAT     H210158   2.189   6.964   6.159
 3306WAT      O10159   3.700   2.752   3.992
 3306WAT     H110160   3.634   2.820   3.958
 3306WAT     H210161   3.745   2.707   3.914
 3307WAT      O10162   1.841   8.452   7.576
 3307WAT     H110163   1.770   8.518   7.551
 3307WAT     H210164   1.930   8.485   7.543
 3308WAT      O10165   1.810   9.795   2.895
 3308WAT     H110166   1.870   9.859   2.847
 3308WAT     H210167   1.722   9.840   2.914
 3309WAT      O10168   8.649   3.043   4.988
 3309WAT     H110169   8.684   3.103   4.917
 3309WAT     H210170   8.687   2.952   4.977
 3310WAT      O10171   1.186   9.037   5.902
 3310WAT     H110172   1.259   8.987   5.855
 3310WAT     H210173   1.127   8.973   5.950
 3311WAT      O10174   9.309   8.256   6.705
 3311WAT     H110175   9.282   8.272   6.800
 3311WAT     H210176   9.351   8.166   6.697
 3312WAT      O10177   9.382   1.592   5.873
 3312WAT     H110178   9.381   1.682   5.831
 3312WAT     H210179   9.357   1.523   5.806
 3313WAT      O10180   4.249   8.362   3.292
 3313WAT     H110181   4.282   8.283   3.240
 3313WAT     H210182   4.207   8.428   3.230
 3314WAT      O10183   3.552   2.844   7.493
 3314WAT     H110184   3.546   2.939   7.461
 3314WAT     H210185   3.556   2.782   7.415
 3315WAT      O10186   5.355   8.797   9.875
 3315WAT     H110187   5.342   8.699   9.888
 3315WAT     H210188   5.276   8.835   9.827
 3316WAT      O10189   0.126   0.656   7.695
 3316WAT     H110190   0.196   0.721   7.669
 3316WAT     H210191   0.106   0.666   7.793
 3317WAT      O10192   8.843   5.367   3.533
 3317WAT     H110193   8.877   5.336   3.622
 3317WAT     H210194   8.797   5.455   3.544
 3318WAT      O10195   8.420   7.262   3.368
 3318WAT     H110196   8.507   7.235   3.328
 3318WAT     H210197   8.418   7.238   3.465
 3319WAT      O10198   5.737   6.053   3.031
 3319WAT     H110199   5.719   5.973   3.088
 3319WAT     H210200   5.707   6.035   2.937
 3320WAT      O10201   5.991   2.565   1.833
 3320WAT     H110202   6.007   2.642   1.894
 3320WAT     H210203   5.898   2.530   1.847
 3321WAT      O10204   2.708   5.423   2.716
 3321WAT     H110205   2.654   5.408   2.798
 3321WAT     H210206   2.800   5.385   2.729
 3322WAT      O10207   3.518   6.427   0.069
 3322WAT     H110208   3.436   6.483   0.056
 3322WAT     H210209   3.495   6.347   0.123
 3323WAT      O10210   9.088   4.486   5.427
 3323WAT     H110211   9.173   4.495   5.375
 3323WAT     H210212   9.035   4.410   5.391
 3324WAT      O10213   7.446   3.418   5.659
 3324WAT     H110214   7.446   3.417   5.559
 3324WAT     H210215   7.413   3.506   5.692
 3325WAT      O10216   5.270   1.999   4.422
 3325WAT     H110217   5.209   1.920   4.438
 3325WAT     H210218   5.236   2.051   4.344
 3326WAT      O10219   6.652   5.806   4.834
 3326WAT     H110220   6.583   5.861   4.786
 3326WAT     H210221   6.618   5.713   4.845
 3327WAT      O10222   1.702   7.456   5.366
 3327WAT     H110223   1.604   7.452   5.346
 3327WAT     H210224   1.722   7.395   5.443
 3328WAT      O10225   1.155   5.312   5.533
 3328WAT     H110226   1.180   5.332   5.438
 3328WAT     H210227   1.142   5.398   5.582
 3329WAT      O10228   3.084   3.760   5.957
 3329WAT     H110229   3.044   3.682   6.004
 3329WAT     H210230   3.169   3.787   6.002
 3330WAT      O10231   8.886   2.287   7.435
 3330WAT     H110232   8.907   2.219   7.505
 3330WAT     H210233   8.807   2.257   7.382
 3331WAT      O10234   4.785   5.652   3.219
 3331WAT     H110235   4.733   5.687   3.141
 3331WAT     H210236   4.882   5.677   3.208
 3332WAT      O10237   5.400   5.654   7.215
 3332WAT     H110238   5.475   5.647   7.281
 3332WAT     H210239   5.314   5.668   7.263
 3333WAT      O10240   9.338   5.279   7.791
 3333WAT     H110241   9.348   5.180   7.802
 3333WAT     H210242   9.412   5.325   7.840
 3334WAT      O10243   7.864   5.418   8.916
 3334WAT     H110244   7.775   5.437   8.875
 3334WAT     H210245   7.858   5.333   8.968
 3335WAT      O10246   2.953   7.123   4.762
 3335WAT     H110247   2.963   7.075   4.674
 3335WAT     H210248   3.040   7.166   4.787
 3336WAT      O10249   1.812   7.288   4.117
 3336WAT     H110250   1.737   7.260   4.178
 3336WAT     H210251   1.898   7.251   4.152
 3337WAT      O10252   8.903   5.202   5.922
 3337WAT     H110253   8.996   5.168   5.933
 3337WAT     H210254   8.840   5.142   5.971
 3338WAT      O10255   2.990   2.566   6.937
 3338WAT     H110256   2.918   2.511   6.895
 3338WAT     H210257   3.066   2.507   6.965
 3339WAT      O10258   6.940   3.060   2.110
 3339WAT     H110259   6.855   3.008   2.101
 3339WAT     H210260   6.928   3.131   2.179
 3340WAT      O10261   4.916   3.581   0.230
 3340WAT     H110262   4.948   3.626   0.147
 3340WAT     H210263   4.965   3.617   0.309
 3341WAT      O10264   7.950   1.815   2.389
 3341WAT     H110265   7.971   1.852   2.480
 3341WAT     H210266   7.865   1.857   2.355
 3342WAT      O10267   6.898   8.365   6.947
 3342WAT     H110268   6.918   8.273   6.982
 3342WAT     H210269   6.843   8.414   7.015
 3343WAT      O10270   5.997   3.313   0.458
 3343WAT     H110271   5.975   3.371   0.536
 3343WAT     H210272   5.954   3.223   0.471
 3344WAT      O10273   5.324   6.083   6.932
 3344WAT     H110274   5.377   6.060   6.851
 3344WAT     H210275   5.344   6.018   7.005
 3345WAT      O10276   9.874   9.716   4.162
 3345WAT     H110277   9.850   9.672   4.075
 3345WAT     H210278   9.792   9.754   4.203
 3346WAT      O10279   5.947   7.642   7.895
 3346WAT     H110280   5.906   7.551   7.888
 3346WAT     H210281   6.045   7.633   7.910
 3347WAT      O10282   7.916   2.376   0.639
 3347WAT     H110283   7.868   2.351   0.722
 3347WAT     H210284   7.945   2.294   0.590
 3348WAT      O10285   3.857   7.102   8.627
 3348WAT     H110286   3.815   7.178   8.677
 3348WAT     H210287   3.954   7.121   8.612
 3349WAT      O10288   5.131   6.607   4.533
 3349WAT     H110289   5.212   6.550   4.544
 3349WAT     H210290   5.071   6.595   4.613
 3350WAT      O10291   3.104   3.350   9.751
 3350WAT     H110292   3.018   3.302   9.767
 3350WAT     H210293   3.093   3.415   9.675
 3351WAT      O10294   6.894   2.068   2.880
 3351WAT     H110295   6.967   2.086   2.813
 3351WAT     H210296   6.806   2.063   2.832
 3352WAT      O10297   3.459   0.113   3.940
 3352WAT     H110298   3.555   0.138   3.929
 3352WAT     H210299   3.402   0.195   3.936
 3353WAT      O10300   0.366   1.860   3.390
 3353WAT     H110301   0.292   1.857   3.457
 3353WAT     H210302   0.451   1.825   3.431
 3354WAT      O10303   5.310   3.233   8.401
 3354WAT     H110304   5.338   3.139   8.383
 3354WAT     H210305   5.339   3.292   8.325
 3355WAT      O10306   2.324   7.687   8.377
 3355WAT     H110307   2.252   7.662   8.312
 3355WAT     H210308   2.338   7.786   8.374
 3356WAT      O10309   7.320   4.642   7.720
 3356WAT     H110310   7.267   4.574   7.771
 3356WAT     H210311   7.417   4.628   7.735
 3357WAT      O10312   3.155   0.525   5.319
 3357WAT     H110313   3.126   0.457   5.251
 3357WAT     H210314   3.084   0.535   5.388
 3358WAT      O10315   5.876   3.261   2.189
 3358WAT     H110316   5.801   3.327   2.191
 3358WAT     H210317   5.928   3.267   2.275
 3359WAT      O10318   7.560   0.604   6.823
 3359WAT     H110319   7.552   0.571   6.917
 3359WAT     H210320   7.499   0.683   6.810
 3360WAT      O10321   2.694   3.208   5.023
 3360WAT     H110322   2.731   3.131   5.074
 3360WAT     H210323   2.594   3.200   5.016
 3361WAT      O10324   4.933   0.460   6.379
 3361WAT     H110325   4.883   0.546   6.369
 3361WAT     H210326   4.899   0.411   6.459
 3362WAT      O10327   4.392   0.978   3.369
 3362WAT     H110328   4.391   0.883   3.400
 3362WAT     H210329   4.476   1.023   3.400
 3363WAT      O10330   0.383   0.766   6.176
 3363WAT     H110331   0.435   0.712   6.109
 3363WAT     H210332   0.360   0.855   6.136
 3364WAT      O10333   8.442   8.326   1.425
 3364WAT     H110334   8.440   8.396   1.496
 3364WAT     H210335   8.427   8.368   1.336
 3365WAT      O10336   0.288   7.276   3.526
 3365WAT     H110337   0.384   7.267   3.552
 3365WAT     H210338   0.262   7.200   3.467
 3366WAT      O10339   0.977   3.758   0.518
 3366WAT     H110340   0.884   3.783   0.546
 3366WAT     H210341   1.043   3.821   0.558
 3367WAT      O10342   8.570   9.295   7.992
 3367WAT     H110343   8.661   9.310   7.953
 3367WAT     H210344   8.573   9.219   8.058
 3368WAT      O10345   5.750   7.937   0.736
 3368WAT     H110346   5.668   7.932   0.793
 3368WAT     H210347   5.749   7.861   0.671
 3369WAT      O10348   9.658   7.734   5.235
 3369WAT     H110349   9.747   7.776   5.251
 3369WAT     H210350   9.636   7.739   5.138
 3370WAT      O10351   8.689   2.198   3.563
 3370WAT     H110352   8.592   2.192   3.538
 3370WAT     H210353   8.742   2.228   3.484
 3371WAT      O10354   6.048   9.653   8.924
 3371WAT     H110355   6.143   9.685   8.928
 3371WAT     H210356   6.021   9.637   8.829
 3372WAT      O10357   5.973   5.672   9.650
 3372WAT     H110358   5.893   5.613   9.636
 3372WAT     H210359   6.054   5.627   9.614
 3373WAT      O10360   3.514   7.886   1.219
 3373WAT     H110361   3.441   7.844   1.166
 3373WAT     H210362   3.586   7.917   1.157
 3374WAT      O10363   7.041   3.859   5.747
 3374WAT     H110364   7.101   3.843   5.825
 3374WAT     H210365   7.012   3.771   5.709
 3375WAT      O10366   7.163   0.428   8.269
 3375WAT     H110367   7.250   0.472   8.245
 3375WAT     H210368   7.092   0.459   8.207
 3376WAT      O10369   2.442   1.383   7.301
 3376WAT     H110370   2.492   1.296   7.294
 3376WAT     H210371   2.359   1.369   7.355
 3377WAT      O10372   0.088   0.818   1.461
 3377WAT     H110373   0.165   0.864   1.504
 3377WAT     H210374   0.037   0.767   1.530
 3378WAT      O10375   7.847   9.227   2.609
 3378WAT     H110376   7.851   9.223   2.510
 3378WAT     H210377   7.761   9.270   2.637
 3379WAT      O10378   8.613   5.262   0.456
 3379WAT     H110379   8.689   5.290   0.397
 3379WAT     H210380   8.576   5.342   0.503
 3380WAT      O10381   9.685   1.273   8.605
 3380WAT     H110382   9.694   1.295   8.508
 3380WAT     H210383   9.610   1.207   8.617
 3381WAT      O10384   6.924   6.378   0.502
 3381WAT     H110385   6.918   6.439   0.580
 3381WAT     H210386   7.016   6.381   0.463
 3382WAT      O10387   9.168   7.252   7.645
 3382WAT     H110388   9.079   7.209   7.627
 3382WAT     H210389   9.201   7.296   7.562
 3383WAT      O10390   5.690   5.493   9.680
 3383WAT     H110391   5.625   5.542   9.624
 3383WAT     H210392   5.714   5.407   9.636
 3384WAT      O10393   9.113   0.177   2.841
 3384WAT     H110394   9.114   0.225   2.753
 3384WAT     H210395   9.181   0.103   2.839
 3385WAT      O10396   6.386   6.806   4.161
 3385WAT     H110397   6.345   6.776   4.248
 3385WAT     H210398   6.341   6.891   4.132
 3386WAT      O10399   5.263   6.705   2.761
 3386WAT     H110400   5.270   6.605   2.754
 3386WAT     H210401   5.180   6.729   2.810
 3387WAT      O10402   0.176   2.300   1.863
 3387WAT     H110403   0.256   2.254   1.902
 3387WAT     H210404   0.103   2.304   1.930
 3388WAT      O10405   6.382   0.021   4.781
 3388WAT     H110406   6.314  -0.033   4.832
 3388WAT     H210407   6.337   0.101   4.740
 3389WAT      O10408   8.327   7.548   4.822
 3389WAT     H110409   8.261   7.488   4.868
 3389WAT     H210410   8.310   7.643   4.849
 3390WAT      O10411   4.136   6.017   3.114
 3390WAT     H110412   4.166   6.097   3.062
 3390WAT     H210413   4.082   5.958   3.054
 3391WAT      O10414   8.114   3.367   5.010
 3391WAT     H110415   8.082   3.417   5.090
 3391WAT     H210416   8.160   3.283   5.040
 3392WAT      O10417   7.868   7.061   9.430
 3392WAT     H110418   7.891   6.976   9.478
 3392WAT     H210419   7.849   7.041   9.334
 3393WAT      O10420   0.959   9.652   3.277
 3393WAT     H110421   0.972   9.615   3.185
 3393WAT     H210422   0.867   9.629   3.309
 3394WAT      O10423   7.048   4.457   8.288
 3394WAT     H110424   6.993   4.501   8.359
 3394WAT     H210425   7.139   4.498   8.286
 3395WAT      O10426   7.303   7.063   8.671
 3395WAT     H110427   7.348   6.974   8.681
 3395WAT     H210428   7.358   7.133   8.715
 3396WAT      O10429   4.508   2.961   7.963
 3396WAT     H110430   4.457   2.878   7.985
 3396WAT     H210431   4.606   2.940   7.958
 3397WAT      O10432   1.061   9.660   4.096
 3397WAT     H110433   0.995   9.722   4.053
 3397WAT     H210434   1.072   9.684   4.192
 3398WAT      O10435   3.574   5.635   0.554
 3398WAT     H110436   3.627   5.628   0.639
 3398WAT     H210437   3.617   5.702   0.493
 3399WAT      O10438   0.260   5.510   4.084
 3399WAT     H110439   0.164   5.532   4.070
 3399WAT     H210440   0.284   5.520   4.181
 3400WAT      O10441   2.086   4.828   0.187
 3400WAT     H110442   2.140   4.744   0.186
 3400WAT     H210443   2.147   4.907   0.185
 3401WAT      O10444   8.467   1.108   3.569
 3401WAT     H110445   8.510   1.028   3.612
 3401WAT     H210446   8.373   1.118   3.604
 3402WAT      O10447   5.154   7.455   8.564
 3402WAT     H110448   5.231   7.477   8.625
 3402WAT     H210449   5.068   7.469   8.613
 3403WAT      O10450   5.861   6.595   9.525
 3403WAT     H110451   5.807   6.511   9.531
 3403WAT     H210452   5.927   6.597   9.600
 3404WAT      O10453   3.358   2.479   2.722
 3404WAT     H110454   3.309   2.428   2.792
 3404WAT     H210455   3.449   2.504   2.756
 3405WAT      O10456   7.915   1.894   5.511
 3405WAT     H110457   7.916   1.961   5.436
 3405WAT     H210458   7.978   1.924   5.583
 3406WAT      O10459   6.066   8.722   0.316
 3406WAT     H110460   5.986   8.768   0.279
 3406WAT     H210461   6.090   8.763   0.404
 3407WAT      O10462   3.292   4.390   7.975
 3407WAT     H110463   3.363   4.441   7.927
 3407WAT     H210464   3.333   4.342   8.053
 3408WAT      O10465   1.816   8.813   0.459
 3408WAT     H110466   1.794   8.746   0.529
 3408WAT     H210467   1.752   8.802   0.382
 3409WAT      O10468   4.394   6.912   3.823
 3409WAT     H110469   4.440   6.871   3.743
 3409WAT     H210470   4.420   6.861   3.905
 3410WAT      O10471   7.643   2.522   4.047
 3410WAT     H110472   7.543   2.516   4.043
 3410WAT     H210473   7.669   2.615   4.072
 3411WAT      O10474   9.111   2.669   9.677
 3411WAT     H110475   9.028   2.640   9.629
 3411WAT     H210476   9.185   2.680   9.612
 3412WAT      O10477   5.516   1.268   3.767
 3412WAT     H110478   5.558   1.285   3.856
 3412WAT     H210479   5.539   1.343   3.705
 3413WAT      O10480   7.749   6.275   6.633
 3413WAT     H110481   7.655   6.291   6.661
 3413WAT     H210482   7.753   6.198   6.570
 3414WAT      O10483   8.903   3.543   1.471
 3414WAT     H110484   8.823   3.566   1.416
 3414WAT     H210485   8.941   3.455   1.439
 3415WAT      O10486   5.294   9.433   4.691
 3415WAT     H110487   5.283   9.375   4.772
 3415WAT     H210488   5.383   9.480   4.696
 3416WAT      O10489   5.762   2.506   4.885
 3416WAT     H110490   5.688   2.490   4.819
 3416WAT     H210491   5.798   2.598   4.871
 3417WAT      O10492   1.301   9.220   3.870
 3417WAT     H110493   1.383   9.213   3.926
 3417WAT     H210494   1.246   9.137   3.880
 3418WAT      O10495   6.461   8.301   9.185
 3418WAT     H110496   6.476   8.326   9.089
 3418WAT     H210497   6.447   8.202   9.191
 3419WAT      O10498   3.197   6.805   6.480
 3419WAT     H110499   3.296   6.800   6.473
 3419WAT     H210500   3.169   6.900   6.493
 3420WAT      O10501   0.201   0.624   0.374
 3420WAT     H110502   0.261   0.664   0.305
 3420WAT     H210503   0.255   0.593   0.452
 3421WAT      O10504   2.874   1.817   9.238
 3421WAT     H110505   2.855   1.903   9.285
 3421WAT     H210506   2.805   1.749   9.263
 3422WAT      O10507   4.208   0.634   6.531
 3422WAT     H110508   4.126   0.622   6.586
 3422WAT     H210509   4.247   0.724   6.548
 3423WAT      O10510   4.426   2.606   7.028
 3423WAT     H110511   4.376   2.658   6.959
 3423WAT     H210512   4.389   2.626   7.119
 3424WAT      O10513   6.873   4.968   7.779
 3424WAT     H110514   6.963   5.003   7.803
 3424WAT     H210515   6.865   4.873   7.809
 3425WAT      O10516   1.345   7.955   4.644
 3425WAT     H110517   1.432   7.908   4.659
 3425WAT     H210518   1.320   8.005   4.727
 3426WAT      O10519   7.873   8.003   1.428
 3426WAT     H110520   7.870   7.908   1.458
 3426WAT     H210521   7.967   8.028   1.404
 3427WAT      O10522   7.402   7.693   8.166
 3427WAT     H110523   7.335   7.667   8.097
 3427WAT     H210524   7.494   7.689   8.127
 3428WAT      O10525   8.413   1.171   1.290
 3428WAT     H110526   8.376   1.264   1.287
 3428WAT     H210527   8.506   1.171   1.254
 3429WAT      O10528   6.676   2.793   8.620
 3429WAT     H110529   6.633   2.864   8.676
 3429WAT     H210530   6.641   2.703   8.647
 3430WAT      O10531   9.349   9.589   7.038
 3430WAT     H110532   9.317   9.610   6.946
 3430WAT     H210533   9.386   9.496   7.041
 3431WAT      O10534   6.970   4.167   8.696
 3431WAT     H110535   7.002   4.139   8.606
 3431WAT     H210536   6.976   4.266   8.705
 3432WAT      O10537   4.190   1.377   8.492
 3432WAT     H110538   4.171   1.320   8.571
 3432WAT     H210539   4.182   1.474   8.517
 3433WAT      O10540   1.186   6.452   9.418
 3433WAT     H110541   1.270   6.429   9.368
 3433WAT     H210542   1.201   6.436   9.516
 3434WAT      O10543   8.446   4.164   5.230
 3434WAT     H110544   8.525   4.108   5.208
 3434WAT     H210545   8.401   4.129   5.313
 3435WAT      O10546   7.984   9.126   9.314
 3435WAT     H110547   8.021   9.095   9.402
 3435WAT     H210548   8.011   9.221   9.299
 3436WAT      O10549   8.851   7.307   8.992
 3436WAT     H110550   8.859   7.406   8.983
 3436WAT     H210551   8.849   7.283   9.089
 3437WAT      O10552   3.925   8.176   2.175
 3437WAT     H110553   3.919   8.243   2.249
 3437WAT     H210554   3.995   8.206   2.109
 3438WAT      O10555   4.039   9.433   5.702
 3438WAT     H110556   4.105   9.462   5.633
 3438WAT     H210557   3.948   9.465   5.676
 3439WAT      O10558   9.797   3.768   6.435
 3439WAT     H110559   9.861   3.746   6.361
 3439WAT     H210560   9.846   3.770   6.522
 3440WAT      O10561   3.801   1.006   6.760
 3440WAT     H110562   3.901   1.010   6.760
 3440WAT     H210563   3.772   0.911   6.758
 3441WAT      O10564   1.635   0.611   5.779
 3441WAT     H110565   1.577   0.553   5.722
 3441WAT     H210566   1.696   0.553   5.833
 3442WAT      O10567   7.999   0.963   5.477
 3442WAT     H110568   7.908   0.995   5.452
 3442WAT     H210569   8.060   1.042   5.484
 3443WAT      O10570   8.433   4.644   6.340
 3443WAT     H110571   8.486   4.729   6.343
 3443WAT     H210572   8.466   4.581   6.411
 3444WAT      O10573   5.776   3.724   2.689
 3444WAT     H110574   5.684   3.713   2.651
 3444WAT     H210575   5.778   3.803   2.750
 3445WAT      O10576   6.940   3.622   3.351
 3445WAT     H110577   6.972   3.535   3.312
 3445WAT     H210578   7.016   3.667   3.398
 3446WAT      O10579   0.346   8.047   4.799
 3446WAT     H110580   0.436   8.072   4.765
 3446WAT     H210581   0.324   7.953   4.772
 3447WAT      O10582   7.708   2.979   5.181
 3447WAT     H110583   7.806   2.996   5.166
 3447WAT     H210584   7.655   3.035   5.117
 3448WAT      O10585   5.963   8.495   6.020
 3448WAT     H110586   6.024   8.430   6.066
 3448WAT     H210587   5.995   8.588   6.039
 3449WAT      O10588   6.045   6.833   5.037
 3449WAT     H110589   6.033   6.890   5.118
 3449WAT     H210590   6.137   6.845   5.000
 3450WAT      O10591   7.841   4.069   9.252
 3450WAT     H110592   7.798   3.997   9.199
 3450WAT     H210593   7.806   4.158   9.223
 3451WAT      O10594   8.063   9.816   1.841
 3451WAT     H110595   8.160   9.833   1.859
 3451WAT     H210596   8.046   9.718   1.839
 3452WAT      O10597   7.197   0.443   8.527
 3452WAT     H110598   7.280   0.388   8.538
 3452WAT     H210599   7.171   0.444   8.430
 3453WAT      O10600   4.548   9.001   7.679
 3453WAT     H110601   4.494   9.073   7.723
 3453WAT     H210602   4.645   9.027   7.678
 3454WAT      O10603   5.288   2.333   0.790
 3454WAT     H110604   5.319   2.266   0.857
 3454WAT     H210605   5.219   2.392   0.831
 3455WAT      O10606   6.161   8.875   6.968
 3455WAT     H110607   6.066   8.857   6.946
 3455WAT     H210608   6.214   8.791   6.961
 3456WAT      O10609   4.800   3.984   1.224
 3456WAT     H110610   4.712   3.937   1.215
 3456WAT     H210611   4.856   3.965   1.143
 3457WAT      O10612   6.303   2.257   3.010
 3457WAT     H110613   6.359   2.256   2.927
 3457WAT     H210614   6.346   2.201   3.081
 3458WAT      O10615   5.611   5.064   5.370
 3458WAT     H110616   5.683   4.994   5.367
 3458WAT     H210617   5.606   5.110   5.281
 3459WAT      O10618   7.846   2.824   1.377
 3459WAT     H110619   7.784   2.746   1.378
 3459WAT     H210620   7.891   2.830   1.288
 3460WAT      O10621   8.727   7.206   7.632
 3460WAT     H110622   8.745   7.304   7.628
 3460WAT     H210623   8.630   7.189   7.613
 3461WAT      O10624   5.568   1.680   7.997
 3461WAT     H110625   5.650   1.704   8.048
 3461WAT     H210626   5.591   1.674   7.899
 3462WAT      O10627   1.605   8.279   0.987
 3462WAT     H110628   1.565   8.275   0.895
 3462WAT     H210629   1.570   8.359   1.036
 3463WAT      O10630   5.044   6.173   9.029
 3463WAT     H110631   5.123   6.221   8.992
 3463WAT     H210632   4.995   6.233   9.092
 3464WAT      O10633   4.979   5.606   1.379
 3464WAT     H110634   4.919   5.670   1.330
 3464WAT     H210635   5.067   5.600   1.331
 3465WAT      O10636   0.734   3.330   9.151
 3465WAT     H110637   0.710   3.267   9.225
 3465WAT     H210638   0.774   3.278   9.076
 3466WAT      O10639   5.203   2.102   2.714
 3466WAT     H110640   5.272   2.037   2.684
 3466WAT     H210641   5.246   2.173   2.769
 3467WAT      O10642   3.510   9.825   2.175
 3467WAT     H110643   3.456   9.761   2.119
 3467WAT     H210644   3.449   9.888   2.222
 3468WAT      O10645   7.446   4.194   0.103
 3468WAT     H110646   7.534   4.181   0.059
 3468WAT     H210647   7.427   4.292   0.113
 3469WAT      O10648   8.828   2.769   8.278
 3469WAT     H110649   8.735   2.775   8.241
 3469WAT     H210650   8.842   2.842   8.346
 3470WAT      O10651   3.378   5.205   4.530
 3470WAT     H110652   3.407   5.110   4.543
 3470WAT     H210653   3.377   5.226   4.432
 3471WAT      O10654   3.068   6.303   5.260
 3471WAT     H110655   3.083   6.209   5.292
 3471WAT     H210656   3.150   6.357   5.278
 3472WAT      O10657   4.271   9.602   1.331
 3472WAT     H110658   4.238   9.532   1.268
 3472WAT     H210659   4.256   9.693   1.291
 3473WAT      O10660   6.979   4.911   2.165
 3473WAT     H110661   6.947   4.932   2.072
 3473WAT     H210662   6.984   4.996   2.218
 3474WAT      O10663   3.097   7.655   2.768
 3474WAT     H110664   3.189   7.617   2.764
 3474WAT     H210665   3.102   7.755   2.758
 3475WAT      O10666   7.075   4.705   1.794
 3475WAT     H110667   7.095   4.780   1.857
 3475WAT     H210668   6.995   4.654   1.827
 3476WAT      O10669   1.819   8.524   3.982
 3476WAT     H110670   1.918   8.528   3.980
 3476WAT     H210671   1.783   8.534   3.889
 3477WAT      O10672   5.540   3.503   8.692
 3477WAT     H110673   5.577   3.490   8.600
 3477WAT     H210674   5.484   3.424   8.717
 3478WAT      O10675   5.580   4.705   1.348
 3478WAT     H110676   5.487   4.694   1.313
 3478WAT     H210677   5.577   4.731   1.445
 3479WAT      O10678   7.543   7.875   8.442
 3479WAT     H110679   7.495   7.947   8.393
 3479WAT     H210680   7.524   7.883   8.540
 3480WAT      O10681   3.821   4.785   8.954
 3480WAT     H110682   3.724   4.805   8.970
 3480WAT     H210683   3.851   4.711   9.014
 3481WAT      O10684   4.979   6.893   0.319
 3481WAT     H110685   4.929   6.863   0.237
 3481WAT     H210686   5.076   6.901   0.297
 3482WAT      O10687   9.437   2.514   5.777
 3482WAT     H110688   9.361   2.554   5.829
 3482WAT     H210689   9.523   2.558   5.804
 3483WAT      O10690   1.711   5.862   2.100
 3483WAT     H110691   1.615   5.839   2.086
 3483WAT     H210692   1.757   5.866   2.012
 3484WAT      O10693   9.440   2.748   3.958
 3484WAT     H110694   9.348   2.763   3.993
 3484WAT     H210695   9.506   2.751   4.033
 3485WAT      O10696   2.125   7.360   5.227
 3485WAT     H110697   2.062   7.349   5.151
 3485WAT     H210698   2.144   7.457   5.242
 3486WAT      O10699   8.159   4.783   6.780
 3486WAT     H110700   8.209   4.808   6.697
 3486WAT     H210701   8.153   4.684   6.787
 3487WAT      O10702   5.194   7.570   2.269
 3487WAT     H110703   5.276   7.532   2.311
 3487WAT     H210704   5.215   7.600   2.176
 3488WAT      O10705   9.246   1.361   0.272
 3488WAT     H110706   9.229   1.276   0.322
 3488WAT     H210707   9.162   1.391   0.227
 3489WAT      O10708   8.425   9.578   6.334
 3489WAT     H110709   8.388   9.623   6.253
 3489WAT     H210710   8.449   9.647   6.402
 3490WAT      O10711   2.282   3.231   2.321
 3490WAT     H110712   2.288   3.156   2.255
 3490WAT     H210713   2.374   3.259   2.348
 3491WAT      O10714   7.491   7.992   7.093
 3491WAT     H110715   7.581   8.002   7.135
 3491WAT     H210716   7.437   7.926   7.146
 3492WAT      O10717   4.802   2.740   2.590
 3492WAT     H110718   4.857   2.791   2.524
 3492WAT     H210719   4.862   2.700   2.659
 3493WAT      O10720   2.024   1.078   6.916
 3493WAT     H110721   2.070   0.996   6.949
 3493WAT     H210722   2.028   1.081   6.817
 3494WAT      O10723   8.400   0.790   9.768
 3494WAT     H110724   8.352   0.742   9.694
 3494WAT     H210725   8.489   0.821   9.736
 3495WAT      O10726   7.329   3.226   9.610
 3495WAT     H110727   7.298   3.288   9.683
 3495WAT     H210728   7.340   3.278   9.525
 3496WAT      O10729   1.681   5.857   7.784
 3496WAT     H110730   1.779   5.853   7.805
 3496WAT     H210731   1.645   5.764   7.779
 3497WAT      O10732   7.415   1.545   0.628
 3497WAT     H110733   7.346   1.519   0.560
 3497WAT     H210734   7.455   1.462   0.668
 3498WAT      O10735   3.248   1.104   5.831
 3498WAT     H110736   3.279   1.049   5.908
 3498WAT     H210737   3.256   1.201   5.853
 3499WAT      O10738   1.391   7.642   4.393
 3499WAT     H110739   1.407   7.712   4.323
 3499WAT     H210740   1.478   7.616   4.434
 3500WAT      O10741   7.826   5.621   9.127
 3500WAT     H110742   7.871   5.579   9.048
 3500WAT     H210743   7.886   5.615   9.207
 3501WAT      O10744   6.590   3.835   3.331
 3501WAT     H110745   6.645   3.854   3.250
 3501WAT     H210746   6.600   3.910   3.396
 3502WAT      O10747   2.086   3.957   2.478
 3502WAT     H110748   2.118   3.891   2.410
 3502WAT     H210749   2.054   3.908   2.559
 3503WAT      O10750   5.419   2.031   7.971
 3503WAT     H110751   5.328   2.063   7.944
 3503WAT     H210752   5.420   2.014   8.069
 3504WAT      O10753   2.311   9.791   7.224
 3504WAT     H110754   2.378   9.837   7.166
 3504WAT     H210755   2.246   9.858   7.260
 3505WAT      O10756   2.229   2.888   9.756
 3505WAT     H110757   2.159   2.858   9.691
 3505WAT     H210758   2.319   2.856   9.724
 3506WAT      O10759   5.762   5.517   7.970
 3506WAT     H110760   5.708   5.438   7.999
 3506WAT     H210761   5.851   5.516   8.016
 3507WAT      O10762   4.573   0.703   1.561
 3507WAT     H110763   4.546   0.727   1.654
 3507WAT     H210764   4.665   0.666   1.561
 3508WAT      O10765   8.417   6.774   5.240
 3508WAT     H110766   8.443   6.684   5.205
 3508WAT     H210767   8.472   6.795   5.321
 3509WAT      O10768   0.786   0.226   3.153
 3509WAT     H110769   0.830   0.308   3.189
 3509WAT     H210770   0.748   0.172   3.228
 3510WAT      O10771   3.838   0.140   8.511
 3510WAT     H110772   3.882   0.101   8.592
 3510WAT     H210773   3.757   0.086   8.487
 3511WAT      O10774   9.280   0.932   7.335
 3511WAT     H110775   9.326   0.980   7.261
 3511WAT     H210776   9.183   0.919   7.312
 3512WAT      O10777   9.812   9.251   0.581
 3512WAT     H110778   9.749   9.209   0.515
 3512WAT     H210779   9.781   9.344   0.601
 3513WAT      O10780   8.561   0.635   8.933
 3513WAT     H110781   8.463   0.655   8.935
 3513WAT     H210782   8.612   0.718   8.912
 3514WAT      O10783   9.099   6.045   0.701
 3514WAT     H110784   9.066   5.975   0.639
 3514WAT     H210785   9.198   6.036   0.713
 3515WAT      O10786   1.354   6.288   4.118
 3515WAT     H110787   1.281   6.302   4.051
 3515WAT     H210788   1.383   6.192   4.117
 3516WAT      O10789   6.762   7.301   5.063
 3516WAT     H110790   6.698   7.280   4.989
 3516WAT     H210791   6.803   7.216   5.096
 3517WAT      O10792   5.300   5.229   7.711
 3517WAT     H110793   5.299   5.285   7.628
 3517WAT     H210794   5.343   5.141   7.693
 3518WAT      O10795   3.847   7.406   3.745
 3518WAT     H110796   3.753   7.387   3.773
 3518WAT     H210797   3.876   7.339   3.677
 3519WAT      O10798   1.787   2.791   0.250
 3519WAT     H110799   1.717   2.862   0.260
 3519WAT     H210800   1.791   2.762   0.155
 3520WAT      O10801   5.740   0.443   8.484
 3520WAT     H110802   5.679   0.513   8.447
 3520WAT     H210803   5.686   0.373   8.532
 3521WAT      O10804   9.214   4.331   8.917
 3521WAT     H110805   9.233   4.381   8.832
 3521WAT     H210806   9.215   4.395   8.994
 3522WAT      O10807   3.207   3.441   0.102
 3522WAT     H110808   3.179   3.405   0.192
 3522WAT     H210809   3.169   3.383   0.030
 3523WAT      O10810   5.767   7.893   6.314
 3523WAT     H110811   5.755   7.812   6.371
 3523WAT     H210812   5.705   7.889   6.236
 3524WAT      O10813   3.925   2.495   5.462
 3524WAT     H110814   3.964   2.424   5.404
 3524WAT     H210815   3.997   2.538   5.516
 3525WAT      O10816   4.943   3.062   6.685
 3525WAT     H110817   4.922   3.071   6.783
 3525WAT     H210818   4.945   3.152   6.643
 3526WAT      O10819   5.699   0.526   5.304
 3526WAT     H110820   5.693   0.618   5.266
 3526WAT     H210821   5.738   0.530   5.396
 3527WAT      O10822   5.024   5.839   2.057
 3527WAT     H110823   5.080   5.784   1.995
 3527WAT     H210824   5.029   5.935   2.028
 3528WAT      O10825   6.975   0.621   3.145
 3528WAT     H110826   6.943   0.703   3.099
 3528WAT     H210827   6.900   0.555   3.152
 3529WAT      O10828   2.376   8.644   5.942
 3529WAT     H110829   2.287   8.607   5.915
 3529WAT     H210830   2.371   8.744   5.944
 3530WAT      O10831   4.550   0.766   0.023
 3530WAT     H110832   4.480   0.832  -0.006
 3530WAT     H210833   4.634   0.782  -0.029
 3531WAT      O10834   1.440   5.127   7.715
 3531WAT     H110835   1.468   5.031   7.722
 3531WAT     H210836   1.458   5.174   7.801
 3532WAT      O10837   8.305   9.257   4.649
 3532WAT     H110838   8.277   9.353   4.653
 3532WAT     H210839   8.236   9.200   4.694
 3533WAT      O10840   1.552   5.315   9.774
 3533WAT     H110841   1.577   5.256   9.699
 3533WAT     H210842   1.634   5.358   9.812
 3534WAT      O10843   0.651   1.433   9.861
 3534WAT     H110844   0.699   1.419   9.948
 3534WAT     H210845   0.649   1.348   9.810
 3535WAT      O10846   5.227   1.264   8.105
 3535WAT     H110847   5.152   1.329   8.102
 3535WAT     H210848   5.204   1.188   8.165
 3536WAT      O10849   6.954   3.936   1.958
 3536WAT     H110850   6.994   4.025   1.939
 3536WAT     H210851   6.867   3.949   2.007
 3537WAT      O10852   7.925   6.708   1.535
 3537WAT     H110853   7.875   6.789   1.568
 3537WAT     H210854   7.938   6.644   1.611
 3538WAT      O10855   9.697   2.007   0.864
 3538WAT     H110856   9.650   2.065   0.931
 3538WAT     H210857   9.787   2.046   0.843
 3539WAT      O10858   1.059   8.083   8.406
 3539WAT     H110859   0.977   8.124   8.445
 3539WAT     H210860   1.062   8.101   8.308
 3540WAT      O10861   2.284   6.790   7.190
 3540WAT     H110862   2.218   6.851   7.235
 3540WAT     H210863   2.277   6.699   7.230
 3541WAT      O10864   8.306   2.585   1.743
 3541WAT     H110865   8.255   2.505   1.710
 3541WAT     H210866   8.256   2.668   1.721
 3542WAT      O10867   2.884   2.308   7.690
 3542WAT     H110868   2.940   2.387   7.715
 3542WAT     H210869   2.868   2.251   7.771
 3543WAT      O10870   7.138   0.874   3.315
 3543WAT     H110871   7.233   0.876   3.284
 3543WAT     H210872   7.098   0.966   3.305
 3544WAT      O10873   6.284   8.713   5.851
 3544WAT     H110874   6.319   8.721   5.758
 3544WAT     H210875   6.326   8.634   5.896
 3545WAT      O10876   8.564   3.683   6.214
 3545WAT     H110877   8.475   3.704   6.254
 3545WAT     H210878   8.556   3.683   6.114
 3546WAT      O10879   4.321   3.250   3.761
 3546WAT     H110880   4.252   3.300   3.708
 3546WAT     H210881   4.331   3.292   3.851
 3547WAT      O10882   2.404   8.210   9.581
 3547WAT     H110883   2.486   8.232   9.528
 3547WAT     H210884   2.356   8.135   9.536
 3548WAT      O10885   0.285   8.098   6.400
 3548WAT     H110886   0.277   8.070   6.304
 3548WAT     H210887   0.200   8.142   6.429
 3549WAT      O10888   9.718   5.578   9.320
 3549WAT     H110889   9.787   5.506   9.308
 3549WAT     H210890   9.696   5.586   9.418
 3550WAT      O10891   1.773   8.949   3.164
 3550WAT     H110892   1.690   8.966   3.111
 3550WAT     H210893   1.853   8.952   3.103
 3551WAT      O10894   2.294   1.073   4.559
 3551WAT     H110895   2.239   1.153   4.582
 3551WAT     H210896   2.391   1.095   4.569
 3552WAT      O10897   8.126   7.050   4.866
 3552WAT     H110898   8.153   7.146   4.866
 3552WAT     H210899   8.199   6.994   4.906
 3553WAT      O10900   4.353   0.690   3.347
 3553WAT     H110901   4.267   0.650   3.379
 3553WAT     H210902   4.430   0.634   3.378
 3554WAT      O10903   4.338   4.173   2.259
 3554WAT     H110904   4.401   4.096   2.248
 3554WAT     H210905   4.304   4.201   2.170
 3555WAT      O10906   8.749   7.449   3.055
 3555WAT     H110907   8.820   7.436   2.986
 3555WAT     H210908   8.667   7.400   3.028
 3556WAT      O10909   7.554   5.376   6.010
 3556WAT     H110910   7.639   5.360   6.061
 3556WAT     H210911   7.531   5.473   6.014
 3557WAT      O10912   3.095   3.207   5.260
 3557WAT     H110913   3.125   3.303   5.262
 3557WAT     H210914   3.088   3.173   5.353
 3558WAT      O10915   2.382   4.827   8.608
 3558WAT     H110916   2.408   4.830   8.705
 3558WAT     H210917   2.297   4.775   8.598
 3559WAT      O10918   8.601   1.210   9.790
 3559WAT     H110919   8.621   1.308   9.783
 3559WAT     H210920   8.520   1.189   9.736
 3560WAT      O10921   3.306   5.443   7.090
 3560WAT     H110922   3.270   5.411   7.177
 3560WAT     H210923   3.387   5.389   7.066
 3561WAT      O10924   1.951   7.468   4.389
 3561WAT     H110925   1.864   7.420   4.401
 3561WAT     H210926   1.986   7.450   4.297
 3562WAT      O10927   6.043   3.904   8.405
 3562WAT     H110928   5.955   3.858   8.416
 3562WAT     H210929   6.034   4.001   8.426
 3563WAT      O10930   0.841   6.942   3.040
 3563WAT     H110931   0.763   6.899   2.994
 3563WAT     H210932   0.926   6.902   3.007
 3564WAT      O10933   9.249   0.618   1.227
 3564WAT     H110934   9.266   0.601   1.130
 3564WAT     H210935   9.298   0.551   1.282
 3565WAT      O10936   1.522   9.613   4.615
 3565WAT     H110937   1.603   9.599   4.672
 3565WAT     H210938   1.547   9.667   4.534
 3566WAT      O10939   0.054   0.205   6.619
 3566WAT     H110940   0.068   0.161   6.707
 3566WAT     H210941   0.122   0.277   6.606
 3567WAT      O10942   9.881   0.204   7.262
 3567WAT     H110943   9.874   0.135   7.334
 3567WAT     H210944   9.947   0.275   7.290
 3568WAT      O10945   3.829   8.241   1.835
 3568WAT     H110946   3.730   8.250   1.845
 3568WAT     H210947   3.874   8.322   1.873
 3569WAT      O10948   3.595   5.134   1.771
 3569WAT     H110949   3.529   5.090   1.832
 3569WAT     H210950   3.546   5.191   1.705
 3570WAT      O10951   3.274   2.333   3.363
 3570WAT     H110952   3.201   2.268   3.384
 3570WAT     H210953   3.341   2.332   3.437
 3571WAT      O10954   2.342   7.299   5.724
 3571WAT     H110955   2.357   7.398   5.732
 3571WAT     H210956   2.245   7.279   5.735
 3572WAT      O10957   4.251   1.661   9.160
 3572WAT     H110958   4.251   1.576   9.214
 3572WAT     H210959   4.174   1.718   9.189
 3573WAT      O10960   2.490   8.952   2.590
 3573WAT     H110961   2.401   8.948   2.543
 3573WAT     H210962   2.533   9.041   2.570
 3574WAT      O10963   2.764   7.004   9.494
 3574WAT     H110964   2.859   7.025   9.472
 3574WAT     H210965   2.703   7.064   9.442
 3575WAT      O10966   8.842   3.318   2.447
 3575WAT     H110967   8.926   3.330   2.394
 3575WAT     H210968   8.834   3.223   2.477
 3576WAT      O10969   6.515   5.848   6.601
 3576WAT     H110970   6.537   5.765   6.652
 3576WAT     H210971   6.473   5.914   6.663
 3577WAT      O10972   4.125   6.711   5.382
 3577WAT     H110973   4.186   6.760   5.445
 3577WAT     H210974   4.168   6.706   5.292
 3578WAT      O10975   5.341   6.938   5.882
 3578WAT     H110976   5.295   6.956   5.795
 3578WAT     H210977   5.333   6.841   5.904
 3579WAT      O10978   3.610   5.177   5.563
 3579WAT     H110979   3.660   5.144   5.643
 3579WAT     H210980   3.594   5.276   5.572
 3580WAT      O10981   7.292   2.761   0.300
 3580WAT     H110982   7.214   2.821   0.281
 3580WAT     H210983   7.377   2.814   0.293
 3581WAT      O10984   1.604   2.491   8.460
 3581WAT     H110985   1.657   2.565   8.501
 3581WAT     H210986   1.512   2.491   8.500
 3582WAT      O10987   5.333   1.690   5.443
 3582WAT     H110988   5.363   1.703   5.537
 3582WAT     H210989   5.260   1.621   5.441
 3583WAT      O10990   0.887   3.510   5.281
 3583WAT     H110991   0.810   3.557   5.325
 3583WAT     H210992   0.922   3.565   5.205
 3584WAT      O10993   3.371   0.634   2.618
 3584WAT     H110994   3.304   0.670   2.553
 3584WAT     H210995   3.325   0.576   2.685
 3585WAT      O10996   9.611   0.509   0.274
 3585WAT     H110997   9.620   0.542   0.368
 3585WAT     H210998   9.702   0.501   0.232
 3586WAT      O10999   7.078   4.018   8.104
 3586WAT     H111000   7.158   3.961   8.116
 3586WAT     H211001   7.002   3.963   8.068
 3587WAT      O11002   1.981   1.707   1.242
 3587WAT     H111003   2.014   1.782   1.299
 3587WAT     H211004   1.988   1.621   1.292
 3588WAT      O11005   0.832   9.650   5.359
 3588WAT     H111006   0.860   9.647   5.262
 3588WAT     H211007   0.768   9.575   5.377
 3589WAT      O11008   0.167   4.741   0.892
 3589WAT     H111009   0.136   4.796   0.969
 3589WAT     H211010   0.250   4.692   0.917
 3590WAT      O11011   0.882   8.922   7.894
 3590WAT     H111012   0.974   8.885   7.904
 3590WAT     H211013   0.883   9.020   7.915
 3591WAT      O11014   4.748   6.947   0.927
 3591WAT     H111015   4.829   6.903   0.965
 3591WAT     H211016   4.773   7.035   0.886
 3592WAT      O11017   5.350   6.405   5.058
 3592WAT     H111018   5.316   6.351   5.135
 3592WAT     H211019   5.273   6.443   5.007
 3593WAT      O11020   1.083   8.089   6.800
 3593WAT     H111021   1.123   8.179   6.784
 3593WAT     H211022   1.016   8.095   6.874
 3594WAT      O11023   1.884   5.527   2.450
 3594WAT     H111024   1.844   5.437   2.466
 3594WAT     H211025   1.846   5.566   2.366
 3595WAT      O11026   9.865   4.773   8.671
 3595WAT     H111027   9.800   4.824   8.727
 3595WAT     H211028   9.841   4.785   8.574
 3596WAT      O11029   3.278   5.636   3.395
 3596WAT     H111030   3.349   5.585   3.443
 3596WAT     H211031   3.236   5.702   3.458
 3597WAT      O11032   7.816   9.538   8.622
 3597WAT     H111033   7.865   9.619   8.652
 3597WAT     H211034   7.758   9.561   8.544
 3598WAT      O11035   8.378   3.652   2.015
 3598WAT     H111036   8.358   3.750   2.027
 3598WAT     H211037   8.443   3.623   2.085
 3599WAT      O11038   2.730   0.633   6.341
 3599WAT     H111039   2.645   0.643   6.289
 3599WAT     H211040   2.726   0.688   6.424
 3600WAT      O11041   7.008   6.399   5.704
 3600WAT     H111042   6.948   6.475   5.680
 3600WAT     H211043   7.000   6.380   5.802
 3601WAT      O11044   3.750   9.841   8.044
 3601WAT     H111045   3.726   9.793   8.128
 3601WAT     H211046   3.778   9.775   7.975
 3602WAT      O11047   5.165   1.416   3.438
 3602WAT     H111048   5.166   1.352   3.516
 3602WAT     H211049   5.094   1.388   3.374
 3603WAT      O11050   6.958   6.633   7.299
 3603WAT     H111051   6.991   6.702   7.363
 3603WAT     H211052   7.025   6.560   7.292
 3604WAT      O11053   7.418   5.150   1.129
 3604WAT     H111054   7.383   5.190   1.214
 3604WAT     H211055   7.363   5.182   1.052
 3605WAT      O11056   5.248   6.221   6.597
 3605WAT     H111057   5.235   6.318   6.616
 3605WAT     H211058   5.177   6.168   6.643
 3606WAT      O11059   3.681   4.568   5.974
 3606WAT     H111060   3.642   4.517   5.897
 3606WAT     H211061   3.778   4.543   5.985
 3607WAT      O11062   6.695   5.209   8.099
 3607WAT     H111063   6.635   5.134   8.125
 3607WAT     H211064   6.688   5.226   8.001
 3608WAT      O11065   2.205   8.363   1.027
 3608WAT     H111066   2.264   8.406   0.958
 3608WAT     H211067   2.148   8.433   1.069
 3609WAT      O11068   1.618   1.328   9.808
 3609WAT     H111069   1.626   1.267   9.730
 3609WAT     H211070   1.523   1.327   9.841
 3610WAT      O11071   0.761   7.207   5.749
 3610WAT     H111072   0.779   7.194   5.651
 3610WAT     H211073   0.819   7.281   5.783
 3611WAT      O11074   2.188   4.911   6.685
 3611WAT     H111075   2.259   4.978   6.661
 3611WAT     H211076   2.191   4.835   6.620
 3612WAT      O11077   4.360   2.606   9.884
 3612WAT     H111078   4.359   2.587   9.786
 3612WAT     H211079   4.300   2.685   9.902
 3613WAT      O11080   1.402   8.637   1.901
 3613WAT     H111081   1.324   8.699   1.917
 3613WAT     H211082   1.395   8.559   1.963
 3614WAT      O11083   4.438   6.224   0.583
 3614WAT     H111084   4.403   6.215   0.489
 3614WAT     H211085   4.361   6.238   0.646
 3615WAT      O11086   2.025   2.433   3.232
 3615WAT     H111087   2.029   2.336   3.210
 3615WAT     H211088   1.988   2.484   3.154
 3616WAT      O11089   4.893   0.815   8.773
 3616WAT     H111090   4.987   0.796   8.744
 3616WAT     H211091   4.835   0.824   8.693
 3617WAT      O11092   9.076   3.386   3.218
 3617WAT     H111093   9.004   3.338   3.167
 3617WAT     H211094   9.164   3.345   3.196
 3618WAT      O11095   7.133   9.502   2.825
 3618WAT     H111096   7.052   9.561   2.817
 3618WAT     H211097   7.151   9.483   2.922
 3619WAT      O11098   7.798   8.683   1.533
 3619WAT     H111099   7.832   8.639   1.450
 3619WAT     H211100   7.875   8.705   1.593
 3620WAT      O11101   6.419   0.746   4.440
 3620WAT     H111102   6.391   0.650   4.448
 3620WAT     H211103   6.400   0.778   4.348
 3621WAT      O11104   3.421   1.686   4.588
 3621WAT     H111105   3.366   1.614   4.630
 3621WAT     H211106   3.386   1.705   4.496
 3622WAT      O11107   9.140   4.852   5.959
 3622WAT     H111108   9.105   4.835   5.866
 3622WAT     H211109   9.180   4.944   5.963
 3623WAT      O11110   5.072   4.391   7.615
 3623WAT     H111111   4.982   4.433   7.615
 3623WAT     H211112   5.088   4.347   7.704
 3624WAT      O11113   8.189   9.513   2.798
 3624WAT     H111114   8.136   9.454   2.737
 3624WAT     H211115   8.191   9.606   2.762
 3625WAT      O11116   9.186   2.186   5.882
 3625WAT     H111117   9.161   2.263   5.824
 3625WAT     H211118   9.275   2.203   5.924
 3626WAT      O11119   5.301   4.489   0.956
 3626WAT     H111120   5.204   4.472   0.939
 3626WAT     H211121   5.354   4.406   0.936
 3627WAT      O11122   0.209   9.661   5.043
 3627WAT     H111123   0.168   9.703   4.962
 3627WAT     H211124   0.181   9.565   5.048
 3628WAT      O11125   8.941   9.355   1.148
 3628WAT     H111126   8.993   9.275   1.178
 3628WAT     H211127   8.999   9.436   1.153
 3629WAT      O11128   6.340   4.013   1.394
 3629WAT     H111129   6.328   3.930   1.341
 3629WAT     H211130   6.431   4.051   1.379
 3630WAT      O11131   6.297   0.973   0.961
 3630WAT     H111132   6.323   1.037   0.888
 3630WAT     H211133   6.378   0.946   1.012
 3631WAT      O11134   7.233   3.605   8.033
 3631WAT     H111135   7.241   3.692   8.082
 3631WAT     H211136   7.291   3.536   8.077
 3632WAT      O11137   7.901   7.189   5.786
 3632WAT     H111138   7.826   7.126   5.761
 3632WAT     H211139   7.865   7.262   5.844
 3633WAT      O11140   7.295   0.621   1.802
 3633WAT     H111141   7.312   0.524   1.786
 3633WAT     H211142   7.343   0.651   1.885
 3634WAT      O11143   9.454   1.674   1.252
 3634WAT     H111144   9.505   1.647   1.170
 3634WAT     H211145   9.358   1.649   1.241
 3635WAT      O11146   2.204   2.877   6.537
 3635WAT     H111147   2.217   2.972   6.566
 3635WAT     H211148   2.156   2.827   6.609
 3636WAT      O11149   8.506   1.798   8.861
 3636WAT     H111150   8.455   1.821   8.778
 3636WAT     H211151   8.568   1.874   8.883
 3637WAT      O11152   6.297   9.577   1.851
 3637WAT     H111153   6.391   9.561   1.883
 3637WAT     H211154   6.245   9.622   1.923
 3638WAT      O11155   1.620   1.890   1.323
 3638WAT     H111156   1.664   1.843   1.400
 3638WAT     H211157   1.659   1.857   1.237
 3639WAT      O11158   1.743   6.306   7.498
 3639WAT     H111159   1.708   6.323   7.405
 3639WAT     H211160   1.691   6.361   7.563
 3640WAT      O11161   8.617   1.493   9.873
 3640WAT     H111162   8.628   1.589   9.899
 3640WAT     H211163   8.679   1.437   9.928
 3641WAT      O11164   7.072   8.987   8.197
 3641WAT     H111165   7.101   9.012   8.104
 3641WAT     H211166   6.982   9.025   8.215
 3642WAT      O11167   9.742   3.519   3.317
 3642WAT     H111168   9.777   3.557   3.232
 3642WAT     H211169   9.702   3.429   3.300
 3643WAT      O11170   4.769   8.163   1.921
 3643WAT     H111171   4.736   8.208   2.004
 3643WAT     H211172   4.869   8.158   1.924
 3644WAT      O11173   0.877   2.583   0.506
 3644WAT     H111174   0.780   2.563   0.489
 3644WAT     H211175   0.887   2.625   0.596
 3645WAT      O11176   3.118   6.393   0.930
 3645WAT     H111177   3.176   6.315   0.909
 3645WAT     H211178   3.063   6.374   1.012
 3646WAT      O11179   6.121   6.704   8.329
 3646WAT     H111180   6.136   6.674   8.234
 3646WAT     H211181   6.109   6.624   8.387
 3647WAT      O11182   9.083   6.672   9.048
 3647WAT     H111183   9.084   6.772   9.047
 3647WAT     H211184   9.041   6.639   8.963
 3648WAT      O11185   9.131   8.533   8.890
 3648WAT     H111186   9.178   8.479   8.960
 3648WAT     H211187   9.195   8.598   8.849
 3649WAT      O11188   3.346   9.278   7.880
 3649WAT     H111189   3.273   9.284   7.949
 3649WAT     H211190   3.306   9.283   7.789
 3650WAT      O11191   1.525   1.511   1.518
 3650WAT     H111192   1.543   1.503   1.420
 3650WAT     H211193   1.604   1.551   1.563
 3651WAT      O11194   3.682   3.004   8.806
 3651WAT     H111195   3.748   3.071   8.838
 3651WAT     H211196   3.591   3.028   8.839
 3652WAT      O11197   3.445   6.778   6.019
 3652WAT     H111198   3.405   6.790   5.929
 3652WAT     H211199   3.444   6.681   6.043
 3653WAT      O11200   4.598   3.920   3.944
 3653WAT     H111201   4.521   3.982   3.954
 3653WAT     H211202   4.611   3.870   4.030
 3654WAT      O11203   4.419   6.420   1.176
 3654WAT     H111204   4.454   6.430   1.083
 3654WAT     H211205   4.392   6.509   1.212
 3655WAT      O11206   8.621   2.092   7.729
 3655WAT     H111207   8.538   2.144   7.712
 3655WAT     H211208   8.619   2.055   7.822
 3656WAT      O11209   5.062   7.055   3.364
 3656WAT     H111210   5.118   7.129   3.326
 3656WAT     H211211   4.984   7.038   3.304
 3657WAT      O11212   1.114   7.103   8.137
 3657WAT     H111213   1.200   7.153   8.128
 3657WAT     H211214   1.043   7.164   8.172
 3658WAT      O11215   4.362   0.497   0.886
 3658WAT     H111216   4.340   0.464   0.794
 3658WAT     H211217   4.365   0.597   0.886
 3659WAT      O11218   0.140   2.661   7.275
 3659WAT     H111219   0.076   2.617   7.213
 3659WAT     H211220   0.106   2.751   7.300
 3660WAT      O11221   7.079   2.690   2.980
 3660WAT     H111222   7.137   2.732   3.049
 3660WAT     H211223   7.002   2.644   3.024
 3661WAT      O11224   6.741   1.744   1.511
 3661WAT     H111225   6.821   1.699   1.472
 3661WAT     H211226   6.696   1.682   1.575
 3662WAT      O11227   3.850   2.792   9.743
 3662WAT     H111228   3.913   2.725   9.783
 3662WAT     H211229   3.860   2.880   9.790
 3663WAT      O11230   0.296   3.639   2.010
 3663WAT     H111231   0.252   3.690   2.083
 3663WAT     H211232   0.257   3.547   2.005
 3664WAT      O11233   3.591   5.599   9.002
 3664WAT     H111234   3.546   5.518   9.039
 3664WAT     H211235   3.604   5.667   9.074
 3665WAT      O11236   2.395   3.779   4.426
 3665WAT     H111237   2.408   3.875   4.403
 3665WAT     H211238   2.360   3.771   4.519
 3666WAT      O11239   0.920   7.140   8.974
 3666WAT     H111240   0.849   7.172   8.911
 3666WAT     H211241   0.942   7.044   8.953
 3667WAT      O11242   8.225   8.583   9.329
 3667WAT     H111243   8.236   8.681   9.347
 3667WAT     H211244   8.313   8.544   9.302
 3668WAT      O11245   6.566   7.343   9.769
 3668WAT     H111246   6.531   7.322   9.860
 3668WAT     H211247   6.665   7.334   9.768
 3669WAT      O11248   7.448   1.385   9.838
 3669WAT     H111249   7.513   1.310   9.848
 3669WAT     H211250   7.493   1.472   9.857
 3670WAT      O11251   3.156   1.812   9.262
 3670WAT     H111252   3.198   1.896   9.229
 3670WAT     H211253   3.057   1.820   9.260
 3671WAT      O11254   0.555   7.722   0.348
 3671WAT     H111255   0.612   7.777   0.408
 3671WAT     H211256   0.612   7.678   0.279
 3672WAT      O11257   3.708   1.235   6.603
 3672WAT     H111258   3.697   1.309   6.670
 3672WAT     H211259   3.692   1.147   6.647
 3673WAT      O11260   3.238   3.295   7.567
 3673WAT     H111261   3.280   3.333   7.484
 3673WAT     H211262   3.169   3.227   7.540
 3674WAT      O11263   9.733   8.200   7.286
 3674WAT     H111264   9.726   8.101   7.280
 3674WAT     H211265   9.727   8.240   7.195
 3675WAT      O11266   0.963   6.493   8.372
 3675WAT     H111267   0.869   6.526   8.379
 3675WAT     H211268   1.002   6.520   8.284
 3676WAT      O11269   3.391   4.968   9.564
 3676WAT     H111270   3.378   4.996   9.660
 3676WAT     H211271   3.488   4.973   9.541
 3677WAT      O11272   0.495   4.750   1.463
 3677WAT     H111273   0.539   4.837   1.439
 3677WAT     H211274   0.545   4.675   1.421
 3678WAT      O11275   7.596   5.613   9.793
 3678WAT     H111276   7.612   5.698   9.742
 3678WAT     H211277   7.551   5.635   9.880
 3679WAT      O11278   8.939   6.487   8.451
 3679WAT     H111279   9.026   6.504   8.497
 3679WAT     H211280   8.886   6.419   8.503
 3680WAT      O11281   5.080   9.308   0.959
 3680WAT     H111282   5.156   9.261   0.913
 3680WAT     H211283   5.100   9.316   1.056
 3681WAT      O11284   7.100   5.927   9.429
 3681WAT     H111285   7.100   6.012   9.482
 3681WAT     H211286   7.098   5.849   9.492
 3682WAT      O11287   3.645   2.220   9.005
 3682WAT     H111288   3.702   2.302   9.015
 3682WAT     H211289   3.565   2.243   8.950
 3683WAT      O11290   1.688   7.066   6.250
 3683WAT     H111291   1.684   6.974   6.288
 3683WAT     H211292   1.595   7.103   6.244
 3684WAT      O11293   7.523   2.387   4.398
 3684WAT     H111294   7.618   2.386   4.431
 3684WAT     H211295   7.510   2.313   4.332
 3685WAT      O11296   8.164   0.863   4.561
 3685WAT     H111297   8.153   0.763   4.559
 3685WAT     H211298   8.088   0.904   4.611
 3686WAT      O11299   9.464   0.431   5.857
 3686WAT     H111300   9.541   0.389   5.906
 3686WAT     H211301   9.445   0.521   5.895
 3687WAT      O11302   7.148   9.222   6.892
 3687WAT     H111303   7.148   9.184   6.799
 3687WAT     H211304   7.232   9.273   6.907
 3688WAT      O11305   3.859   9.645   9.206
 3688WAT     H111306   3.866   9.687   9.296
 3688WAT     H211307   3.888   9.549   9.211
 3689WAT      O11308   7.907   4.398   3.988
 3689WAT     H111309   7.963   4.423   4.067
 3689WAT     H211310   7.907   4.299   3.977
 3690WAT      O11311   9.038   5.004   9.380
 3690WAT     H111312   9.136   5.023   9.369
 3690WAT     H211313   9.016   4.916   9.337
 3691WAT      O11314   4.736   9.516   1.800
 3691WAT     H111315   4.716   9.593   1.740
 3691WAT     H211316   4.826   9.479   1.778
 3692WAT      O11317   9.119   2.530   6.982
 3692WAT     H111318   9.152   2.532   6.888
 3692WAT     H211319   9.158   2.451   7.029
 3693WAT      O11320   3.513   5.478   1.379
 3693WAT     H111321   3.554   5.407   1.322
 3693WAT     H211322   3.586   5.534   1.420
 3694WAT      O11323   7.319   3.970   0.959
 3694WAT     H111324   7.363   3.885   0.989
 3694WAT     H211325   7.363   4.003   0.876
 3695WAT      O11326   4.849   9.270   0.482
 3695WAT     H111327   4.851   9.270   0.582
 3695WAT     H211328   4.940   9.293   0.446
 3696WAT      O11329   8.627   3.594   4.129
 3696WAT     H111330   8.676   3.654   4.065
 3696WAT     H211331   8.530   3.615   4.125
 3697WAT      O11332   3.201   0.742   5.166
 3697WAT     H111333   3.182   0.664   5.226
 3697WAT     H211334   3.244   0.709   5.081
 3698WAT      O11335   9.279   6.033   2.407
 3698WAT     H111336   9.327   6.118   2.426
 3698WAT     H211337   9.275   5.977   2.490
 3699WAT      O11338   1.940   7.505   9.003
 3699WAT     H111339   1.874   7.481   9.075
 3699WAT     H211340   1.952   7.428   8.941
 3700WAT      O11341   5.275   2.291   0.526
 3700WAT     H111342   5.272   2.297   0.626
 3700WAT     H211343   5.310   2.201   0.500
 3701WAT      O11344   1.335   0.425   1.073
 3701WAT     H111345   1.373   0.393   0.986
 3701WAT     H211346   1.407   0.425   1.142
 3702WAT      O11347   6.832   4.397   7.292
 3702WAT     H111348   6.835   4.365   7.387
 3702WAT     H211349   6.827   4.318   7.231
 3703WAT      O11350   1.780   0.767   7.801
 3703WAT     H111351   1.806   0.784   7.896
 3703WAT     H211352   1.713   0.693   7.799
 3704WAT      O11353   9.294   3.414   3.943
 3704WAT     H111354   9.258   3.507   3.933
 3704WAT     H211355   9.358   3.395   3.869
 3705WAT      O11356   0.945   1.254   5.676
 3705WAT     H111357   0.905   1.345   5.669
 3705WAT     H211358   1.040   1.257   5.645
 3706WAT      O11359   1.691   8.695   7.465
 3706WAT     H111360   1.714   8.744   7.381
 3706WAT     H211361   1.599   8.658   7.458
 3707WAT      O11362   2.612   8.891   4.365
 3707WAT     H111363   2.567   8.827   4.428
 3707WAT     H211364   2.688   8.936   4.412
 3708WAT      O11365   0.591   8.798   3.780
 3708WAT     H111366   0.559   8.886   3.745
 3708WAT     H211367   0.583   8.728   3.708
 3709WAT      O11368   1.146   1.262   3.455
 3709WAT     H111369   1.220   1.234   3.517
 3709WAT     H211370   1.162   1.222   3.365
 3710WAT      O11371   1.661   3.252   2.279
 3710WAT     H111372   1.744   3.225   2.328
 3710WAT     H211373   1.682   3.329   2.218
 3711WAT      O11374   9.608   0.379   4.960
 3711WAT     H111375   9.703   0.408   4.957
 3711WAT     H211376   9.563   0.401   4.873
 3712WAT      O11377   9.386   6.625   1.530
 3712WAT     H111378   9.288   6.626   1.510
 3712WAT     H211379   9.422   6.533   1.514
 3713WAT      O11380   7.667   4.211   9.870
 3713WAT     H111381   7.762   4.205   9.900
 3713WAT     H211382   7.662   4.207   9.770
 3714WAT      O11383   9.284   2.162   3.481
 3714WAT     H111384   9.273   2.075   3.528
 3714WAT     H211385   9.218   2.167   3.405
 3715WAT      O11386   9.492   8.838   9.013
 3715WAT     H111387   9.531   8.925   9.045
 3715WAT     H211388   9.493   8.836   8.913
 3716WAT      O11389   8.602   8.066   6.020
 3716WAT     H111390   8.525   8.034   5.964
 3716WAT     H211391   8.603   8.166   6.021
 3717WAT      O11392   9.600   4.172   2.881
 3717WAT     H111393   9.680   4.121   2.914
 3717WAT     H211394   9.621   4.270   2.880
 3718WAT      O11395   7.626   2.183   2.867
 3718WAT     H111396   7.592   2.275   2.851
 3718WAT     H211397   7.721   2.177   2.836
 3719WAT      O11398   8.482   3.062   0.283
 3719WAT     H111399   8.439   3.136   0.335
 3719WAT     H211400   8.468   2.976   0.330
 3720WAT      O11401   0.053   5.298   2.870
 3720WAT     H111402   0.059   5.323   2.773
 3720WAT     H211403   0.125   5.344   2.921
 3721WAT      O11404   5.277   7.228   3.048
 3721WAT     H111405   5.329   7.175   2.981
 3721WAT     H211406   5.235   7.307   3.003
 3722WAT      O11407   2.996   5.881   0.009
 3722WAT     H111408   2.905   5.922   0.007
 3722WAT     H211409   2.994   5.792  -0.037
 3723WAT      O11410   5.542   7.187   1.880
 3723WAT     H111411   5.623   7.230   1.840
 3723WAT     H211412   5.496   7.253   1.939
 3724WAT      O11413   3.446   4.538   4.661
 3724WAT     H111414   3.383   4.462   4.645
 3724WAT     H211415   3.540   4.505   4.658
 3725WAT      O11416   0.095   1.900   1.685
 3725WAT     H111417   0.159   1.829   1.656
 3725WAT     H211418   0.135   1.990   1.668
 3726WAT      O11419   1.938   7.654   7.918
 3726WAT     H111420   1.866   7.649   7.987
 3726WAT     H211421   1.905   7.704   7.838
 3727WAT      O11422   0.025   1.282   3.175
 3727WAT     H111423  -0.010   1.369   3.140
 3727WAT     H211424   0.114   1.297   3.218
 3728WAT      O11425   2.894   5.503   5.936
 3728WAT     H111426   2.873   5.553   5.852
 3728WAT     H211427   2.968   5.549   5.984
 3729WAT      O11428   9.179   5.437   0.476
 3729WAT     H111429   9.155   5.512   0.538
 3729WAT     H211430   9.142   5.351   0.511
 3730WAT      O11431   6.877   2.702   2.047
 3730WAT     H111432   6.807   2.673   1.981
 3730WAT     H211433   6.890   2.630   2.115
 3731WAT      O11434   5.340   3.145   2.360
 3731WAT     H111435   5.415   3.117   2.300
 3731WAT     H211436   5.257   3.157   2.306
 3732WAT      O11437   7.014   5.482   9.057
 3732WAT     H111438   6.926   5.473   9.104
 3732WAT     H211439   7.088   5.484   9.124
 3733WAT      O11440   1.943   3.138   7.725
 3733WAT     H111441   1.968   3.102   7.815
 3733WAT     H211442   1.844   3.155   7.722
 3734WAT      O11443   5.634   4.383   0.640
 3734WAT     H111444   5.645   4.335   0.553
 3734WAT     H211445   5.660   4.321   0.715
 3735WAT      O11446   6.174   7.849   8.162
 3735WAT     H111447   6.198   7.754   8.140
 3735WAT     H211448   6.254   7.907   8.154
 3736WAT      O11449   9.273   9.211   6.223
 3736WAT     H111450   9.216   9.281   6.266
 3736WAT     H211451   9.341   9.254   6.164
 3737WAT      O11452   7.965   6.372   6.151
 3737WAT     H111453   7.938   6.351   6.245
 3737WAT     H211454   7.909   6.448   6.117
 3738WAT      O11455   6.837   1.916   6.664
 3738WAT     H111456   6.775   1.838   6.674
 3738WAT     H211457   6.928   1.890   6.696
 3739WAT      O11458   8.389   3.119   7.440
 3739WAT     H111459   8.373   3.036   7.493
 3739WAT     H211460   8.307   3.176   7.441
 3740WAT      O11461   2.803   3.147   8.505
 3740WAT     H111462   2.788   3.226   8.445
 3740WAT     H211463   2.737   3.150   8.580
 3741WAT      O11464   7.209   1.736   0.390
 3741WAT     H111465   7.170   1.779   0.472
 3741WAT     H211466   7.210   1.637   0.402
 3742WAT      O11467   8.511   0.713   2.454
 3742WAT     H111468   8.590   0.697   2.513
 3742WAT     H211469   8.529   0.673   2.364
 3743WAT      O11470   1.988   9.298   9.656
 3743WAT     H111471   2.061   9.231   9.643
 3743WAT     H211472   1.935   9.305   9.571
 3744WAT      O11473   9.569   7.513   4.225
 3744WAT     H111474   9.595   7.592   4.280
 3744WAT     H211475   9.640   7.495   4.157
 3745WAT      O11476   0.879   2.556   8.200
 3745WAT     H111477   0.879   2.489   8.126
 3745WAT     H211478   0.967   2.604   8.203
 3746WAT      O11479   4.213   2.744   1.738
 3746WAT     H111480   4.258   2.765   1.651
 3746WAT     H211481   4.206   2.644   1.747
 3747WAT      O11482   1.338   6.810   2.864
 3747WAT     H111483   1.330   6.808   2.764
 3747WAT     H211484   1.342   6.904   2.896
 3748WAT      O11485   7.358   8.889   4.213
 3748WAT     H111486   7.377   8.851   4.303
 3748WAT     H211487   7.354   8.988   4.218
 3749WAT      O11488   7.397   7.330   9.529
 3749WAT     H111489   7.466   7.392   9.566
 3749WAT     H211490   7.380   7.256   9.594
 3750WAT      O11491   2.585   6.907   8.949
 3750WAT     H111492   2.639   6.855   8.884
 3750WAT     H211493   2.542   6.845   9.015
 3751WAT      O11494   2.194   1.288   4.957
 3751WAT     H111495   2.243   1.205   4.928
 3751WAT     H211496   2.260   1.353   4.995
 3752WAT      O11497   5.958   1.220   9.226
 3752WAT     H111498   5.891   1.271   9.281
 3752WAT     H211499   6.044   1.213   9.276
 3753WAT      O11500   8.896   1.156   2.742
 3753WAT     H111501   8.857   1.172   2.651
 3753WAT     H211502   8.964   1.082   2.736
 3754WAT      O11503   1.855   5.214   8.398
 3754WAT     H111504   1.809   5.302   8.395
 3754WAT     H211505   1.814   5.152   8.331
 3755WAT      O11506   9.741   1.613   6.312
 3755WAT     H111507   9.760   1.599   6.215
 3755WAT     H211508   9.671   1.684   6.322
 3756WAT      O11509   9.165   1.741   2.693
 3756WAT     H111510   9.106   1.669   2.657
 3756WAT     H211511   9.127   1.775   2.779
 3757WAT      O11512   3.505   2.692   5.492
 3757WAT     H111513   3.591   2.696   5.441
 3757WAT     H211514   3.453   2.612   5.463
 3758WAT      O11515   7.167   3.229   3.800
 3758WAT     H111516   7.125   3.304   3.851
 3758WAT     H211517   7.097   3.163   3.773
 3759WAT      O11518   7.367   6.992   1.105
 3759WAT     H111519   7.456   7.030   1.130
 3759WAT     H211520   7.295   7.041   1.156
 3760WAT      O11521   0.473   2.591   0.829
 3760WAT     H111522   0.515   2.678   0.856
 3760WAT     H211523   0.396   2.609   0.766
 3761WAT      O11524   7.027   3.736   6.648
 3761WAT     H111525   6.962   3.798   6.692
 3761WAT     H211526   6.998   3.641   6.661
 3762WAT      O11527   6.722   3.193   7.667
 3762WAT     H111528   6.624   3.174   7.676
 3762WAT     H211529   6.771   3.109   7.645
 3763WAT      O11530   4.076   1.850   8.810
 3763WAT     H111531   3.987   1.831   8.852
 3763WAT     H211532   4.064   1.913   8.733
 3764WAT      O11533   7.783   4.315   0.749
 3764WAT     H111534   7.871   4.363   0.751
 3764WAT     H211535   7.710   4.378   0.778
 3765WAT      O11536   0.339   7.058   9.548
 3765WAT     H111537   0.313   7.143   9.593
 3765WAT     H211538   0.311   7.062   9.452
 3766WAT      O11539   6.045   3.749   4.787
 3766WAT     H111540   5.987   3.697   4.849
 3766WAT     H211541   6.043   3.706   4.697
 3767WAT      O11542   5.598   9.115   2.063
 3767WAT     H111543   5.693   9.104   2.091
 3767WAT     H211544   5.542   9.044   2.106
 3768WAT      O11545   7.994   0.395   2.406
 3768WAT     H111546   8.073   0.457   2.413
 3768WAT     H211547   7.918   0.444   2.364
 3769WAT      O11548   9.404   5.865   0.060
 3769WAT     H111549   9.399   5.955   0.016
 3769WAT     H211550   9.312   5.825   0.063
 3770WAT      O11551   3.872   9.652   0.979
 3770WAT     H111552   3.943   9.687   1.040
 3770WAT     H211553   3.866   9.553   0.987
 3771WAT      O11554   2.571   8.501   2.784
 3771WAT     H111555   2.481   8.498   2.828
 3771WAT     H211556   2.609   8.593   2.793
 3772WAT      O11557   5.838   5.268   1.834
 3772WAT     H111558   5.859   5.264   1.931
 3772WAT     H211559   5.773   5.196   1.810
 3773WAT      O11560   5.331   4.494   8.661
 3773WAT     H111561   5.246   4.545   8.677
 3773WAT     H211562   5.344   4.427   8.735
 3774WAT      O11563   1.360   4.645   9.288
 3774WAT     H111564   1.434   4.710   9.269
 3774WAT     H211565   1.393   4.552   9.271
 3775WAT      O11566   8.702   7.716   4.151
 3775WAT     H111567   8.707   7.804   4.198
 3775WAT     H211568   8.717   7.642   4.218
 3776WAT      O11569   3.811   1.615   9.646
 3776WAT     H111570   3.835   1.527   9.686
 3776WAT     H211571   3.892   1.673   9.642
 3777WAT      O11572   5.857   8.381   2.197
 3777WAT     H111573   5.832   8.331   2.114
 3777WAT     H211574   5.944   8.427   2.184
 3778WAT      O11575   0.060   9.662   8.090
 3778WAT     H111576   0.101   9.744   8.130
 3778WAT     H211577  -0.035   9.655   8.118
 3779WAT      O11578   7.302   8.883   7.009
 3779WAT     H111579   7.220   8.864   7.063
 3779WAT     H211580   7.375   8.820   7.036
 3780WAT      O11581   5.624   7.228   2.225
 3780WAT     H111582   5.541   7.277   2.198
 3780WAT     H211583   5.666   7.187   2.144
 3781WAT      O11584   4.855   8.708   4.020
 3781WAT     H111585   4.935   8.703   3.960
 3781WAT     H211586   4.827   8.803   4.030
 3782WAT      O11587   8.039   5.089   3.882
 3782WAT     H111588   8.128   5.062   3.844
 3782WAT     H211589   8.054   5.137   3.969
 3783WAT      O11590   1.984   0.452   7.603
 3783WAT     H111591   2.083   0.445   7.615
 3783WAT     H211592   1.964   0.494   7.514
 3784WAT      O11593   6.392   4.743   9.115
 3784WAT     H111594   6.373   4.650   9.146
 3784WAT     H211595   6.453   4.788   9.179
 3785WAT      O11596   3.965   6.325   8.936
 3785WAT     H111597   4.061   6.335   8.964
 3785WAT     H211598   3.950   6.233   8.900
 3786WAT      O11599   2.912   0.901   8.951
 3786WAT     H111600   2.976   0.936   9.020
 3786WAT     H211601   2.958   0.830   8.897
 3787WAT      O11602   6.563   6.909   7.491
 3787WAT     H111603   6.620   6.848   7.436
 3787WAT     H211604   6.598   6.913   7.584
 3788WAT      O11605   9.456   7.291   5.648
 3788WAT     H111606   9.454   7.210   5.708
 3788WAT     H211607   9.365   7.331   5.643
 3789WAT      O11608   1.314   7.704   9.816
 3789WAT     H111609   1.359   7.743   9.896
 3789WAT     H211610   1.357   7.617   9.791
 3790WAT      O11611   2.625   8.318   8.395
 3790WAT     H111612   2.563   8.397   8.399
 3790WAT     H211613   2.690   8.331   8.320
 3791WAT      O11614   4.076   3.052   6.658
 3791WAT     H111615   4.042   3.039   6.751
 3791WAT     H211616   4.012   3.011   6.593
 3792WAT      O11617   3.709   5.250   8.263
 3792WAT     H111618   3.644   5.307   8.213
 3792WAT     H211619   3.659   5.178   8.311
 3793WAT      O11620   8.529   1.542   0.709
 3793WAT     H111621   8.565   1.634   0.697
 3793WAT     H211622   8.604   1.477   0.718
 3794WAT      O11623   6.003   9.713   5.012
 3794WAT     H111624   5.935   9.738   4.944
 3794WAT     H211625   5.991   9.769   5.094
 3795WAT      O11626   1.980   6.291   3.236
 3795WAT     H111627   2.069   6.313   3.277
 3795WAT     H211628   1.961   6.354   3.161
 3796WAT      O11629   0.161   6.690   2.634
 3796WAT     H111630   0.111   6.749   2.570
 3796WAT     H211631   0.102   6.616   2.665
 3797WAT      O11632   6.064   7.879   6.732
 3797WAT     H111633   6.085   7.964   6.780
 3797WAT     H211634   5.975   7.845   6.762
 3798WAT      O11635   0.013   0.668   9.027
 3798WAT     H111636   0.098   0.680   9.077
 3798WAT     H211637  -0.020   0.757   8.996
 3799WAT      O11638   8.262   4.038   7.774
 3799WAT     H111639   8.186   4.027   7.710
 3799WAT     H211640   8.286   3.949   7.813
 3800WAT      O11641   0.220   8.248   0.886
 3800WAT     H111642   0.290   8.318   0.878
 3800WAT     H211643   0.148   8.263   0.818
 3801WAT      O11644   9.450   4.045   5.452
 3801WAT     H111645   9.540   4.050   5.409
 3801WAT     H211646   9.459   4.056   5.551
 3802WAT      O11647   6.379   0.438   0.602
 3802WAT     H111648   6.472   0.406   0.617
 3802WAT     H211649   6.372   0.483   0.513
 3803WAT      O11650   7.958   3.532   9.638
 3803WAT     H111651   7.945   3.592   9.717
 3803WAT     H211652   7.964   3.587   9.555
 3804WAT      O11653   4.668   5.826   0.755
 3804WAT     H111654   4.762   5.812   0.725
 3804WAT     H211655   4.627   5.737   0.777
 3805WAT      O11656   7.256   7.149   8.401
 3805WAT     H111657   7.273   7.063   8.353
 3805WAT     H211658   7.264   7.134   8.499
 3806WAT      O11659   8.022   4.599   1.246
 3806WAT     H111660   7.933   4.581   1.204
 3806WAT     H211661   8.065   4.677   1.200
 3807WAT      O11662   6.976   4.587   2.996
 3807WAT     H111663   6.997   4.679   3.030
 3807WAT     H211664   7.011   4.577   2.903
 3808WAT      O11665   1.422   2.678   9.486
 3808WAT     H111666   1.493   2.616   9.453
 3808WAT     H211667   1.332   2.645   9.457
 3809WAT      O11668   5.431   4.452   9.260
 3809WAT     H111669   5.467   4.382   9.199
 3809WAT     H211670   5.469   4.440   9.351
 3810WAT      O11671   6.750   9.201   7.034
 3810WAT     H111672   6.818   9.136   7.000
 3810WAT     H211673   6.685   9.154   7.093
 3811WAT      O11674   1.409   3.490   2.201
 3811WAT     H111675   1.371   3.468   2.111
 3811WAT     H211676   1.509   3.486   2.197
 3812WAT      O11677   0.641   1.092   3.549
 3812WAT     H111678   0.722   1.033   3.553
 3812WAT     H211679   0.669   1.186   3.534
 3813WAT      O11680   7.975   4.924   4.627
 3813WAT     H111681   7.969   4.997   4.559
 3813WAT     H211682   7.930   4.954   4.711
 3814WAT      O11683   4.198   1.244   5.913
 3814WAT     H111684   4.282   1.190   5.922
 3814WAT     H211685   4.194   1.312   5.986
 3815WAT      O11686   5.282   4.703   4.370
 3815WAT     H111687   5.351   4.755   4.319
 3815WAT     H211688   5.215   4.766   4.409
 3816WAT      O11689   0.206   5.202   8.574
 3816WAT     H111690   0.220   5.153   8.660
 3816WAT     H211691   0.165   5.292   8.593
 3817WAT      O11692   7.648   2.454   3.228
 3817WAT     H111693   7.644   2.532   3.291
 3817WAT     H211694   7.576   2.463   3.159
 3818WAT      O11695   4.988   2.307   6.087
 3818WAT     H111696   5.085   2.325   6.073
 3818WAT     H211697   4.937   2.337   6.007
 3819WAT      O11698   9.302   2.055   2.962
 3819WAT     H111699   9.244   2.137   2.969
 3819WAT     H211700   9.398   2.082   2.958
 3820WAT      O11701   0.907   4.556   3.133
 3820WAT     H111702   0.940   4.650   3.137
 3820WAT     H211703   0.814   4.551   3.170
 3821WAT      O11704   4.264   5.446   9.585
 3821WAT     H111705   4.364   5.452   9.583
 3821WAT     H211706   4.233   5.382   9.514
 3822WAT      O11707   5.126   0.170   1.064
 3822WAT     H111708   5.125   0.151   0.966
 3822WAT     H211709   5.041   0.215   1.090
 3823WAT      O11710   9.019   9.289   8.751
 3823WAT     H111711   8.975   9.308   8.664
 3823WAT     H211712   8.961   9.322   8.826
 3824WAT      O11713   6.852   7.913   5.273
 3824WAT     H111714   6.796   7.954   5.202
 3824WAT     H211715   6.822   7.819   5.289
 3825WAT      O11716   1.431   6.460   3.040
 3825WAT     H111717   1.442   6.556   3.065
 3825WAT     H211718   1.400   6.407   3.119
 3826WAT      O11719   0.717   8.204   5.980
 3826WAT     H111720   0.804   8.252   5.967
 3826WAT     H211721   0.665   8.248   6.053
 3827WAT      O11722   0.801   4.639   8.478
 3827WAT     H111723   0.759   4.719   8.435
 3827WAT     H211724   0.860   4.593   8.413
 3828WAT      O11725   3.777   8.771   3.689
 3828WAT     H111726   3.789   8.677   3.720
 3828WAT     H211727   3.685   8.802   3.710
 3829WAT      O11728   6.357   3.909   6.451
 3829WAT     H111729   6.273   3.938   6.498
 3829WAT     H211730   6.333   3.848   6.375
 3830WAT      O11731   1.340   5.664   7.575
 3830WAT     H111732   1.254   5.713   7.590
 3830WAT     H211733   1.326   5.593   7.506
 3831WAT      O11734   3.110   4.512   4.728
 3831WAT     H111735   3.175   4.467   4.666
 3831WAT     H211736   3.149   4.516   4.820
 3832WAT      O11737   2.427   6.862   9.534
 3832WAT     H111738   2.364   6.786   9.550
 3832WAT     H211739   2.512   6.846   9.585
 3833WAT      O11740   9.651   8.326   6.790
 3833WAT     H111741   9.588   8.401   6.771
 3833WAT     H211742   9.724   8.358   6.851
 3834WAT      O11743   1.984   2.358   4.060
 3834WAT     H111744   1.971   2.260   4.075
 3834WAT     H211745   2.080   2.377   4.043
 3835WAT      O11746   5.202   4.853   5.868
 3835WAT     H111747   5.167   4.771   5.824
 3835WAT     H211748   5.249   4.829   5.953
 3836WAT      O11749   7.718   8.059   7.222
 3836WAT     H111750   7.769   8.145   7.223
 3836WAT     H211751   7.782   7.982   7.220
 3837WAT      O11752   3.409   1.919   3.843
 3837WAT     H111753   3.342   1.948   3.912
 3837WAT     H211754   3.395   1.823   3.821
 3838WAT      O11755   1.734   9.611   0.250
 3838WAT     H111756   1.719   9.705   0.219
 3838WAT     H211757   1.768   9.612   0.344
 3839WAT      O11758   6.052   0.768   3.587
 3839WAT     H111759   5.997   0.829   3.531
 3839WAT     H211760   6.124   0.727   3.531
 3840WAT      O11761   7.351   3.528   6.467
 3840WAT     H111762   7.341   3.593   6.391
 3840WAT     H211763   7.292   3.449   6.451
 3841WAT      O11764   2.156   7.331   0.801
 3841WAT     H111765   2.249   7.301   0.778
 3841WAT     H211766   2.156   7.371   0.893
 3842WAT      O11767   9.810   4.120   0.208
 3842WAT     H111768   9.796   4.025   0.235
 3842WAT     H211769   9.902   4.131   0.171
 3843WAT      O11770   5.310   6.020   8.234
 3843WAT     H111771   5.280   5.939   8.183
 3843WAT     H211772   5.387   6.062   8.186
 3844WAT      O11773   8.109   6.452   2.321
 3844WAT     H111774   8.163   6.375   2.356
 3844WAT     H211775   8.113   6.527   2.387
 3845WAT      O11776   8.180   8.351   3.018
 3845WAT     H111777   8.180   8.406   3.102
 3845WAT     H211778   8.269   8.306   3.008
 3846WAT      O11779   1.009   6.112   2.751
 3846WAT     H111780   1.010   6.030   2.694
 3846WAT     H211781   0.961   6.093   2.837
 3847WAT      O11782   5.554   4.841   8.396
 3847WAT     H111783   5.649   4.829   8.366
 3847WAT     H211784   5.536   4.938   8.412
 3848WAT      O11785   1.162   7.041   0.495
 3848WAT     H111786   1.119   7.076   0.412
 3848WAT     H211787   1.147   7.106   0.570
 3849WAT      O11788   1.414   9.528   6.468
 3849WAT     H111789   1.446   9.463   6.537
 3849WAT     H211790   1.330   9.572   6.499
 3850WAT      O11791   0.206   9.306   0.585
 3850WAT     H111792   0.111   9.277   0.579
 3850WAT     H211793   0.213   9.386   0.645
 3851WAT      O11794   5.710   1.228   9.023
 3851WAT     H111795   5.763   1.192   8.946
 3851WAT     H211796   5.772   1.271   9.088
 3852WAT      O11797   8.088   7.494   8.341
 3852WAT     H111798   8.104   7.479   8.439
 3852WAT     H211799   8.092   7.407   8.293
 3853WAT      O11800   7.549   5.221   0.456
 3853WAT     H111801   7.550   5.233   0.357
 3853WAT     H211802   7.580   5.305   0.501
 3854WAT      O11803   8.675   7.643   1.565
 3854WAT     H111804   8.636   7.556   1.535
 3854WAT     H211805   8.657   7.713   1.496
 3855WAT      O11806   1.559   0.165   9.675
 3855WAT     H111807   1.505   0.249   9.666
 3855WAT     H211808   1.623   0.158   9.599
 3856WAT      O11809   2.935   0.463   0.361
 3856WAT     H111810   3.002   0.537   0.364
 3856WAT     H211811   2.979   0.380   0.327
 3857WAT      O11812   8.207   6.034   0.473
 3857WAT     H111813   8.142   6.000   0.542
 3857WAT     H211814   8.262   6.107   0.513
 3858WAT      O11815   0.822   3.728   5.593
 3858WAT     H111816   0.884   3.658   5.559
 3858WAT     H211817   0.729   3.707   5.564
 3859WAT      O11818   1.736   8.514   5.797
 3859WAT     H111819   1.714   8.432   5.851
 3859WAT     H211820   1.820   8.497   5.745
 3860WAT      O11821   9.787   2.983   0.261
 3860WAT     H111822   9.880   3.017   0.277
 3860WAT     H211823   9.730   3.057   0.227
 3861WAT      O11824   1.648   0.657   4.140
 3861WAT     H111825   1.550   0.660   4.123
 3861WAT     H211826   1.697   0.663   4.052
 3862WAT      O11827   7.325   0.324   4.189
 3862WAT     H111828   7.337   0.316   4.091
 3862WAT     H211829   7.248   0.267   4.218
 3863WAT      O11830   6.490   3.293   5.983
 3863WAT     H111831   6.427   3.243   5.922
 3863WAT     H211832   6.454   3.384   6.001
 3864WAT      O11833   3.090   0.302   3.865
 3864WAT     H111834   3.045   0.380   3.822
 3864WAT     H211835   3.177   0.284   3.817
 3865WAT      O11836   5.587   0.178   0.882
 3865WAT     H111837   5.683   0.204   0.890
 3865WAT     H211838   5.562   0.119   0.959
 3866WAT      O11839   6.653   4.333   3.849
 3866WAT     H111840   6.620   4.303   3.759
 3866WAT     H211841   6.746   4.370   3.840
 3867WAT      O11842   4.250   2.212   4.573
 3867WAT     H111843   4.336   2.210   4.625
 3867WAT     H211844   4.249   2.136   4.508
 3868WAT      O11845   9.543   1.356   4.362
 3868WAT     H111846   9.567   1.391   4.453
 3868WAT     H211847   9.614   1.292   4.331
 3869WAT      O11848   3.056   5.995   3.399
 3869WAT     H111849   3.087   6.059   3.329
 3869WAT     H211850   3.135   5.945   3.435
 3870WAT      O11851   0.414   3.141   2.124
 3870WAT     H111852   0.439   3.054   2.082
 3870WAT     H211853   0.478   3.212   2.096
 3871WAT      O11854   5.867   9.432   9.372
 3871WAT     H111855   5.918   9.513   9.341
 3871WAT     H211856   5.906   9.351   9.328
 3872WAT      O11857   5.308   3.878   5.198
 3872WAT     H111858   5.361   3.817   5.257
 3872WAT     H211859   5.326   3.855   5.102
 3873WAT      O11860   2.312   0.235   4.254
 3873WAT     H111861   2.283   0.177   4.178
 3873WAT     H211862   2.403   0.271   4.234
 3874WAT      O11863   2.687   7.358   0.962
 3874WAT     H111864   2.748   7.338   1.038
 3874WAT     H211865   2.736   7.348   0.875
 3875WAT      O11866   7.901   6.018   6.004
 3875WAT     H111867   7.857   5.929   5.995
 3875WAT     H211868   7.835   6.084   6.042
 3876WAT      O11869   7.781   7.984   9.085
 3876WAT     H111870   7.817   7.967   9.177
 3876WAT     H211871   7.737   8.074   9.083
 3877WAT      O11872   6.307   3.800   7.410
 3877WAT     H111873   6.242   3.728   7.386
 3877WAT     H211874   6.399   3.761   7.418
 3878WAT      O11875   6.460   3.152   7.710
 3878WAT     H111876   6.418   3.066   7.680
 3878WAT     H211877   6.430   3.174   7.802
 3879WAT      O11878   7.357   6.120   9.869
 3879WAT     H111879   7.376   6.066   9.950
 3879WAT     H211880   7.290   6.191   9.891
 3880WAT      O11881   1.609   2.844   5.367
 3880WAT     H111882   1.519   2.884   5.385
 3880WAT     H211883   1.625   2.842   5.268
 3881WAT      O11884   2.961   3.878   6.546
 3881WAT     H111885   3.040   3.938   6.535
 3881WAT     H211886   2.991   3.788   6.577
 3882WAT      O11887   8.419   2.110   9.831
 3882WAT     H111888   8.329   2.081   9.800
 3882WAT     H211889   8.416   2.124   9.931
 3883WAT      O11890   7.978   8.780   1.701
 3883WAT     H111891   7.947   8.871   1.728
 3883WAT     H211892   8.066   8.786   1.655
 3884WAT      O11893   3.840   3.497   0.592
 3884WAT     H111894   3.922   3.444   0.570
 3884WAT     H211895   3.841   3.520   0.689
 3885WAT      O11896   9.537   8.076   8.178
 3885WAT     H111897   9.444   8.054   8.147
 3885WAT     H211898   9.563   8.017   8.253
 3886WAT      O11899   6.901   2.449   2.153
 3886WAT     H111900   6.806   2.421   2.139
 3886WAT     H211901   6.920   2.455   2.251
 3887WAT      O11902   4.141   8.012   3.748
 3887WAT     H111903   4.055   8.026   3.700
 3887WAT     H211904   4.212   7.984   3.682
 3888WAT      O11905   9.640   1.967   1.857
 3888WAT     H111906   9.657   1.958   1.955
 3888WAT     H211907   9.606   2.059   1.837
 3889WAT      O11908   5.271   2.799   1.719
 3889WAT     H111909   5.200   2.860   1.755
 3889WAT     H211910   5.337   2.853   1.666
 3890WAT      O11911   2.810   2.030   9.017
 3890WAT     H111912   2.872   2.058   9.091
 3890WAT     H211913   2.825   2.088   8.938
 3891WAT      O11914   7.898   0.171   3.149
 3891WAT     H111915   7.980   0.129   3.187
 3891WAT     H211916   7.876   0.254   3.202
 3892WAT      O11917   5.136   3.518   8.162
 3892WAT     H111918   5.205   3.461   8.116
 3892WAT     H211919   5.098   3.468   8.240
 3893WAT      O11920   8.839   9.706   1.508
 3893WAT     H111921   8.828   9.745   1.599
 3893WAT     H211922   8.908   9.634   1.510
 3894WAT      O11923   7.345   1.574   6.708
 3894WAT     H111924   7.286   1.650   6.734
 3894WAT     H211925   7.379   1.528   6.790
 3895WAT      O11926   5.015   0.869   1.802
 3895WAT     H111927   4.916   0.851   1.800
 3895WAT     H211928   5.042   0.897   1.894
 3896WAT      O11929   7.719   5.954   2.573
 3896WAT     H111930   7.686   6.043   2.542
 3896WAT     H211931   7.642   5.899   2.606
 3897WAT      O11932   1.122   3.139   7.384
 3897WAT     H111933   1.123   3.039   7.387
 3897WAT     H211934   1.158   3.170   7.296
 3898WAT      O11935   6.882   2.678   4.036
 3898WAT     H111936   6.856   2.769   4.069
 3898WAT     H211937   6.839   2.608   4.093
 3899WAT      O11938   3.478   9.245   5.952
 3899WAT     H111939   3.424   9.163   5.969
 3899WAT     H211940   3.510   9.245   5.857
 3900WAT      O11941   4.603   7.405   5.186
 3900WAT     H111942   4.576   7.340   5.258
 3900WAT     H211943   4.596   7.361   5.097
 3901WAT      O11944   7.295   0.945   4.707
 3901WAT     H111945   7.391   0.915   4.707
 3901WAT     H211946   7.237   0.869   4.736
 3902WAT      O11947   9.068   9.384   6.000
 3902WAT     H111948   9.068   9.476   5.963
 3902WAT     H211949   9.070   9.389   6.100
 3903WAT      O11950   1.266   0.584   2.958
 3903WAT     H111951   1.228   0.514   3.019
 3903WAT     H211952   1.242   0.675   2.994
 3904WAT      O11953   3.603   0.194   0.523
 3904WAT     H111954   3.573   0.192   0.428
 3904WAT     H211955   3.696   0.230   0.529
 3905WAT      O11956   0.969   7.707   1.714
 3905WAT     H111957   0.954   7.803   1.694
 3905WAT     H211958   0.950   7.652   1.633
 3906WAT      O11959   0.588   3.385   5.401
 3906WAT     H111960   0.644   3.389   5.483
 3906WAT     H211961   0.503   3.336   5.421
 3907WAT      O11962   4.092   8.712   6.031
 3907WAT     H111963   4.100   8.765   6.116
 3907WAT     H211964   4.151   8.752   5.961
 3908WAT      O11965   2.733   7.489   7.680
 3908WAT     H111966   2.697   7.582   7.679
 3908WAT     H211967   2.764   7.466   7.772
 3909WAT      O11968   7.615   9.700   2.678
 3909WAT     H111969   7.573   9.749   2.602
 3909WAT     H211970   7.693   9.752   2.712
 3910WAT      O11971   5.612   3.544   7.262
 3910WAT     H111972   5.629   3.595   7.347
 3910WAT     H211973   5.603   3.608   7.186
 3911WAT      O11974   4.484   4.072   4.279
 3911WAT     H111975   4.459   4.063   4.183
 3911WAT     H211976   4.552   4.146   4.289
 3912WAT      O11977   1.473   6.732   3.097
 3912WAT     H111978   1.431   6.769   3.014
 3912WAT     H211979   1.496   6.808   3.158
 3913WAT      O11980   4.285   0.303   0.409
 3913WAT     H111981   4.377   0.336   0.388
 3913WAT     H211982   4.218   0.349   0.350
 3914WAT      O11983   0.100   9.408   5.040
 3914WAT     H111984   0.008   9.423   5.003
 3914WAT     H211985   0.093   9.378   5.135
 3915WAT      O11986   9.703   4.491   7.818
 3915WAT     H111987   9.753   4.458   7.897
 3915WAT     H211988   9.744   4.576   7.784
 3916WAT      O11989   3.267   5.717   1.467
 3916WAT     H111990   3.184   5.734   1.414
 3916WAT     H211991   3.242   5.687   1.559
 3917WAT      O11992   1.319   9.800   1.765
 3917WAT     H111993   1.333   9.710   1.806
 3917WAT     H211994   1.366   9.803   1.677
 3918WAT      O11995   4.769   1.552   7.271
 3918WAT     H111996   4.821   1.533   7.354
 3918WAT     H211997   4.776   1.474   7.209
 3919WAT      O11998   8.377   1.156   8.948
 3919WAT     H111999   8.474   1.176   8.962
 3919WAT     H212000   8.365   1.057   8.936
 3920WAT      O12001   2.229   9.608   9.598
 3920WAT     H112002   2.290   9.530   9.586
 3920WAT     H212003   2.271   9.690   9.560
 3921WAT      O12004   1.041   4.513   5.016
 3921WAT     H112005   1.001   4.431   5.056
 3921WAT     H212006   1.028   4.510   4.917
 3922WAT      O12007   1.752   7.110   8.805
 3922WAT     H112008   1.750   7.114   8.905
 3922WAT     H212009   1.662   7.134   8.769
 3923WAT      O12010   2.297   8.765   3.435
 3923WAT     H112011   2.380   8.820   3.443
 3923WAT     H212012   2.293   8.700   3.511
 3924WAT      O12013   8.445   4.026   9.681
 3924WAT     H112014   8.389   4.105   9.707
 3924WAT     H212015   8.386   3.954   9.645
 3925WAT      O12016   8.363   5.096   1.026
 3925WAT     H112017   8.328   5.002   1.022
 3925WAT     H212018   8.343   5.135   1.116
 3926WAT      O12019   7.802   3.067   8.596
 3926WAT     H112020   7.823   3.145   8.654
 3926WAT     H212021   7.724   3.090   8.537
 3927WAT      O12022   2.787   3.195   3.368
 3927WAT     H112023   2.774   3.172   3.272
 3927WAT     H212024   2.830   3.284   3.376
 3928WAT      O12025   6.510   9.194   4.190
 3928WAT     H112026   6.605   9.197   4.220
 3928WAT     H212027   6.493   9.268   4.125
 3929WAT      O12028   7.397   2.507   4.004
 3929WAT     H112029   7.323   2.503   4.072
 3929WAT     H212030   7.366   2.557   3.923
 3930WAT      O12031   3.105   9.284   9.278
 3930WAT     H112032   3.089   9.348   9.203
 3930WAT     H212033   3.203   9.270   9.290
 3931WAT      O12034   8.353   8.375   3.667
 3931WAT     H112035   8.433   8.323   3.697
 3931WAT     H212036   8.352   8.464   3.713
 3932WAT      O12037   0.456   6.999   6.876
 3932WAT     H112038   0.462   6.969   6.971
 3932WAT     H212039   0.360   7.017   6.853
 3933WAT      O12040   1.115   2.671   8.261
 3933WAT     H112041   1.200   2.634   8.224
 3933WAT     H212042   1.114   2.660   8.360
 3934WAT      O12043   3.507   4.667   9.677
 3934WAT     H112044   3.497   4.593   9.743
 3934WAT     H212045   3.597   4.662   9.634
 3935WAT      O12046   9.347   4.103   8.068
 3935WAT     H112047   9.283   4.122   8.143
 3935WAT     H212048   9.403   4.184   8.051
 3936WAT      O12049   0.936   4.269   0.591
 3936WAT     H112050   0.905   4.289   0.498
 3936WAT     H212051   1.030   4.301   0.602
 3937WAT      O12052   7.160   4.023   7.551
 3937WAT     H112053   7.154   4.029   7.651
 3937WAT     H212054   7.153   4.114   7.512
 3938WAT      O12055   6.373   7.207   1.038
 3938WAT     H112056   6.367   7.129   1.100
 3938WAT     H212057   6.397   7.289   1.090
 3939WAT      O12058   8.111   6.331   6.448
 3939WAT     H112059   8.012   6.343   6.434
 3939WAT     H212060   8.160   6.372   6.371
 3940WAT      O12061   6.606   8.439   2.596
 3940WAT     H112062   6.564   8.479   2.514
 3940WAT     H212063   6.694   8.400   2.571
 3941WAT      O12064   9.706   2.534   5.388
 3941WAT     H112065   9.758   2.499   5.466
 3941WAT     H212066   9.671   2.625   5.410
 3942WAT      O12067   8.340   0.464   4.162
 3942WAT     H112068   8.337   0.562   4.141
 3942WAT     H212069   8.292   0.446   4.247
 3943WAT      O12070   0.477   1.268   0.231
 3943WAT     H112071   0.564   1.302   0.195
 3943WAT     H212072   0.494   1.216   0.315
 3944WAT      O12073   8.237   8.415   7.518
 3944WAT     H112074   8.273   8.397   7.609
 3944WAT     H212075   8.297   8.480   7.471
 3945WAT      O12076   6.312   0.898   8.469
 3945WAT     H112077   6.241   0.835   8.438
 3945WAT     H212078   6.395   0.883   8.416
 3946WAT      O12079   8.368   8.076   4.659
 3946WAT     H112080   8.402   8.167   4.633
 3946WAT     H212081   8.437   8.007   4.635
 3947WAT      O12082   6.491   0.351   9.619
 3947WAT     H112083   6.566   0.289   9.597
 3947WAT     H212084   6.528   0.440   9.646
 3948WAT      O12085   0.092   4.752   6.709
 3948WAT     H112086   0.049   4.841   6.695
 3948WAT     H212087   0.184   4.752   6.669
 3949WAT      O12088   4.737   2.920   0.637
 3949WAT     H112089   4.802   2.904   0.712
 3949WAT     H212090   4.666   2.850   0.640
 3950WAT      O12091   6.692   4.372   9.091
 3950WAT     H112092   6.720   4.276   9.098
 3950WAT     H212093   6.755   4.429   9.144
 3951WAT      O12094   6.944   7.410   6.394
 3951WAT     H112095   6.951   7.509   6.391
 3951WAT     H212096   6.872   7.379   6.332
 3952WAT      O12097   9.348   5.710   9.520
 3952WAT     H112098   9.395   5.634   9.474
 3952WAT     H212099   9.366   5.707   9.618
 3953WAT      O12100   9.787   2.983   7.605
 3953WAT     H112101   9.760   3.055   7.542
 3953WAT     H212102   9.737   2.899   7.583
 3954WAT      O12103   4.332   0.839   2.334
 3954WAT     H112104   4.339   0.937   2.351
 3954WAT     H212105   4.305   0.823   2.239
 3955WAT      O12106   3.951   4.186   9.387
 3955WAT     H112107   3.853   4.171   9.397
 3955WAT     H212108   3.968   4.237   9.302
 3956WAT      O12109   9.183   7.787   8.693
 3956WAT     H112110   9.255   7.717   8.706
 3956WAT     H212111   9.226   7.875   8.673
 3957WAT      O12112   9.026   7.410   3.395
 3957WAT     H112113   9.094   7.463   3.445
 3957WAT     H212114   9.066   7.378   3.309
 3958WAT      O12115   0.900   2.353   8.031
 3958WAT     H112116   0.990   2.334   8.070
 3958WAT     H212117   0.872   2.277   7.972
 3959WAT      O12118   4.208   6.026   1.210
 3959WAT     H112119   4.175   6.116   1.238
 3959WAT     H212120   4.308   6.026   1.209
 3960WAT      O12121   9.040   9.713   8.254
 3960WAT     H112122   8.966   9.780   8.263
 3960WAT     H212123   9.074   9.714   8.160
 3961WAT      O12124   6.731   2.048   4.384
 3961WAT     H112125   6.684   1.994   4.315
 3961WAT     H212126   6.705   2.016   4.475
 3962WAT      O12127   9.851   3.971   5.968
 3962WAT     H112128   9.831   3.875   5.989
 3962WAT     H212129   9.939   3.977   5.920
 3963WAT      O12130   9.330   4.589   6.651
 3963WAT     H112131   9.406   4.640   6.692
 3963WAT     H212132   9.357   4.555   6.561
 3964WAT      O12133   1.364   8.861   5.810
 3964WAT     H112134   1.419   8.904   5.882
 3964WAT     H212135   1.417   8.860   5.725
 3965WAT      O12136   4.241   0.922   6.576
 3965WAT     H112137   4.276   0.979   6.650
 3965WAT     H212138   4.284   0.950   6.490
 3966WAT      O12139   7.187   0.304   6.920
 3966WAT     H112140   7.280   0.283   6.890
 3966WAT     H212141   7.125   0.232   6.888
 3967WAT      O12142   7.146   9.541   6.002
 3967WAT     H112143   7.093   9.493   5.932
 3967WAT     H212144   7.223   9.588   5.959
 3968WAT      O12145   9.457   9.383   6.104
 3968WAT     H112146   9.556   9.386   6.092
 3968WAT     H212147   9.415   9.459   6.054
 3969WAT      O12148   3.527   5.458   9.457
 3969WAT     H112149   3.462   5.492   9.525
 3969WAT     H212150   3.610   5.425   9.502
 3970WAT      O12151   6.011   6.687   9.312
 3970WAT     H112152   5.934   6.658   9.368
 3970WAT     H212153   5.978   6.743   9.236
 3971WAT      O12154   7.413   4.965   5.301
 3971WAT     H112155   7.461   5.050   5.277
 3971WAT     H212156   7.470   4.910   5.361
 3972WAT      O12157   0.130   9.299   3.787
 3972WAT     H112158   0.087   9.212   3.813
 3972WAT     H212159   0.220   9.305   3.830
 3973WAT      O12160   4.818   9.253   5.141
 3973WAT     H112161   4.822   9.343   5.184
 3973WAT     H212162   4.865   9.256   5.053
 3974WAT      O12163   4.030   6.254   9.748
 3974WAT     H112164   4.098   6.326   9.761
 3974WAT     H212165   4.049   6.205   9.664
 3975WAT      O12166   2.344   7.341   8.867
 3975WAT     H112167   2.443   7.347   8.883
 3975WAT     H212168   2.315   7.246   8.876
 3976WAT      O12169   3.640   8.224   7.384
 3976WAT     H112170   3.554   8.232   7.334
 3976WAT     H212171   3.697   8.154   7.340
 3977WAT      O12172   0.971   7.193   1.518
 3977WAT     H112173   0.892   7.253   1.528
 3977WAT     H212174   0.948   7.117   1.457
 3978WAT      O12175   6.402   9.663   9.507
 3978WAT     H112176   6.382   9.569   9.535
 3978WAT     H212177   6.499   9.682   9.524
 3979WAT      O12178   3.807   1.421   3.300
 3979WAT     H112179   3.834   1.345   3.240
 3979WAT     H212180   3.875   1.494   3.291
 3980WAT      O12181   2.680   0.381   1.688
 3980WAT     H112182   2.668   0.346   1.595
 3980WAT     H212183   2.623   0.328   1.751
 3981WAT      O12184   4.607   7.171   7.016
 3981WAT     H112185   4.599   7.161   6.917
 3981WAT     H212186   4.698   7.204   7.040
 3982WAT      O12187   3.990   6.489   2.556
 3982WAT     H112188   4.063   6.464   2.492
 3982WAT     H212189   3.901   6.470   2.515
 3983WAT      O12190   6.799   0.482   4.597
 3983WAT     H112191   6.862   0.468   4.673
 3983WAT     H212192   6.851   0.489   4.512
 3984WAT      O12193   5.484   0.200   2.027
 3984WAT     H112194   5.514   0.105   2.034
 3984WAT     H212195   5.526   0.242   1.947
 3985WAT      O12196   6.407   2.133   0.689
 3985WAT     H112197   6.341   2.061   0.707
 3985WAT     H212198   6.368   2.222   0.714
 3986WAT      O12199   2.863   2.482   0.983
 3986WAT     H112200   2.781   2.479   1.040
 3986WAT     H212201   2.837   2.469   0.887
 3987WAT      O12202   2.728   5.511   3.852
 3987WAT     H112203   2.725   5.611   3.859
 3987WAT     H212204   2.769   5.485   3.765
 3988WAT      O12205   7.115   5.680   9.574
 3988WAT     H112206   7.082   5.650   9.664
 3988WAT     H212207   7.092   5.611   9.505
 3989WAT      O12208   9.414   7.027   4.360
 3989WAT     H112209   9.392   7.123   4.340
 3989WAT     H212210   9.384   7.006   4.453
 3990WAT      O12211   5.924   3.617   3.713
 3990WAT     H112212   5.953   3.666   3.631
 3990WAT     H212213   5.943   3.519   3.702
 3991WAT      O12214   1.145   4.759   3.915
 3991WAT     H112215   1.164   4.697   3.839
 3991WAT     H212216   1.187   4.724   3.998
 3992WAT      O12217   2.511   8.218   5.411
 3992WAT     H112218   2.553   8.308   5.422
 3992WAT     H212219   2.480   8.185   5.500
 3993WAT      O12220   9.874   5.614   4.059
 3993WAT     H112221   9.795   5.675   4.050
 3993WAT     H212222   9.851   5.524   4.021
 3994WAT      O12223   7.277   9.327   0.728
 3994WAT     H112224   7.249   9.249   0.672
 3994WAT     H212225   7.336   9.294   0.802
 3995WAT      O12226   6.643   1.231   8.058
 3995WAT     H112227   6.696   1.150   8.084
 3995WAT     H212228   6.705   1.305   8.035
 3996WAT      O12229   7.440   7.245   8.828
 3996WAT     H112230   7.435   7.325   8.767
 3996WAT     H212231   7.535   7.217   8.839
 3997WAT      O12232   5.432   5.083   0.836
 3997WAT     H112233   5.343   5.056   0.800
 3997WAT     H212234   5.462   5.168   0.792
 3998WAT      O12235   5.086   8.789   0.525
 3998WAT     H112236   5.181   8.821   0.527
 3998WAT     H212237   5.043   8.807   0.613
 3999WAT      O12238   9.327   1.837   7.150
 3999WAT     H112239   9.377   1.890   7.218
 3999WAT     H212240   9.374   1.843   7.062
 4000WAT      O12241   6.825   3.045   6.977
 4000WAT     H112242   6.911   3.091   6.998
 4000WAT     H212243   6.758   3.066   7.048
 4001WAT      O12244   2.638   4.805   0.172
 4001WAT     H112245   2.566   4.740   0.194
 4001WAT     H212246   2.725   4.773   0.209
 4002WAT      O12247   8.124   7.784   9.369
 4002WAT     H112248   8.218   7.799   9.338
 4002WAT     H212249   8.072   7.741   9.295
 4003WAT      O12250   9.778   1.038   5.150
 4003WAT     H112251   9.757   0.967   5.217
 4003WAT     H212252   9.693   1.081   5.120
 4004WAT      O12253   4.846   4.167   8.455
 4004WAT     H112254   4.800   4.090   8.499
 4004WAT     H212255   4.908   4.133   8.384
 4005WAT      O12256   7.290   0.704   1.186
 4005WAT     H112257   7.384   0.689   1.157
 4005WAT     H212258   7.264   0.799   1.169
 4006WAT      O12259   2.278   1.072   6.555
 4006WAT     H112260   2.292   1.094   6.459
 4006WAT     H212261   2.329   0.989   6.579
 4007WAT      O12262   3.115   7.901   0.089
 4007WAT     H112263   3.048   7.945   0.029
 4007WAT     H212264   3.207   7.912   0.050
 4008WAT      O12265   2.916   4.955   4.215
 4008WAT     H112266   3.007   4.939   4.253
 4008WAT     H212267   2.890   5.051   4.231
 4009WAT      O12268   0.128   2.384   6.361
 4009WAT     H112269   0.154   2.381   6.457
 4009WAT     H212270   0.183   2.453   6.314
 4010WAT      O12271   9.081   0.146   6.198
 4010WAT     H112272   9.122   0.119   6.111
 4010WAT     H212273   9.148   0.196   6.253
 4011WAT      O12274   0.490   3.372   8.577
 4011WAT     H112275   0.393   3.387   8.555
 4011WAT     H212276   0.533   3.320   8.504
 4012WAT      O12277   3.452   7.995   3.379
 4012WAT     H112278   3.405   7.963   3.462
 4012WAT     H212279   3.479   8.091   3.391
 4013WAT      O12280   3.377   3.348   5.039
 4013WAT     H112281   3.400   3.251   5.043
 4013WAT     H212282   3.295   3.361   4.984
 4014WAT      O12283   0.982   7.864   8.001
 4014WAT     H112284   0.964   7.954   7.962
 4014WAT     H212285   0.904   7.836   8.057
 4015WAT      O12286   7.742   6.128   7.954
 4015WAT     H112287   7.832   6.118   7.996
 4015WAT     H212288   7.679   6.060   7.992
 4016WAT      O12289   9.811   3.085   5.287
 4016WAT     H112290   9.738   3.153   5.278
 4016WAT     H212291   9.821   3.059   5.383
 4017WAT      O12292   0.188   6.210   7.743
 4017WAT     H112293   0.170   6.271   7.666
 4017WAT     H212294   0.116   6.220   7.811
 4018WAT      O12295   3.891   5.991   8.083
 4018WAT     H112296   3.808   6.048   8.078
 4018WAT     H212297   3.971   6.050   8.077
 4019WAT      O12298   7.383   6.310   6.941
 4019WAT     H112299   7.381   6.235   7.008
 4019WAT     H212300   7.370   6.397   6.989
 4020WAT      O12301   6.084   8.054   1.243
 4020WAT     H112302   6.136   7.972   1.267
 4020WAT     H212303   6.108   8.128   1.305
 4021WAT      O12304   3.757   5.130   0.890
 4021WAT     H112305   3.730   5.096   0.800
 4021WAT     H212306   3.797   5.056   0.944
 4022WAT      O12307   4.525   5.439   8.033
 4022WAT     H112308   4.492   5.474   7.945
 4022WAT     H212309   4.466   5.473   8.106
 4023WAT      O12310   7.338   7.716   6.722
 4023WAT     H112311   7.271   7.789   6.707
 4023WAT     H212312   7.423   7.755   6.757
 4024WAT      O12313   1.793   6.162   4.759
 4024WAT     H112314   1.864   6.232   4.761
 4024WAT     H212315   1.827   6.078   4.801
 4025WAT      O12316   3.125   7.684   0.465
 4025WAT     H112317   3.164   7.643   0.547
 4025WAT     H212318   3.173   7.650   0.384
 4026WAT      O12319   7.918   8.502   6.602
 4026WAT     H112320   8.016   8.485   6.607
 4026WAT     H212321   7.896   8.552   6.519
 4027WAT      O12322   4.528   3.754   2.987
 4027WAT     H112323   4.610   3.707   2.956
 4027WAT     H212324   4.514   3.836   2.932
 4028WAT      O12325   6.249   6.435   9.146
 4028WAT     H112326   6.339   6.394   9.160
 4028WAT     H212327   6.197   6.431   9.231
 4029WAT      O12328   1.183   8.317   3.163
 4029WAT     H112329   1.242   8.394   3.138
 4029WAT     H212330   1.230   8.260   3.230
 4030WAT      O12331   4.298   5.332   5.521
 4030WAT     H112332   4.373   5.382   5.479
 4030WAT     H212333   4.334   5.256   5.575
 4031WAT      O12334   0.821   7.893   0.292
 4031WAT     H112335   0.797   7.877   0.388
 4031WAT     H212336   0.824   7.991   0.274
 4032WAT      O12337   2.510   7.133   6.846
 4032WAT     H112338   2.609   7.133   6.835
 4032WAT     H212339   2.479   7.041   6.874
 4033WAT      O12340   7.370   5.920   5.156
 4033WAT     H112341   7.414   5.886   5.073
 4033WAT     H212342   7.438   5.925   5.230
 4034WAT      O12343   8.719   6.490   5.719
 4034WAT     H112344   8.622   6.512   5.709
 4034WAT     H212345   8.746   6.425   5.648
 4035WAT      O12346   0.482   4.449   3.692
 4035WAT     H112347   0.497   4.548   3.693
 4035WAT     H212348   0.457   4.420   3.600
 4036WAT      O12349   2.222   9.536   7.745
 4036WAT     H112350   2.252   9.444   7.717
 4036WAT     H212351   2.122   9.542   7.736
 4037WAT      O12352   9.518   8.003   3.878
 4037WAT     H112353   9.534   8.070   3.805
 4037WAT     H212354   9.605   7.958   3.901
 4038WAT      O12355   7.660   4.650   9.764
 4038WAT     H112356   7.732   4.594   9.802
 4038WAT     H212357   7.573   4.601   9.769
 4039WAT      O12358   6.594   4.698   7.997
 4039WAT     H112359   6.660   4.662   7.931
 4039WAT     H212360   6.640   4.765   8.056
 4040WAT      O12361   7.097   5.141   1.161
 4040WAT     H112362   7.115   5.232   1.123
 4040WAT     H212363   7.006   5.140   1.203
 4041WAT      O12364   7.301   5.688   8.929
 4041WAT     H112365   7.281   5.772   8.878
 4041WAT     H212366   7.324   5.615   8.866
 4042WAT      O12367   1.985   1.837   4.888
 4042WAT     H112368   1.954   1.931   4.877
 4042WAT     H212369   2.084   1.833   4.875
 4043WAT      O12370   2.076   4.504   9.795
 4043WAT     H112371   1.982   4.518   9.827
 4043WAT     H212372   2.116   4.424   9.841
 4044WAT      O12373   5.432   7.665   0.596
 4044WAT     H112374   5.516   7.715   0.577
 4044WAT     H212375   5.415   7.600   0.522
 4045WAT      O12376   5.624   6.486   5.068
 4045WAT     H112377   5.691   6.430   5.022
 4045WAT     H212378   5.532   6.449   5.051
 4046WAT      O12379   4.969   1.165   1.201
 4046WAT     H112380   4.954   1.220   1.284
 4046WAT     H212381   5.025   1.217   1.137
 4047WAT      O12382   5.102   5.449   9.506
 4047WAT     H112383   5.072   5.359   9.476
 4047WAT     H212384   5.128   5.445   9.602
 4048WAT      O12385   9.277   2.652   1.106
 4048WAT     H112386   9.348   2.587   1.133
 4048WAT     H212387   9.224   2.679   1.186
 4049WAT      O12388   5.842   0.580   3.288
 4049WAT     H112389   5.778   0.561   3.214
 4049WAT     H212390   5.933   0.548   3.262
 4050WAT      O12391   8.568   0.868   2.809
 4050WAT     H112392   8.615   0.942   2.857
 4050WAT     H212393   8.472   0.867   2.836
 4051WAT      O12394   0.233   1.429   9.079
 4051WAT     H112395   0.298   1.416   9.004
 4051WAT     H212396   0.147   1.466   9.043
 4052WAT      O12397   2.206   4.411   9.562
 4052WAT     H112398   2.150   4.366   9.492
 4052WAT     H212399   2.147   4.441   9.636
 4053WAT      O12400   2.696   3.627   7.101
 4053WAT     H112401   2.661   3.675   7.021
 4053WAT     H212402   2.621   3.600   7.160
 4054WAT      O12403   1.796   1.337   8.529
 4054WAT     H112404   1.703   1.343   8.495
 4054WAT     H212405   1.861   1.339   8.453
 4055WAT      O12406   5.416   4.143   5.421
 4055WAT     H112407   5.443   4.049   5.400
 4055WAT     H212408   5.385   4.148   5.516
 4056WAT      O12409   5.621   9.626   2.125
 4056WAT     H112410   5.558   9.654   2.053
 4056WAT     H212411   5.692   9.566   2.087
 4057WAT      O12412   9.106   8.248   1.078
 4057WAT     H112413   9.163   8.292   1.147
 4057WAT     H212414   9.123   8.290   0.989
 4058WAT      O12415   8.548   9.709   5.545
 4058WAT     H112416   8.475   9.742   5.486
 4058WAT     H212417   8.533   9.743   5.638
 4059WAT      O12418   5.708   7.650   6.445
 4059WAT     H112419   5.615   7.633   6.415
 4059WAT     H212420   5.725   7.601   6.531
 4060WAT      O12421   4.305   6.201   2.680
 4060WAT     H112422   4.239   6.135   2.715
 4060WAT     H212423   4.293   6.288   2.726
 4061WAT      O12424   6.363   2.842   1.338
 4061WAT     H112425   6.434   2.792   1.288
 4061WAT     H212426   6.399   2.873   1.425
 4062WAT      O12427   1.137   4.590   9.622
 4062WAT     H112428   1.052   4.545   9.593
 4062WAT     H212429   1.211   4.523   9.625
 4063WAT      O12430   7.539   6.427   5.869
 4063WAT     H112431   7.526   6.473   5.781
 4063WAT     H212432   7.481   6.470   5.938
 4064WAT      O12433   7.749   3.926   9.051
 4064WAT     H112434   7.662   3.877   9.059
 4064WAT     H212435   7.735   4.008   8.996
 4065WAT      O12436   6.280   0.038   6.983
 4065WAT     H112437   6.261  -0.011   6.898
 4065WAT     H212438   6.295   0.135   6.963
 4066WAT      O12439   2.717   4.556   5.018
 4066WAT     H112440   2.711   4.656   5.023
 4066WAT     H212441   2.741   4.528   4.925
 4067WAT      O12442   0.391   6.392   1.397
 4067WAT     H112443   0.388   6.424   1.491
 4067WAT     H212444   0.339   6.307   1.389
 4068WAT      O12445   6.178   3.808   9.774
 4068WAT     H112446   6.170   3.880   9.843
 4068WAT     H212447   6.193   3.720   9.820
 4069WAT      O12448   5.805   6.201   2.454
 4069WAT     H112449   5.858   6.148   2.387
 4069WAT     H212450   5.712   6.165   2.458
 4070WAT      O12451   0.621   8.599   3.584
 4070WAT     H112452   0.719   8.578   3.591
 4070WAT     H212453   0.602   8.636   3.493
 4071WAT      O12454   1.698   5.613   8.101
 4071WAT     H112455   1.789   5.620   8.141
 4071WAT     H212456   1.704   5.566   8.013
 4072WAT      O12457   8.462   9.399   0.475
 4072WAT     H112458   8.434   9.313   0.434
 4072WAT     H212459   8.554   9.390   0.514
 4073WAT      O12460   4.034   8.389   8.237
 4073WAT     H112461   3.941   8.420   8.257
 4073WAT     H212462   4.063   8.429   8.150
 4074WAT      O12463   1.155   9.010   0.649
 4074WAT     H112464   1.153   8.975   0.556
 4074WAT     H212465   1.110   8.944   0.710
 4075WAT      O12466   2.110   1.190   3.045
 4075WAT     H112467   2.186   1.152   3.098
 4075WAT     H212468   2.077   1.274   3.088
 4076WAT      O12469   9.002   5.066   0.237
 4076WAT     H112470   9.096   5.061   0.269
 4076WAT     H212471   8.998   5.048   0.139
 4077WAT      O12472   0.405   5.876   2.885
 4077WAT     H112473   0.415   5.947   2.954
 4077WAT     H212474   0.397   5.917   2.795
 4078WAT      O12475   1.891   3.203   9.713
 4078WAT     H112476   1.791   3.198   9.707
 4078WAT     H212477   1.930   3.201   9.622
 4079WAT      O12478   4.882   0.541   9.101
 4079WAT     H112479   4.919   0.515   9.012
 4079WAT     H212480   4.799   0.596   9.088
 4080WAT      O12481   5.447   9.618   5.204
 4080WAT     H112482   5.352   9.646   5.221
 4080WAT     H212483   5.498   9.621   5.289
 4081WAT      O12484   9.469   7.213   2.404
 4081WAT     H112485   9.518   7.286   2.451
 4081WAT     H212486   9.379   7.200   2.446
 4082WAT      O12487   2.673   6.068   9.652
 4082WAT     H112488   2.584   6.109   9.632
 4082WAT     H212489   2.690   5.991   9.590
 4083WAT      O12490   1.651   3.708   8.328
 4083WAT     H112491   1.691   3.735   8.241
 4083WAT     H212492   1.589   3.630   8.313
 4084WAT      O12493   8.699   3.866   0.761
 4084WAT     H112494   8.711   3.777   0.717
 4084WAT     H212495   8.646   3.855   0.845
 4085WAT      O12496   4.147   4.006   1.303
 4085WAT     H112497   4.166   4.056   1.219
 4085WAT     H212498   4.063   4.042   1.346
 4086WAT      O12499   8.715   4.708   3.966
 4086WAT     H112500   8.793   4.770   3.969
 4086WAT     H212501   8.729   4.634   4.031
 4087WAT      O12502   6.962   7.787   8.735
 4087WAT     H112503   6.879   7.822   8.778
 4087WAT     H212504   7.008   7.724   8.798
 4088WAT      O12505   0.340   8.321   4.462
 4088WAT     H112506   0.311   8.347   4.555
 4088WAT     H212507   0.440   8.319   4.458
 4089WAT      O12508   2.925   3.004   7.747
 4089WAT     H112509   3.015   3.047   7.734
 4089WAT     H212510   2.856   3.075   7.758
 4090WAT      O12511   2.998   6.203   4.605
 4090WAT     H112512   2.951   6.234   4.522
 4090WAT     H212513   2.931   6.176   4.673
 4091WAT      O12514   5.718   2.693   0.449
 4091WAT     H112515   5.782   2.743   0.391
 4091WAT     H212516   5.647   2.652   0.392
 4092WAT      O12517   7.771   6.829   5.684
 4092WAT     H112518   7.841   6.794   5.622
 4092WAT     H212519   7.759   6.767   5.761
 4093WAT      O12520   3.035   9.419   4.427
 4093WAT     H112521   3.105   9.403   4.357
 4093WAT     H212522   3.045   9.350   4.499
 4094WAT      O12523   2.444   4.849   5.783
 4094WAT     H112524   2.418   4.913   5.856
 4094WAT     H212525   2.388   4.766   5.791
 4095WAT      O12526   3.581   5.810   9.775
 4095WAT     H112527   3.498   5.809   9.831
 4095WAT     H212528   3.570   5.875   9.700
 4096WAT      O12529   3.517   0.356   4.276
 4096WAT     H112530   3.557   0.357   4.184
 4096WAT     H212531   3.538   0.443   4.322
 4097WAT      O12532   1.176   6.299   3.864
 4097WAT     H112533   1.238   6.366   3.821
 4097WAT     H212534   1.083   6.336   3.865
 4098WAT      O12535   3.113   5.109   0.232
 4098WAT     H112536   3.038   5.059   0.276
 4098WAT     H212537   3.183   5.045   0.201
 4099WAT      O12538   1.470   1.674   9.050
 4099WAT     H112539   1.570   1.683   9.048
 4099WAT     H212540   1.446   1.587   9.093
 4100WAT      O12541   7.862   2.121   4.316
 4100WAT     H112542   7.943   2.171   4.285
 4100WAT     H212543   7.890   2.039   4.365
 4101WAT      O12544   8.403   7.534   9.427
 4101WAT     H112545   8.343   7.464   9.389
 4101WAT     H212546   8.411   7.610   9.362
 4102WAT      O12547   1.542   4.119   1.222
 4102WAT     H112548   1.619   4.175   1.251
 4102WAT     H212549   1.575   4.026   1.201
 4103WAT      O12550   9.177   9.102   4.094
 4103WAT     H112551   9.189   9.083   4.192
 4103WAT     H212552   9.134   9.192   4.083
 4104WAT      O12553   7.772   4.040   4.482
 4104WAT     H112554   7.751   4.055   4.385
 4104WAT     H212555   7.724   4.108   4.537
 4105WAT      O12556   7.933   6.015   2.925
 4105WAT     H112557   7.914   5.936   2.867
 4105WAT     H212558   8.016   5.998   2.979
 4106WAT      O12559   3.610   3.870   3.504
 4106WAT     H112560   3.606   3.781   3.551
 4106WAT     H212561   3.520   3.914   3.509
 4107WAT      O12562   6.737   6.184   9.837
 4107WAT     H112563   6.728   6.149   9.930
 4107WAT     H212564   6.834   6.185   9.811
 4108WAT      O12565   7.044   4.771   5.256
 4108WAT     H112566   6.949   4.740   5.257
 4108WAT     H212567   7.073   4.795   5.348
 4109WAT      O12568   1.999   9.036   3.604
 4109WAT     H112569   1.962   9.087   3.527
 4109WAT     H212570   1.924   9.005   3.663
 4110WAT      O12571   4.294   1.598   7.116
 4110WAT     H112572   4.195   1.592   7.101
 4110WAT     H212573   4.318   1.692   7.141
 4111WAT      O12574   5.529   2.269   5.580
 4111WAT     H112575   5.583   2.185   5.593
 4111WAT     H212576   5.433   2.245   5.563
 4112WAT      O12577   8.272   9.745   6.118
 4112WAT     H112578   8.221   9.775   6.198
 4112WAT     H212579   8.349   9.806   6.102
 4113WAT      O12580   8.399   3.973   3.975
 4113WAT     H112581   8.472   4.007   3.914
 4113WAT     H212582   8.311   4.009   3.944
 4114WAT      O12583   4.262   7.934   7.667
 4114WAT     H112584   4.196   7.882   7.613
 4114WAT     H212585   4.341   7.957   7.610
 4115WAT      O12586   9.593   4.308   6.897
 4115WAT     H112587   9.659   4.372   6.859
 4115WAT     H212588   9.505   4.317   6.850
 4116WAT      O12589   9.893   6.451   1.257
 4116WAT     H112590   9.867   6.514   1.331
 4116WAT     H212591   9.831   6.372   1.258
 4117WAT      O12592   4.954   3.344   9.731
 4117WAT     H112593   4.951   3.260   9.786
 4117WAT     H212594   5.004   3.414   9.781
 4118WAT      O12595   8.760   1.618   3.041
 4118WAT     H112596   8.680   1.562   3.022
 4118WAT     H212597   8.805   1.584   3.123
 4119WAT      O12598   2.372   6.151   0.316
 4119WAT     H112599   2.374   6.153   0.416
 4119WAT     H212600   2.284   6.116   0.285
 4120WAT      O12601   1.722   6.147   9.448
 4120WAT     H112602   1.780   6.097   9.383
 4120WAT     H212603   1.627   6.139   9.421
 4121WAT      O12604   9.384   5.545   3.885
 4121WAT     H112605   9.426   5.513   3.970
 4121WAT     H212606   9.285   5.534   3.890
 4122WAT      O12607   9.747   6.560   3.205
 4122WAT     H112608   9.672   6.608   3.251
 4122WAT     H212609   9.834   6.596   3.237
 4123WAT      O12610   3.011   8.319   2.547
 4123WAT     H112611   2.978   8.242   2.492
 4123WAT     H212612   2.950   8.334   2.624
 4124WAT      O12613   4.397   6.388   2.448
 4124WAT     H112614   4.477   6.435   2.485
 4124WAT     H212615   4.362   6.323   2.515
 4125WAT      O12616   6.806   6.118   3.012
 4125WAT     H112617   6.835   6.065   3.092
 4125WAT     H212618   6.770   6.207   3.042
 4126WAT      O12619   5.566   2.258   0.069
 4126WAT     H112620   5.511   2.237   0.150
 4126WAT     H212621   5.544   2.351   0.037
 4127WAT      O12622   9.392   1.044   2.516
 4127WAT     H112623   9.456   1.009   2.584
 4127WAT     H212624   9.438   1.051   2.428
 4128WAT      O12625   0.744   9.438   8.980
 4128WAT     H112626   0.733   9.355   9.034
 4128WAT     H212627   0.682   9.509   9.014
 4129WAT      O12628   5.925   2.846   7.000
 4129WAT     H112629   5.879   2.777   7.056
 4129WAT     H212630   5.857   2.892   6.943
 4130WAT      O12631   9.549   8.996   0.825
 4130WAT     H112632   9.531   9.089   0.792
 4130WAT     H212633   9.546   8.932   0.749
 4131WAT      O12634   4.991   7.693   9.501
 4131WAT     H112635   5.069   7.755   9.499
 4131WAT     H212636   4.907   7.745   9.485
 4132WAT      O12637   4.533   1.135   7.654
 4132WAT     H112638   4.583   1.050   7.637
 4132WAT     H212639   4.597   1.212   7.652
 4133WAT      O12640   9.066   5.914   3.815
 4133WAT     H112641   9.153   5.868   3.800
 4133WAT     H212642   9.029   5.888   3.905
 4134WAT      O12643   3.752   0.397   8.334
 4134WAT     H112644   3.760   0.312   8.386
 4134WAT     H212645   3.734   0.376   8.238
 4135WAT      O12646   3.041   4.123   4.046
 4135WAT     H112647   3.130   4.136   4.089
 4135WAT     H212648   2.991   4.049   4.093
 4136WAT      O12649   8.688   5.923   9.562
 4136WAT     H112650   8.618   5.897   9.629
 4136WAT     H212651   8.756   5.850   9.556
 4137WAT      O12652   9.488   4.178   1.962
 4137WAT     H112653   9.413   4.234   1.998
 4137WAT     H212654   9.487   4.182   1.862
 4138WAT      O12655   4.470   9.149   6.813
 4138WAT     H112656   4.515   9.215   6.753
 4138WAT     H212657   4.372   9.151   6.797
 4139WAT      O12658   8.986   4.940   4.690
 4139WAT     H112659   8.985   4.851   4.644
 4139WAT     H212660   9.048   4.936   4.769
 4140WAT      O12661   3.858   6.157   8.374
 4140WAT     H112662   3.917   6.171   8.295
 4140WAT     H212663   3.858   6.061   8.400
 4141WAT      O12664   8.570   5.232   0.086
 4141WAT     H112665   8.613   5.223  -0.003
 4141WAT     H212666   8.583   5.148   0.139
 4142WAT      O12667   5.771   3.459   7.594
 4142WAT     H112668   5.694   3.520   7.574
 4142WAT     H212669   5.739   3.364   7.590
 4143WAT      O12670   5.099   3.576   5.803
 4143WAT     H112671   5.139   3.541   5.888
 4143WAT     H212672   5.103   3.676   5.804
 4144WAT      O12673   1.380   5.518   2.725
 4144WAT     H112674   1.284   5.519   2.698
 4144WAT     H212675   1.403   5.428   2.762
 4145WAT      O12676   2.889   7.809   6.563
 4145WAT     H112677   2.846   7.749   6.631
 4145WAT     H212678   2.826   7.825   6.487
 4146WAT      O12679   5.350   1.040   9.554
 4146WAT     H112680   5.438   1.045   9.506
 4146WAT     H212681   5.307   0.952   9.535
 4147WAT      O12682   1.840   1.298   7.123
 4147WAT     H112683   1.819   1.241   7.043
 4147WAT     H212684   1.932   1.276   7.156
 4148WAT      O12685   3.873   3.562   6.386
 4148WAT     H112686   3.893   3.550   6.289
 4148WAT     H212687   3.861   3.659   6.407
 4149WAT      O12688   0.168   6.031   9.480
 4149WAT     H112689   0.232   6.075   9.543
 4149WAT     H212690   0.074   6.046   9.512
 4150WAT      O12691   3.498   0.256   6.195
 4150WAT     H112692   3.522   0.202   6.276
 4150WAT     H212693   3.406   0.295   6.207
 4151WAT      O12694   2.872   9.024   3.679
 4151WAT     H112695   2.912   8.969   3.752
 4151WAT     H212696   2.812   9.093   3.719
 4152WAT      O12697   2.485   9.142   1.471
 4152WAT     H112698   2.579   9.112   1.488
 4152WAT     H212699   2.473   9.158   1.373
 4153WAT      O12700   8.977   5.370   2.333
 4153WAT     H112701   8.983   5.459   2.378
 4153WAT     H212702   8.938   5.381   2.242
 4154WAT      O12703   5.327   7.659   9.123
 4154WAT     H112704   5.376   7.703   9.048
 4154WAT     H212705   5.383   7.586   9.162
 4155WAT      O12706   9.741   5.896   6.625
 4155WAT     H112707   9.810   5.850   6.679
 4155WAT     H212708   9.679   5.828   6.584
 4156WAT      O12709   5.722   8.131   6.948
 4156WAT     H112710   5.747   8.049   6.999
 4156WAT     H212711   5.632   8.118   6.905
 4157WAT      O12712   2.508   6.183   4.232
 4157WAT     H112713   2.425   6.198   4.178
 4157WAT     H212714   2.587   6.177   4.171
 4158WAT      O12715   0.170   5.427   4.898
 4158WAT     H112716   0.140   5.438   4.803
 4158WAT     H212717   0.158   5.514   4.946
 4159WAT      O12718   8.812   4.970   9.057
 4159WAT     H112719   8.765   5.012   9.134
 4159WAT     H212720   8.747   4.954   8.983
 4160WAT      O12721   7.415   2.905   5.509
 4160WAT     H112722   7.460   2.994   5.498
 4160WAT     H212723   7.322   2.911   5.474
 4161WAT      O12724   4.227   5.476   4.763
 4161WAT     H112725   4.242   5.402   4.697
 4161WAT     H212726   4.303   5.477   4.829
 4162WAT      O12727   6.925   6.337   6.217
 4162WAT     H112728   6.926   6.397   6.297
 4162WAT     H212729   6.891   6.247   6.243
 4163WAT      O12730   7.796   7.602   7.762
 4163WAT     H112731   7.857   7.576   7.836
 4163WAT     H212732   7.753   7.691   7.783
 4164WAT      O12733   6.589   5.474   0.748
 4164WAT     H112734   6.572   5.398   0.811
 4164WAT     H212735   6.502   5.520   0.727
 4165WAT      O12736   8.695   4.769   8.860
 4165WAT     H112737   8.722   4.680   8.896
 4165WAT     H212738   8.666   4.760   8.765
 4166WAT      O12739   6.910   0.843   1.426
 4166WAT     H112740   6.974   0.783   1.377
 4166WAT     H212741   6.817   0.806   1.418
 4167WAT      O12742   5.980   8.782   6.393
 4167WAT     H112743   6.021   8.872   6.409
 4167WAT     H212744   6.028   8.713   6.448
 4168WAT      O12745   9.565   6.257   3.784
 4168WAT     H112746   9.559   6.321   3.707
 4168WAT     H212747   9.661   6.235   3.801
 4169WAT      O12748   4.576   1.927   7.841
 4169WAT     H112749   4.536   2.017   7.828
 4169WAT     H212750   4.647   1.932   7.912
 4170WAT      O12751   1.929   5.045   6.683
 4170WAT     H112752   2.005   4.980   6.685
 4170WAT     H212753   1.847   5.000   6.650
 4171WAT      O12754   0.606   8.476   6.445
 4171WAT     H112755   0.663   8.448   6.522
 4171WAT     H212756   0.633   8.425   6.363
 4172WAT      O12757   8.223   2.265   2.704
 4172WAT     H112758   8.198   2.313   2.619
 4172WAT     H212759   8.163   2.295   2.778
 4173WAT      O12760   6.801   9.150   4.245
 4173WAT     H112761   6.822   9.058   4.215
 4173WAT     H212762   6.882   9.208   4.236
 4174WAT      O12763   6.750   4.647   7.258
 4174WAT     H112764   6.657   4.639   7.294
 4174WAT     H212765   6.793   4.557   7.257
 4175WAT      O12766   4.168   5.728   5.382
 4175WAT     H112767   4.117   5.669   5.319
 4175WAT     H212768   4.236   5.780   5.331
 4176WAT      O12769   8.120   8.348   9.211
 4176WAT     H112770   8.154   8.391   9.295
 4176WAT     H212771   8.029   8.310   9.228
 4177WAT      O12772   2.738   1.496   5.209
 4177WAT     H112773   2.827   1.518   5.168
 4177WAT     H212774   2.740   1.404   5.247
 4178WAT      O12775   0.088   5.565   5.989
 4178WAT     H112776   0.035   5.590   6.070
 4178WAT     H212777   0.028   5.520   5.923
 4179WAT      O12778   9.430   4.963   2.283
 4179WAT     H112779   9.330   4.952   2.278
 4179WAT     H212780   9.469   4.886   2.334
 4180WAT      O12781   8.578   7.145   6.171
 4180WAT     H112782   8.537   7.233   6.147
 4180WAT     H212783   8.650   7.122   6.105
 4181WAT      O12784   0.116   6.736   4.813
 4181WAT     H112785   0.159   6.824   4.794
 4181WAT     H212786   0.182   6.663   4.797
 4182WAT      O12787   4.538   8.792   7.470
 4182WAT     H112788   4.570   8.838   7.553
 4182WAT     H212789   4.586   8.830   7.391
 4183WAT      O12790   2.536   6.299   0.173
 4183WAT     H112791   2.487   6.240   0.237
 4183WAT     H212792   2.489   6.300   0.085
 4184WAT      O12793   9.581   9.241   7.264
 4184WAT     H112794   9.622   9.185   7.336
 4184WAT     H212795   9.610   9.336   7.274
 4185WAT      O12796   1.927   6.490   3.036
 4185WAT     H112797   1.920   6.450   2.945
 4185WAT     H212798   1.838   6.527   3.063
 4186WAT      O12799   6.978   2.399   2.984
 4186WAT     H112800   6.955   2.466   3.054
 4186WAT     H212801   6.896   2.377   2.931
 4187WAT      O12802   5.268   2.404   5.808
 4187WAT     H112803   5.228   2.464   5.738
 4187WAT     H212804   5.364   2.387   5.787
 4188WAT      O12805   2.849   7.407   9.604
 4188WAT     H112806   2.898   7.322   9.581
 4188WAT     H212807   2.751   7.393   9.590
 4189WAT      O12808   1.861   9.707   8.744
 4189WAT     H112809   1.887   9.654   8.663
 4189WAT     H212810   1.940   9.719   8.803
 4190WAT      O12811   1.136   8.004   1.316
 4190WAT     H112812   1.116   8.083   1.259
 4190WAT     H212813   1.220   8.020   1.367
 4191WAT      O12814   8.971   5.793   7.840
 4191WAT     H112815   8.935   5.777   7.748
 4191WAT     H212816   9.065   5.760   7.845
 4192WAT      O12817   4.094   0.940   3.961
 4192WAT     H112818   4.182   0.961   3.918
 4192WAT     H212819   4.104   0.941   4.060
 4193WAT      O12820   8.487   9.801   5.796
 4193WAT     H112821   8.445   9.722   5.841
 4193WAT     H212822   8.543   9.851   5.861
 4194WAT      O12823   5.989   7.050   3.022
 4194WAT     H112824   5.923   7.021   2.953
 4194WAT     H212825   6.075   7.000   3.009
 4195WAT      O12826   3.308   5.076   7.092
 4195WAT     H112827   3.293   5.055   6.996
 4195WAT     H212828   3.387   5.136   7.101
 4196WAT      O12829   2.481   0.447   3.647
 4196WAT     H112830   2.517   0.454   3.740
 4196WAT     H212831   2.498   0.355   3.612
 4197WAT      O12832   1.213   6.065   9.724
 4197WAT     H112833   1.163   5.988   9.763
 4197WAT     H212834   1.251   6.121   9.798
 4198WAT      O12835   2.748   1.721   0.735
 4198WAT     H112836   2.846   1.720   0.756
 4198WAT     H212837   2.697   1.683   0.812
 4199WAT      O12838   5.438   6.071   7.378
 4199WAT     H112839   5.436   6.078   7.477
 4199WAT     H212840   5.486   6.151   7.339
 4200WAT      O12841   9.398   7.992   6.677
 4200WAT     H112842   9.428   7.954   6.765
 4200WAT     H212843   9.323   7.936   6.640
 4201WAT      O12844   0.059   2.561   3.246
 4201WAT     H112845   0.082   2.521   3.157
 4201WAT     H212846   0.099   2.652   3.253
 4202WAT      O12847   4.139   7.825   8.854
 4202WAT     H112848   4.156   7.741   8.905
 4202WAT     H212849   4.174   7.815   8.761
 4203WAT      O12850   9.115   5.807   5.937
 4203WAT     H112851   9.158   5.815   6.027
 4203WAT     H212852   9.176   5.760   5.874
 4204WAT      O12853   3.084   1.928   7.058
 4204WAT     H112854   3.055   1.834   7.038
 4204WAT     H212855   3.157   1.955   6.994
 4205WAT      O12856   8.335   5.882   0.279
 4205WAT     H112857   8.302   5.946   0.348
 4205WAT     H212858   8.361   5.796   0.324
 4206WAT      O12859   4.074   4.617   3.308
 4206WAT     H112860   4.086   4.640   3.405
 4206WAT     H212861   4.054   4.700   3.256
 4207WAT      O12862   0.462   7.519   7.858
 4207WAT     H112863   0.367   7.522   7.888
 4207WAT     H212864   0.502   7.430   7.882
 4208WAT      O12865   9.384   2.961   2.699
 4208WAT     H112866   9.463   3.008   2.659
 4208WAT     H212867   9.318   3.029   2.732
 4209WAT      O12868   4.080   7.246   4.571
 4209WAT     H112869   4.131   7.323   4.609
 4209WAT     H212870   4.009   7.280   4.509
 4210WAT      O12871   5.658   3.860   9.699
 4210WAT     H112872   5.622   3.952   9.714
 4210WAT     H212873   5.754   3.865   9.671
 4211WAT      O12874   0.085   0.497   9.392
 4211WAT     H112875   0.093   0.401   9.419
 4211WAT     H212876   0.005   0.508   9.334
 4212WAT      O12877   1.896   4.629   6.688
 4212WAT     H112878   1.941   4.662   6.771
 4212WAT     H212879   1.820   4.569   6.713
 4213WAT      O12880   2.694   6.715   6.354
 4213WAT     H112881   2.784   6.680   6.382
 4213WAT     H212882   2.671   6.679   6.264
 4214WAT      O12883   5.489   9.608   4.909
 4214WAT     H112884   5.485   9.610   5.009
 4214WAT     H212885   5.528   9.694   4.876
 4215WAT      O12886   6.566   7.822   0.861
 4215WAT     H112887   6.521   7.734   0.876
 4215WAT     H212888   6.665   7.808   0.853
 4216WAT      O12889   1.368   9.831   0.272
 4216WAT     H112890   1.351   9.807   0.176
 4216WAT     H212891   1.320   9.768   0.332
 4217WAT      O12892   4.850   8.445   6.922
 4217WAT     H112893   4.805   8.466   6.835
 4217WAT     H212894   4.933   8.501   6.931
 4218WAT      O12895   6.357   5.966   1.325
 4218WAT     H112896   6.259   5.968   1.308
 4218WAT     H212897   6.404   5.936   1.242
 4219WAT      O12898   4.645   2.361   6.128
 4219WAT     H112899   4.689   2.286   6.178
 4219WAT     H212900   4.606   2.426   6.193
 4220WAT      O12901   9.636   1.009   3.126
 4220WAT     H112902   9.585   1.058   3.197
 4220WAT     H212903   9.659   1.071   3.052
 4221WAT      O12904   5.825   2.329   5.657
 4221WAT     H112905   5.750   2.393   5.638
 4221WAT     H212906   5.826   2.258   5.586
 4222WAT      O12907   9.707   0.134   0.854
 4222WAT     H112908   9.613   0.106   0.874
 4222WAT     H212909   9.709   0.232   0.833
 4223WAT      O12910   4.316   5.396   2.874
 4223WAT     H112911   4.412   5.402   2.902
 4223WAT     H212912   4.275   5.488   2.875
 4224WAT      O12913   5.422   4.313   2.418
 4224WAT     H112914   5.352   4.380   2.440
 4224WAT     H212915   5.469   4.340   2.333
 4225WAT      O12916   0.147   9.707   6.314
 4225WAT     H112917   0.182   9.792   6.354
 4225WAT     H212918   0.067   9.677   6.365
 4226WAT      O12919   9.716   4.704   3.226
 4226WAT     H112920   9.691   4.794   3.260
 4226WAT     H212921   9.671   4.688   3.138
 4227WAT      O12922   7.781   2.731   0.059
 4227WAT     H112923   7.688   2.767   0.071
 4227WAT     H212924   7.815   2.698   0.146
 4228WAT      O12925   9.111   7.631   3.066
 4228WAT     H112926   9.060   7.644   3.152
 4228WAT     H212927   9.191   7.691   3.065
 4229WAT      O12928   7.371   8.429   3.163
 4229WAT     H112929   7.306   8.502   3.184
 4229WAT     H212930   7.457   8.469   3.130
 4230WAT      O12931   7.545   0.327   8.049
 4230WAT     H112932   7.598   0.398   8.003
 4230WAT     H212933   7.584   0.238   8.027
 4231WAT      O12934   5.413   5.091   5.933
 4231WAT     H112935   5.433   5.133   6.021
 4231WAT     H212936   5.333   5.031   5.941
 4232WAT      O12937   3.554   9.773   5.997
 4232WAT     H112938   3.639   9.746   5.952
 4232WAT     H212939   3.497   9.824   5.932
 4233WAT      O12940   3.812   7.461   1.653
 4233WAT     H112941   3.722   7.504   1.660
 4233WAT     H212942   3.881   7.532   1.635
 4234WAT      O12943   3.216   0.270   0.981
 4234WAT     H112944   3.261   0.358   0.966
 4234WAT     H212945   3.211   0.250   1.079
 4235WAT      O12946   8.210   8.392   6.302
 4235WAT     H112947   8.186   8.434   6.215
 4235WAT     H212948   8.127   8.354   6.344
 4236WAT      O12949   8.119   3.499   4.776
 4236WAT     H112950   8.128   3.444   4.859
 4236WAT     H212951   8.082   3.441   4.703
 4237WAT      O12952   6.891   3.453   7.305
 4237WAT     H112953   6.808   3.398   7.318
 4237WAT     H212954   6.967   3.410   7.354
 4238WAT      O12955   2.041   8.555   0.591
 4238WAT     H112956   1.946   8.580   0.612
 4238WAT     H212957   2.102   8.599   0.658
 4239WAT      O12958   1.653   2.157   3.859
 4239WAT     H112959   1.591   2.150   3.937
 4239WAT     H212960   1.706   2.242   3.866
 4240WAT      O12961   1.127   1.341   2.346
 4240WAT     H112962   1.040   1.366   2.304
 4240WAT     H212963   1.148   1.246   2.323
 4241WAT      O12964   3.664   6.886   8.556
 4241WAT     H112965   3.738   6.946   8.588
 4241WAT     H212966   3.703   6.803   8.516
 4242WAT      O12967   9.014   1.425   4.692
 4242WAT     H112968   9.009   1.500   4.758
 4242WAT     H212969   8.995   1.460   4.601
 4243WAT      O12970   2.989   0.346   5.125
 4243WAT     H112971   2.991   0.349   5.026
 4243WAT     H212972   2.925   0.414   5.160
 4244WAT      O12973   4.665   0.089   4.430
 4244WAT     H112974   4.585   0.104   4.488
 4244WAT     H212975   4.637   0.042   4.347
 4245WAT      O12976   3.097   1.686   8.492
 4245WAT     H112977   3.140   1.609   8.445
 4245WAT     H212978   3.004   1.660   8.520
 4246WAT      O12979   9.514   5.083   8.969
 4246WAT     H112980   9.521   5.164   8.911
 4246WAT     H212981   9.579   5.090   9.044
 4247WAT      O12982   7.793   9.342   1.467
 4247WAT     H112983   7.779   9.395   1.383
 4247WAT     H212984   7.704   9.320   1.507
 4248WAT      O12985   5.825   2.737   9.548
 4248WAT     H112986   5.900   2.671   9.549
 4248WAT     H212987   5.783   2.742   9.638
 4249WAT      O12988   5.938   1.333   8.481
 4249WAT     H112989   5.865   1.338   8.550
 4249WAT     H212990   6.027   1.327   8.526
 4250WAT      O12991   7.932   1.443   5.946
 4250WAT     H112992   8.026   1.460   5.976
 4250WAT     H212993   7.893   1.528   5.909
 4251WAT      O12994   0.095   8.360   7.867
 4251WAT     H112995   0.079   8.275   7.818
 4251WAT     H212996   0.016   8.420   7.858
 4252WAT      O12997   8.432   0.743   5.356
 4252WAT     H112998   8.492   0.679   5.309
 4252WAT     H212999   8.412   0.821   5.296
 4253WAT      O13000   4.873   3.992   5.031
 4253WAT     H113001   4.830   4.082   5.020
 4253WAT     H213002   4.951   4.000   5.093
 4254WAT      O13003   6.501   3.773   4.283
 4254WAT     H113004   6.496   3.683   4.240
 4254WAT     H213005   6.481   3.764   4.381
 4255WAT      O13006   6.487   8.142   3.511
 4255WAT     H113007   6.495   8.241   3.524
 4255WAT     H213008   6.575   8.106   3.482
 4256WAT      O13009   3.159   0.886   4.109
 4256WAT     H113010   3.225   0.940   4.163
 4256WAT     H213011   3.150   0.926   4.018
 4257WAT      O13012   1.775   9.066   5.293
 4257WAT     H113013   1.685   9.052   5.254
 4257WAT     H213014   1.836   8.991   5.266
 4258WAT      O13015   1.043   6.016   1.855
 4258WAT     H113016   1.126   6.031   1.802
 4258WAT     H213017   0.963   6.038   1.799
 4259WAT      O13018   4.451   5.523   1.087
 4259WAT     H113019   4.521   5.520   1.159
 4259WAT     H213020   4.385   5.449   1.102
 4260WAT      O13021   0.338   2.580   4.773
 4260WAT     H113022   0.242   2.598   4.795
 4260WAT     H213023   0.393   2.661   4.794
 4261WAT      O13024   1.591   6.776   3.876
 4261WAT     H113025   1.613   6.779   3.779
 4261WAT     H213026   1.667   6.817   3.928
 4262WAT      O13027   4.964   8.965   3.624
 4262WAT     H113028   4.895   9.038   3.625
 4262WAT     H213029   4.991   8.946   3.530
 4263WAT      O13030   5.807   9.799   9.036
 4263WAT     H113031   5.859   9.878   9.069
 4263WAT     H213032   5.862   9.750   8.968
 4264WAT      O13033   4.755   0.267   9.030
 4264WAT     H113034   4.661   0.274   8.995
 4264WAT     H213035   4.784   0.355   9.066
 4265WAT      O13036   7.318   4.676   2.663
 4265WAT     H113037   7.347   4.750   2.602
 4265WAT     H213038   7.377   4.675   2.744
 4266WAT      O13039   9.701   2.670   8.561
 4266WAT     H113040   9.800   2.658   8.556
 4266WAT     H213041   9.672   2.670   8.657
 4267WAT      O13042   2.918   8.997   2.279
 4267WAT     H113043   2.833   9.048   2.272
 4267WAT     H213044   2.916   8.920   2.215
 4268WAT      O13045   7.301   0.343   7.892
 4268WAT     H113046   7.395   0.341   7.925
 4268WAT     H213047   7.263   0.434   7.905
 4269WAT      O13048   0.048   1.111   2.959
 4269WAT     H113049   0.026   1.177   2.888
 4269WAT     H213050   0.070   1.159   3.044
 4270WAT      O13051   7.914   4.285   8.732
 4270WAT     H113052   7.966   4.367   8.756
 4270WAT     H213053   7.969   4.204   8.750
 4271WAT      O13054   4.954   9.256   1.957
 4271WAT     H113055   5.029   9.276   2.019
 4271WAT     H213056   4.940   9.333   1.895
 4272WAT      O13057   1.675   3.373   1.291
 4272WAT     H113058   1.620   3.289   1.282
 4272WAT     H213059   1.615   3.452   1.295
 4273WAT      O13060   5.179   8.344   8.749
 4273WAT     H113061   5.093   8.293   8.745
 4273WAT     H213062   5.210   8.364   8.656
 4274WAT      O13063   1.949   2.313   1.007
 4274WAT     H113064   1.854   2.310   1.038
 4274WAT     H213065   1.955   2.369   0.924
 4275WAT      O13066   0.868   1.191   9.290
 4275WAT     H113067   0.900   1.281   9.261
 4275WAT     H213068   0.841   1.138   9.210
 4276WAT      O13069   6.461   7.489   8.317
 4276WAT     H113070   6.487   7.402   8.359
 4276WAT     H213071   6.543   7.536   8.284
 4277WAT      O13072   4.239   2.260   7.659
 4277WAT     H113073   4.185   2.193   7.710
 4277WAT     H213074   4.180   2.308   7.594
 4278WAT      O13075   1.097   6.048   2.122
 4278WAT     H113076   1.184   6.096   2.128
 4278WAT     H213077   1.073   6.032   2.026
 4279WAT      O13078   6.227   0.534   8.109
 4279WAT     H113079   6.279   0.567   8.030
 4279WAT     H213080   6.197   0.440   8.092
 4280WAT      O13081   8.942   1.666   9.611
 4280WAT     H113082   8.959   1.753   9.657
 4280WAT     H213083   8.853   1.630   9.640
 4281WAT      O13084   2.367   8.026   1.460
 4281WAT     H113085   2.342   8.083   1.382
 4281WAT     H213086   2.375   7.931   1.431
 4282WAT      O13087   5.865   1.935   9.723
 4282WAT     H113088   5.950   1.949   9.773
 4282WAT     H213089   5.789   1.923   9.788
 4283WAT      O13090   7.614   5.157   6.789
 4283WAT     H113091   7.657   5.088   6.848
 4283WAT     H213092   7.538   5.115   6.739
 4284WAT      O13093   8.224   6.045   9.499
 4284WAT     H113094   8.278   5.961   9.502
 4284WAT     H213095   8.244   6.094   9.414
 4285WAT      O13096   5.267   5.657   7.680
 4285WAT     H113097   5.313   5.678   7.766
 4285WAT     H213098   5.334   5.624   7.613
 4286WAT      O13099   0.843   0.830   4.451
 4286WAT     H113100   0.902   0.795   4.524
 4286WAT     H213101   0.843   0.930   4.454
 4287WAT      O13102   3.269   2.311   8.137
 4287WAT     H113103   3.247   2.224   8.181
 4287WAT     H213104   3.186   2.366   8.127
 4288WAT      O13105   3.382   4.676   9.181
 4288WAT     H113106   3.481   4.680   9.185
 4288WAT     H213107   3.343   4.719   9.262
 4289WAT      O13108   8.060   8.706   3.617
 4289WAT     H113109   8.030   8.684   3.524
 4289WAT     H213110   8.023   8.795   3.643
 4290WAT      O13111   4.153   0.498   0.255
 4290WAT     H113112   4.241   0.525   0.215
 4290WAT     H213113   4.114   0.576   0.305
 4291WAT      O13114   1.297   0.507   7.371
 4291WAT     H113115   1.277   0.432   7.434
 4291WAT     H213116   1.227   0.509   7.299
 4292WAT      O13117   5.695   9.653   9.227
 4292WAT     H113118   5.759   9.577   9.235
 4292WAT     H213119   5.730   9.719   9.161
 4293WAT      O13120   8.222   9.807   0.664
 4293WAT     H113121   8.133   9.762   0.662
 4293WAT     H213122   8.219   9.884   0.729
 4294WAT      O13123   1.412   9.527   0.456
 4294WAT     H113124   1.370   9.464   0.390
 4294WAT     H213125   1.487   9.481   0.504
 4295WAT      O13126   9.136   4.416   6.958
 4295WAT     H113127   9.222   4.392   6.914
 4295WAT     H213128   9.115   4.512   6.939
 4296WAT      O13129   8.335   9.027   2.109
 4296WAT     H113130   8.351   9.029   2.011
 4296WAT     H213131   8.384   9.104   2.152
 4297WAT      O13132   2.229   0.828   3.876
 4297WAT     H113133   2.161   0.835   3.950
 4297WAT     H213134   2.210   0.746   3.822
 4298WAT      O13135   1.139   9.480   4.546
 4298WAT     H113136   1.091   9.564   4.520
 4298WAT     H213137   1.166   9.430   4.464
 4299WAT      O13138   3.701   1.157   3.862
 4299WAT     H113139   3.763   1.085   3.892
 4299WAT     H213140   3.753   1.233   3.824
 4300WAT      O13141   1.244   8.518   9.547
 4300WAT     H113142   1.317   8.558   9.491
 4300WAT     H213143   1.278   8.502   9.639
 4301WAT      O13144   3.782   5.457   9.581
 4301WAT     H113145   3.788   5.554   9.557
 4301WAT     H213146   3.860   5.408   9.543
 4302WAT      O13147   3.287   7.249   5.509
 4302WAT     H113148   3.276   7.296   5.597
 4302WAT     H213149   3.210   7.187   5.494
 4303WAT      O13150   2.940   0.860   5.124
 4303WAT     H113151   3.028   0.812   5.121
 4303WAT     H213152   2.900   0.849   5.215
 4304WAT      O13153   7.612   4.731   5.946
 4304WAT     H113154   7.706   4.700   5.932
 4304WAT     H213155   7.550   4.652   5.950
 4305WAT      O13156   2.899   0.960   7.876
 4305WAT     H113157   2.937   0.947   7.967
 4305WAT     H213158   2.839   0.883   7.854
 4306WAT      O13159   1.443   7.531   6.125
 4306WAT     H113160   1.364   7.554   6.183
 4306WAT     H213161   1.524   7.522   6.182
 4307WAT      O13162   2.524   7.191   8.277
 4307WAT     H113163   2.465   7.113   8.296
 4307WAT     H213164   2.575   7.174   8.193
 4308WAT      O13165   4.196   5.720   7.230
 4308WAT     H113166   4.230   5.713   7.324
 4308WAT     H213167   4.109   5.671   7.223
 4309WAT      O13168   0.697   6.223   2.929
 4309WAT     H113169   0.757   6.145   2.944
 4309WAT     H213170   0.751   6.301   2.896
 4310WAT      O13171   8.251   3.670   2.475
 4310WAT     H113172   8.240   3.763   2.439
 4310WAT     H213173   8.343   3.660   2.513
 4311WAT      O13174   5.520   5.447   3.378
 4311WAT     H113175   5.470   5.521   3.423
 4311WAT     H213176   5.615   5.445   3.412
 4312WAT      O13177   3.726   2.883   7.144
 4312WAT     H113178   3.673   2.837   7.214
 4312WAT     H213179   3.675   2.883   7.058
 4313WAT      O13180   4.334   6.527   9.346
 4313WAT     H113181   4.252   6.470   9.346
 4313WAT     H213182   4.413   6.473   9.374
 4314WAT      O13183   7.626   6.383   9.065
 4314WAT     H113184   7.584   6.299   9.100
 4314WAT     H213185   7.711   6.401   9.116
 4315WAT      O13186   1.777   4.486   6.448
 4315WAT     H113187   1.686   4.528   6.448
 4315WAT     H213188   1.839   4.540   6.504
 4316WAT      O13189   4.148   5.299   7.509
 4316WAT     H113190   4.246   5.295   7.528
 4316WAT     H213191   4.111   5.206   7.507
 4317WAT      O13192   1.661   9.522   6.303
 4317WAT     H113193   1.617   9.543   6.390
 4317WAT     H213194   1.709   9.435   6.309
 4318WAT      O13195   4.797   5.932   7.271
 4318WAT     H113196   4.708   5.952   7.230
 4318WAT     H213197   4.868   5.987   7.227
 4319WAT      O13198   6.339   8.621   3.192
 4319WAT     H113199   6.337   8.619   3.292
 4319WAT     H213200   6.282   8.547   3.156
 4320WAT      O13201   3.208   0.233   4.630
 4320WAT     H113202   3.157   0.147   4.640
 4320WAT     H213203   3.281   0.220   4.563
 4321WAT      O13204   1.373   2.591   2.546
 4321WAT     H113205   1.469   2.609   2.528
 4321WAT     H213206   1.339   2.657   2.614
 4322WAT      O13207   0.645   7.927   7.360
 4322WAT     H113208   0.677   7.971   7.443
 4322WAT     H213209   0.658   7.828   7.367
 4323WAT      O13210   8.704   4.561   1.720
 4323WAT     H113211   8.660   4.632   1.664
 4323WAT     H213212   8.789   4.596   1.758
 4324WAT      O13213   0.269   3.559   7.924
 4324WAT     H113214   0.204   3.551   7.849
 4324WAT     H213215   0.306   3.652   7.926
 4325WAT      O13216   2.538   1.936   6.780
 4325WAT     H113217   2.562   1.888   6.865
 4325WAT     H213218   2.525   2.033   6.800
 4326WAT      O13219   4.236   1.879   1.028
 4326WAT     H113220   4.267   1.937   1.103
 4326WAT     H213221   4.313   1.859   0.967
 4327WAT      O13222   3.351   3.271   8.591
 4327WAT     H113223   3.426   3.306   8.648
 4327WAT     H213224   3.389   3.210   8.522
 4328WAT      O13225   6.417   6.711   8.069
 4328WAT     H113226   6.375   6.623   8.089
 4328WAT     H213227   6.490   6.729   8.134
 4329WAT      O13228   4.961   9.144   6.250
 4329WAT     H113229   5.021   9.138   6.331
 4329WAT     H213230   4.990   9.076   6.182
 4330WAT      O13231   3.308   5.867   9.022
 4330WAT     H113232   3.407   5.874   9.007
 4330WAT     H213233   3.261   5.861   8.934
 4331WAT      O13234   6.015   9.272   6.177
 4331WAT     H113235   6.100   9.318   6.154
 4331WAT     H213236   5.939   9.337   6.173
 4332WAT      O13237   7.445   2.129   1.896
 4332WAT     H113238   7.425   2.036   1.927
 4332WAT     H213239   7.445   2.132   1.796
 4333WAT      O13240   3.549   4.895   9.805
 4333WAT     H113241   3.608   4.934   9.734
 4333WAT     H213242   3.517   4.805   9.776
 4334WAT      O13243   6.837   6.764   0.674
 4334WAT     H113244   6.883   6.758   0.585
 4334WAT     H213245   6.739   6.775   0.660
 4335WAT      O13246   7.847   5.659   5.929
 4335WAT     H113247   7.893   5.698   5.849
 4335WAT     H213248   7.798   5.732   5.977
 4336WAT      O13249   0.153   7.299   6.098
 4336WAT     H113250   0.198   7.223   6.145
 4336WAT     H213251   0.068   7.266   6.057
 4337WAT      O13252   0.193   4.349   1.210
 4337WAT     H113253   0.147   4.319   1.126
 4337WAT     H213254   0.290   4.367   1.189
 4338WAT      O13255   8.930   2.520   3.467
 4338WAT     H113256   8.875   2.510   3.550
 4338WAT     H213257   9.022   2.484   3.484
 4339WAT      O13258   5.061   0.853   7.705
 4339WAT     H113259   5.158   0.837   7.685
 4339WAT     H213260   5.054   0.901   7.792
 4340WAT      O13261   1.455   2.019   2.993
 4340WAT     H113262   1.510   1.937   3.000
 4340WAT     H213263   1.438   2.041   2.897
 4341WAT      O13264   9.573   9.286   1.808
 4341WAT     H113265   9.480   9.318   1.825
 4341WAT     H213266   9.575   9.186   1.810
 4342WAT      O13267   7.235   9.812   2.150
 4342WAT     H113268   7.163   9.826   2.217
 4342WAT     H213269   7.311   9.874   2.169
 4343WAT      O13270   6.722   2.912   2.150
 4343WAT     H113271   6.792   2.842   2.162
 4343WAT     H213272   6.632   2.873   2.170
 4344WAT      O13273   4.816   8.909   4.917
 4344WAT     H113274   4.787   8.822   4.879
 4344WAT     H213275   4.916   8.917   4.911
 4345WAT      O13276   2.951   6.542   4.391
 4345WAT     H113277   2.876   6.482   4.419
 4345WAT     H213278   2.917   6.634   4.374
 4346WAT      O13279   1.417   1.256   6.264
 4346WAT     H113280   1.334   1.234   6.316
 4346WAT     H213281   1.494   1.205   6.300
 4347WAT      O13282   8.682   1.735   7.686
 4347WAT     H113283   8.770   1.756   7.729
 4347WAT     H213284   8.659   1.806   7.620
 4348WAT      O13285   2.703   4.529   4.522
 4348WAT     H113286   2.773   4.522   4.593
 4348WAT     H213287   2.744   4.568   4.439
 4349WAT      O13288   9.387   0.055   3.962
 4349WAT     H113289   9.409  -0.013   4.032
 4349WAT     H213290   9.296   0.093   3.980
 4350WAT      O13291   1.488   6.997   4.351
 4350WAT     H113292   1.518   6.941   4.428
 4350WAT     H213293   1.451   6.938   4.280
 4351WAT      O13294   5.785   7.997   3.544
 4351WAT     H113295   5.783   7.897   3.555
 4351WAT     H213296   5.805   8.039   3.633
 4352WAT      O13297   5.362   5.560   9.831
 4352WAT     H113298   5.345   5.575   9.929
 4352WAT     H213299   5.439   5.617   9.802
 4353WAT      O13300   8.428   9.016   0.672
 4353WAT     H113301   8.423   8.933   0.728
 4353WAT     H213302   8.520   9.028   0.637
 4354WAT      O13303   4.246   0.752   4.448
 4354WAT     H113304   4.286   0.664   4.424
 4354WAT     H213305   4.296   0.825   4.401
 4355WAT      O13306   8.075   6.741   2.023
 4355WAT     H113307   8.172   6.744   2.047
 4355WAT     H213308   8.049   6.826   1.979
 4356WAT      O13309   8.124   5.779   4.221
 4356WAT     H113310   8.029   5.763   4.194
 4356WAT     H213311   8.135   5.875   4.249
 4357WAT      O13312   4.799   8.561   1.199
 4357WAT     H113313   4.779   8.486   1.263
 4357WAT     H213314   4.889   8.599   1.220
 4358WAT      O13315   4.363   2.559   5.871
 4358WAT     H113316   4.384   2.543   5.774
 4358WAT     H213317   4.303   2.638   5.880
 4359WAT      O13318   8.618   1.210   8.341
 4359WAT     H113319   8.610   1.216   8.241
 4359WAT     H213320   8.606   1.301   8.381
 4360WAT      O13321   2.736   0.380   0.525
 4360WAT     H113322   2.811   0.421   0.472
 4360WAT     H213323   2.753   0.282   0.537
 4361WAT      O13324   1.634   1.962   4.077
 4361WAT     H113325   1.602   2.045   4.123
 4361WAT     H213326   1.673   1.986   3.989
 4362WAT      O13327   6.972   8.443   5.108
 4362WAT     H113328   7.017   8.357   5.130
 4362WAT     H213329   6.889   8.453   5.162
 4363WAT      O13330   7.605   2.746   5.015
 4363WAT     H113331   7.600   2.783   5.108
 4363WAT     H213332   7.532   2.786   4.959
 4364WAT      O13333   4.181   1.825   5.517
 4364WAT     H113334   4.277   1.826   5.543
 4364WAT     H213335   4.158   1.908   5.467
 4365WAT      O13336   3.236   8.022   5.096
 4365WAT     H113337   3.174   8.086   5.140
 4365WAT     H213338   3.312   8.072   5.054
 4366WAT      O13339   2.366   7.843   7.945
 4366WAT     H113340   2.383   7.745   7.958
 4366WAT     H213341   2.268   7.860   7.941
 4367WAT      O13342   3.667   8.541   5.172
 4367WAT     H113343   3.749   8.499   5.209
 4367WAT     H213344   3.634   8.611   5.236
 4368WAT      O13345   2.221   3.376   5.248
 4368WAT     H113346   2.283   3.371   5.326
 4368WAT     H213347   2.139   3.427   5.274
 4369WAT      O13348   5.389   0.353   3.552
 4369WAT     H113349   5.370   0.440   3.507
 4369WAT     H213350   5.411   0.369   3.649
 4370WAT      O13351   9.553   3.079   3.928
 4370WAT     H113352   9.466   3.054   3.886
 4370WAT     H213353   9.597   2.997   3.965
 4371WAT      O13354   2.454   8.123   8.011
 4371WAT     H113355   2.455   8.037   7.960
 4371WAT     H213356   2.520   8.119   8.086
 4372WAT      O13357   9.364   7.176   9.019
 4372WAT     H113358   9.266   7.189   9.035
 4372WAT     H213359   9.396   7.098   9.073
 4373WAT      O13360   2.878   1.960   8.172
 4373WAT     H113361   2.944   1.936   8.101
 4373WAT     H213362   2.916   1.938   8.262
 4374WAT      O13363   6.489   2.369   7.740
 4374WAT     H113364   6.476   2.378   7.839
 4374WAT     H213365   6.413   2.414   7.693
 4375WAT      O13366   5.809   0.610   2.100
 4375WAT     H113367   5.765   0.588   2.187
 4375WAT     H213368   5.832   0.525   2.052
 4376WAT      O13369   3.217   0.779   0.028
 4376WAT     H113370   3.192   0.845   0.099
 4376WAT     H213371   3.257   0.828  -0.050
 4377WAT      O13372   8.597   9.278   1.469
 4377WAT     H113373   8.508   9.234   1.465
 4377WAT     H213374   8.656   9.241   1.397
 4378WAT      O13375   7.747   9.747   9.505
 4378WAT     H113376   7.817   9.792   9.450
 4378WAT     H213377   7.750   9.648   9.490
 4379WAT      O13378   2.655   2.225   3.479
 4379WAT     H113379   2.568   2.261   3.513
 4379WAT     H213380   2.658   2.126   3.494
 4380WAT      O13381   5.268   4.051   5.940
 4380WAT     H113382   5.211   4.126   5.973
 4380WAT     H213383   5.346   4.038   6.001
 4381WAT      O13384   4.179   2.750   5.843
 4381WAT     H113385   4.111   2.745   5.915
 4381WAT     H213386   4.134   2.769   5.756
 4382WAT      O13387   5.326   1.058   8.254
 4382WAT     H113388   5.328   1.002   8.170
 4382WAT     H213389   5.395   1.129   8.248
 4383WAT      O13390   8.727   7.978   2.021
 4383WAT     H113391   8.719   7.939   1.930
 4383WAT     H213392   8.637   8.009   2.052
 4384WAT      O13393   5.689   6.276   2.151
 4384WAT     H113394   5.648   6.334   2.222
 4384WAT     H213395   5.668   6.315   2.061
 4385WAT      O13396   5.469   6.795   5.099
 4385WAT     H113397   5.550   6.756   5.144
 4385WAT     H213398   5.496   6.838   5.013
 4386WAT      O13399   4.336   4.761   9.116
 4386WAT     H113400   4.340   4.759   9.216
 4386WAT     H213401   4.414   4.815   9.081
 4387WAT      O13402   1.954   0.820   2.298
 4387WAT     H113403   1.969   0.722   2.283
 4387WAT     H213404   1.960   0.868   2.211
 4388WAT      O13405   0.752   1.888   4.830
 4388WAT     H113406   0.830   1.884   4.767
 4388WAT     H213407   0.686   1.817   4.806
 4389WAT      O13408   4.049   4.872   0.645
 4389WAT     H113409   3.999   4.952   0.612
 4389WAT     H213410   4.062   4.878   0.744
 4390WAT      O13411   1.949   4.392   3.586
 4390WAT     H113412   1.897   4.383   3.500
 4390WAT     H213413   1.902   4.457   3.646
 4391WAT      O13414   3.307   6.480   4.731
 4391WAT     H113415   3.266   6.566   4.760
 4391WAT     H213416   3.406   6.485   4.740
 4392WAT      O13417   9.067   7.445   1.322
 4392WAT     H113418   9.159   7.407   1.314
 4392WAT     H213419   9.005   7.392   1.264
 4393WAT      O13420   6.871   0.578   9.239
 4393WAT     H113421   6.775   0.590   9.215
 4393WAT     H213422   6.879   0.547   9.334
 4394WAT      O13423   8.548   7.820   3.918
 4394WAT     H113424   8.601   7.783   3.994
 4394WAT     H213425   8.514   7.745   3.861
 4395WAT      O13426   0.266   3.094   7.906
 4395WAT     H113427   0.314   3.016   7.946
 4395WAT     H213428   0.323   3.176   7.914
 4396WAT      O13429   2.471   8.824   6.304
 4396WAT     H113430   2.383   8.779   6.290
 4396WAT     H213431   2.496   8.874   6.220
 4397WAT      O13432   3.696   0.838   7.041
 4397WAT     H113433   3.671   0.820   6.946
 4397WAT     H213434   3.791   0.811   7.055
 4398WAT      O13435   3.237   2.539   3.975
 4398WAT     H113436   3.329   2.509   3.953
 4398WAT     H213437   3.240   2.631   4.014
 4399WAT      O13438   3.633   3.727   9.626
 4399WAT     H113439   3.540   3.764   9.620
 4399WAT     H213440   3.657   3.682   9.540
 4400WAT      O13441   5.864   5.172   8.288
 4400WAT     H113442   5.810   5.215   8.215
 4400WAT     H213443   5.959   5.202   8.281
 4401WAT      O13444   0.088   4.302   2.143
 4401WAT     H113445   0.098   4.366   2.066
 4401WAT     H213446   0.124   4.343   2.226
 4402WAT      O13447   9.841   9.773   0.984
 4402WAT     H113448   9.836   9.686   0.935
 4402WAT     H213449   9.812   9.847   0.923
 4403WAT      O13450   7.418   9.414   4.182
 4403WAT     H113451   7.417   9.353   4.104
 4403WAT     H213452   7.494   9.479   4.174
 4404WAT      O13453   2.484   1.776   6.562
 4404WAT     H113454   2.540   1.810   6.638
 4404WAT     H213455   2.390   1.765   6.593
 4405WAT      O13456   7.032   8.193   5.210
 4405WAT     H113457   6.982   8.122   5.160
 4405WAT     H213458   7.026   8.175   5.308
 4406WAT      O13459   4.846   6.661   8.315
 4406WAT     H113460   4.791   6.577   8.318
 4406WAT     H213461   4.787   6.740   8.336
 4407WAT      O13462   4.423   0.531   6.429
 4407WAT     H113463   4.339   0.579   6.451
 4407WAT     H213464   4.501   0.577   6.472
 4408WAT      O13465   2.177   7.964   5.303
 4408WAT     H113466   2.106   7.951   5.234
 4408WAT     H213467   2.185   7.882   5.360
 4409WAT      O13468   5.389   5.368   9.558
 4409WAT     H113469   5.339   5.394   9.640
 4409WAT     H213470   5.444   5.445   9.526
 4410WAT      O13471   1.950   8.296   1.948
 4410WAT     H113472   2.011   8.310   2.026
 4410WAT     H213473   1.900   8.381   1.930
 4411WAT      O13474   6.191   4.872   2.845
 4411WAT     H113475   6.228   4.950   2.896
 4411WAT     H213476   6.095   4.889   2.822
 4412WAT      O13477   6.010   1.619   4.146
 4412WAT     H113478   5.955   1.535   4.151
 4412WAT     H213479   5.984   1.680   4.221
 4413WAT      O13480   0.225   4.325   8.919
 4413WAT     H113481   0.139   4.277   8.934
 4413WAT     H213482   0.301   4.267   8.949
 4414WAT      O13483   7.988   0.942   3.790
 4414WAT     H113484   7.965   0.982   3.701
 4414WAT     H213485   8.051   1.003   3.839
 4415WAT      O13486   2.862   2.208   8.225
 4415WAT     H113487   2.860   2.109   8.212
 4415WAT     H213488   2.876   2.228   8.322
 4416WAT      O13489   6.181   0.714   5.454
 4416WAT     H113490   6.226   0.804   5.452
 4416WAT     H213491   6.209   0.666   5.537
 4417WAT      O13492   5.577   7.048   7.191
 4417WAT     H113493   5.596   7.012   7.283
 4417WAT     H213494   5.663   7.078   7.149
 4418WAT      O13495   5.910   2.203   8.289
 4418WAT     H113496   5.936   2.299   8.273
 4418WAT     H213497   5.834   2.200   8.353
 4419WAT      O13498   5.180   9.819   4.448
 4419WAT     H113499   5.275   9.793   4.463
 4419WAT     H213500   5.171   9.860   4.357
 4420WAT      O13501   1.024   8.872   9.445
 4420WAT     H113502   0.937   8.919   9.427
 4420WAT     H213503   1.008   8.797   9.510
 4421WAT      O13504   6.849   2.422   4.982
 4421WAT     H113505   6.858   2.441   5.080
 4421WAT     H213506   6.827   2.506   4.934
 4422WAT      O13507   1.319   4.298   8.482
 4422WAT     H113508   1.310   4.202   8.510
 4422WAT     H213509   1.233   4.345   8.496
 4423WAT      O13510   7.080   6.027   0.722
 4423WAT     H113511   7.004   6.078   0.762
 4423WAT     H213512   7.094   6.056   0.627
 4424WAT      O13513   2.769   9.020   0.919
 4424WAT     H113514   2.769   9.083   0.997
 4424WAT     H213515   2.748   8.928   0.952
 4425WAT      O13516   3.578   5.516   5.212
 4425WAT     H113517   3.492   5.465   5.207
 4425WAT     H213518   3.651   5.462   5.169
 4426WAT      O13519   2.313   3.387   6.102
 4426WAT     H113520   2.357   3.317   6.046
 4426WAT     H213521   2.381   3.434   6.157
 4427WAT      O13522   7.594   5.259   0.192
 4427WAT     H113523   7.554   5.189   0.133
 4427WAT     H213524   7.669   5.305   0.144
 4428WAT      O13525   6.557   4.691   0.267
 4428WAT     H113526   6.614   4.609   0.261
 4428WAT     H213527   6.482   4.675   0.331
 4429WAT      O13528   6.038   0.255   5.028
 4429WAT     H113529   6.072   0.314   5.101
 4429WAT     H213530   5.985   0.180   5.068
 4430WAT      O13531   8.698   8.374   4.495
 4430WAT     H113532   8.712   8.355   4.398
 4430WAT     H213533   8.749   8.308   4.550
 4431WAT      O13534   5.102   8.464   0.686
 4431WAT     H113535   5.140   8.391   0.743
 4431WAT     H213536   5.119   8.552   0.729
 4432WAT      O13537   3.616   7.379   7.029
 4432WAT     H113538   3.706   7.343   7.053
 4432WAT     H213539   3.616   7.479   7.039
 4433WAT      O13540   6.080   6.561   1.106
 4433WAT     H113541   6.074   6.570   1.007
 4433WAT     H213542   6.137   6.635   1.143
 4434WAT      O13543   8.964   7.707   1.586
 4434WAT     H113544   9.014   7.769   1.645
 4434WAT     H213545   8.866   7.727   1.592
 4435WAT      O13546   2.755   6.446   7.536
 4435WAT     H113547   2.679   6.492   7.489
 4435WAT     H213548   2.721   6.364   7.582
 4436WAT      O13549   2.251   4.954   5.588
 4436WAT     H113550   2.335   4.916   5.627
 4436WAT     H213551   2.203   5.007   5.658
 4437WAT      O13552   6.984   6.995   3.890
 4437WAT     H113553   6.946   7.014   3.799
 4437WAT     H213554   6.949   7.062   3.955
 4438WAT      O13555   1.850   1.536   0.806
 4438WAT     H113556   1.827   1.562   0.712
 4438WAT     H213557   1.946   1.558   0.824
 4439WAT      O13558   8.139   8.491   6.037
 4439WAT     H113559   8.183   8.526   5.954
 4439WAT     H213560   8.119   8.394   6.026
 4440WAT      O13561   7.651   6.201   0.514
 4440WAT     H113562   7.657   6.300   0.531
 4440WAT     H213563   7.737   6.169   0.473
 4441WAT      O13564   3.336   3.066   1.800
 4441WAT     H113565   3.350   2.967   1.793
 4441WAT     H213566   3.258   3.085   1.860
 4442WAT      O13567   2.031   1.696   9.036
 4442WAT     H113568   2.100   1.638   8.993
 4442WAT     H213569   1.943   1.681   8.991
 4443WAT      O13570   6.410   9.657   3.339
 4443WAT     H113571   6.341   9.682   3.407
 4443WAT     H213572   6.420   9.731   3.273
 4444WAT      O13573   8.382   8.333   0.324
 4444WAT     H113574   8.354   8.323   0.229
 4444WAT     H213575   8.480   8.354   0.328
 4445WAT      O13576   6.309   2.864   1.665
 4445WAT     H113577   6.212   2.888   1.671
 4445WAT     H213578   6.318   2.774   1.621
 4446WAT      O13579   8.549   6.809   9.179
 4446WAT     H113580   8.521   6.789   9.272
 4446WAT     H213581   8.534   6.729   9.121
 4447WAT      O13582   2.897   6.334   5.483
 4447WAT     H113583   2.801   6.337   5.457
 4447WAT     H213584   2.954   6.325   5.401
 4448WAT      O13585   4.666   7.422   2.248
 4448WAT     H113586   4.616   7.496   2.203
 4448WAT     H213587   4.761   7.420   2.216
 4449WAT      O13588   9.721   5.116   1.403
 4449WAT     H113589   9.717   5.120   1.503
 4449WAT     H213590   9.798   5.170   1.370
 4450WAT      O13591   9.027   4.782   5.722
 4450WAT     H113592   8.932   4.770   5.753
 4450WAT     H213593   9.031   4.858   5.657
 4451WAT      O13594   4.713   3.444   9.842
 4451WAT     H113595   4.658   3.361   9.852
 4451WAT     H213596   4.810   3.420   9.843
 4452WAT      O13597   6.883   8.577   1.890
 4452WAT     H113598   6.928   8.550   1.976
 4452WAT     H213599   6.922   8.523   1.815
 4453WAT      O13600   2.370   0.583   5.393
 4453WAT     H113601   2.340   0.668   5.350
 4453WAT     H213602   2.319   0.506   5.354
 4454WAT      O13603   1.475   2.096   2.720
 4454WAT     H113604   1.557   2.144   2.689
 4454WAT     H213605   1.479   2.001   2.690
 4455WAT      O13606   1.688   4.290   4.654
 4455WAT     H113607   1.632   4.225   4.602
 4455WAT     H213608   1.640   4.313   4.739
 4456WAT      O13609   9.144   8.082   0.155
 4456WAT     H113610   9.091   8.132   0.087
 4456WAT     H213611   9.242   8.100   0.140
 4457WAT      O13612   0.090   3.229   6.154
 4457WAT     H113613   0.083   3.278   6.067
 4457WAT     H213614  -0.001   3.204   6.186
 4458WAT      O13615   0.303   4.737   6.097
 4458WAT     H113616   0.373   4.801   6.065
 4458WAT     H213617   0.347   4.656   6.137
 4459WAT      O13618   2.421   8.573   9.760
 4459WAT     H113619   2.510   8.580   9.804
 4459WAT     H213620   2.349   8.592   9.826
 4460WAT      O13621   7.752   7.591   0.099
 4460WAT     H113622   7.825   7.658   0.102
 4460WAT     H213623   7.670   7.629   0.141
 4461WAT      O13624   3.043   2.609   4.878
 4461WAT     H113625   3.007   2.524   4.839
 4461WAT     H213626   2.984   2.638   4.954
 4462WAT      O13627   5.086   2.743   5.469
 4462WAT     H113628   4.989   2.723   5.479
 4462WAT     H213629   5.113   2.728   5.374
 4463WAT      O13630   9.255   5.319   1.405
 4463WAT     H113631   9.162   5.310   1.369
 4463WAT     H213632   9.272   5.246   1.471
 4464WAT      O13633   9.161   2.191   6.757
 4464WAT     H113634   9.242   2.248   6.742
 4464WAT     H213635   9.108   2.186   6.673
 4465WAT      O13636   0.025   8.513   9.387
 4465WAT     H113637   0.016   8.597   9.441
 4465WAT     H213638   0.095   8.455   9.428
 4466WAT      O13639   0.876   1.510   1.583
 4466WAT     H113640   0.848   1.588   1.526
 4466WAT     H213641   0.954   1.465   1.542
 4467WAT      O13642   8.128   3.436   8.842
 4467WAT     H113643   8.172   3.476   8.761
 4467WAT     H213644   8.194   3.380   8.891
 4468WAT      O13645   9.610   5.997   4.277
 4468WAT     H113646   9.641   6.092   4.269
 4468WAT     H213647   9.644   5.944   4.200
 4469WAT      O13648   8.749   7.056   5.994
 4469WAT     H113649   8.834   7.014   6.025
 4469WAT     H213650   8.739   7.042   5.896
 4470WAT      O13651   3.245   6.542   9.052
 4470WAT     H113652   3.300   6.567   8.972
 4470WAT     H213653   3.206   6.624   9.092
 4471WAT      O13654   2.120   0.806   2.675
 4471WAT     H113655   2.150   0.843   2.587
 4471WAT     H213656   2.076   0.717   2.661
 4472WAT      O13657   3.311   8.822   5.780
 4472WAT     H113658   3.242   8.832   5.709
 4472WAT     H213659   3.380   8.894   5.769
 4473WAT      O13660   3.733   9.493   6.386
 4473WAT     H113661   3.668   9.424   6.355
 4473WAT     H213662   3.776   9.463   6.471
 4474WAT      O13663   2.314   3.251   9.108
 4474WAT     H113664   2.294   3.154   9.092
 4474WAT     H213665   2.259   3.306   9.045
 4475WAT      O13666   8.705   6.301   8.350
 4475WAT     H113667   8.642   6.224   8.358
 4475WAT     H213668   8.745   6.321   8.439
 4476WAT      O13669   6.189   4.968   5.816
 4476WAT     H113670   6.237   4.909   5.751
 4476WAT     H213671   6.093   4.975   5.789
 4477WAT      O13672   3.875   8.493   0.525
 4477WAT     H113673   3.972   8.467   0.519
 4477WAT     H213674   3.840   8.468   0.615
 4478WAT      O13675   5.268   0.885   8.932
 4478WAT     H113676   5.208   0.939   8.991
 4478WAT     H213677   5.314   0.945   8.867
 4479WAT      O13678   1.215   2.513   2.836
 4479WAT     H113679   1.120   2.541   2.826
 4479WAT     H213680   1.267   2.541   2.755
 4480WAT      O13681   2.932   9.400   3.453
 4480WAT     H113682   2.858   9.371   3.392
 4480WAT     H213683   2.980   9.319   3.486
 4481WAT      O13684   9.004   0.602   3.065
 4481WAT     H113685   9.094   0.562   3.048
 4481WAT     H213686   8.960   0.625   2.978
 4482WAT      O13687   5.765   8.727   5.151
 4482WAT     H113688   5.825   8.748   5.227
 4482WAT     H213689   5.670   8.733   5.181
 4483WAT      O13690   2.933   1.953   5.218
 4483WAT     H113691   2.961   1.866   5.178
 4483WAT     H213692   2.989   1.972   5.298
 4484WAT      O13693   9.158   8.372   4.125
 4484WAT     H113694   9.210   8.363   4.040
 4484WAT     H213695   9.068   8.410   4.105
 4485WAT      O13696   2.538   2.157   9.693
 4485WAT     H113697   2.626   2.197   9.718
 4485WAT     H213698   2.464   2.208   9.737
 4486WAT      O13699   9.699   3.876   7.649
 4486WAT     H113700   9.607   3.908   7.671
 4486WAT     H213701   9.694   3.808   7.576
 4487WAT      O13702   8.791   1.587   2.677
 4487WAT     H113703   8.720   1.519   2.692
 4487WAT     H213704   8.756   1.678   2.700
 4488WAT      O13705   3.195   4.412   0.355
 4488WAT     H113706   3.228   4.335   0.410
 4488WAT     H213707   3.238   4.497   0.387
 4489WAT      O13708   8.056   7.687   9.620
 4489WAT     H113709   8.146   7.682   9.664
 4489WAT     H213710   8.068   7.716   9.525
 4490WAT      O13711   1.331   5.531   1.567
 4490WAT     H113712   1.321   5.602   1.638
 4490WAT     H213713   1.259   5.543   1.498
 4491WAT      O13714   0.266   6.556   8.770
 4491WAT     H113715   0.270   6.494   8.849
 4491WAT     H213716   0.344   6.539   8.710
 4492WAT      O13717   2.764   2.262   0.750
 4492WAT     H113718   2.746   2.166   0.773
 4492WAT     H213719   2.860   2.283   0.770
 4493WAT      O13720   9.104   0.457   0.152
 4493WAT     H113721   9.125   0.475   0.248
 4493WAT     H213722   9.053   0.372   0.144
 4494WAT      O13723   3.050   2.339   5.295
 4494WAT     H113724   3.029   2.322   5.199
 4494WAT     H213725   3.143   2.309   5.315
 4495WAT      O13726   5.050   6.795   8.126
 4495WAT     H113727   4.974   6.761   8.182
 4495WAT     H213728   5.135   6.784   8.177
 4496WAT      O13729   3.066   7.444   6.768
 4496WAT     H113730   2.983   7.458   6.821
 4496WAT     H213731   3.119   7.528   6.764
 4497WAT      O13732   7.763   5.045   3.326
 4497WAT     H113733   7.797   5.134   3.297
 4497WAT     H213734   7.727   4.995   3.247
 4498WAT      O13735   9.777   1.704   0.022
 4498WAT     H113736   9.838   1.773  -0.018
 4498WAT     H213737   9.833   1.636   0.071
 4499WAT      O13738   5.614   3.529   8.401
 4499WAT     H113739   5.630   3.615   8.352
 4499WAT     H213740   5.540   3.479   8.355
 4500WAT      O13741   9.031   3.461   1.095
 4500WAT     H113742   9.021   3.378   1.041
 4500WAT     H213743   9.091   3.525   1.047
 4501WAT      O13744   1.076   1.920   9.306
 4501WAT     H113745   1.129   1.874   9.235
 4501WAT     H213746   1.042   2.008   9.271
 4502WAT      O13747   1.097   8.383   5.352
 4502WAT     H113748   1.132   8.427   5.269
 4502WAT     H213749   1.040   8.304   5.326
 4503WAT      O13750   8.035   1.661   3.989
 4503WAT     H113751   7.991   1.649   3.900
 4503WAT     H213752   7.976   1.714   4.049
 4504WAT      O13753   1.647   4.131   3.298
 4504WAT     H113754   1.583   4.088   3.362
 4504WAT     H213755   1.596   4.177   3.225
 4505WAT      O13756   3.402   7.952   1.466
 4505WAT     H113757   3.450   7.926   1.382
 4505WAT     H213758   3.466   8.001   1.526
 4506WAT      O13759   8.206   9.020   0.527
 4506WAT     H113760   8.156   8.946   0.572
 4506WAT     H213761   8.301   9.020   0.558
 4507WAT      O13762   4.260   5.897   1.624
 4507WAT     H113763   4.276   5.988   1.585
 4507WAT     H213764   4.345   5.845   1.625
 4508WAT      O13765   2.727   3.123   5.856
 4508WAT     H113766   2.774   3.095   5.940
 4508WAT     H213767   2.650   3.062   5.839
 4509WAT      O13768   8.967   6.960   8.713
 4509WAT     H113769   9.015   6.886   8.666
 4509WAT     H213770   8.904   6.923   8.780
 4510WAT      O13771   3.094   2.429   1.826
 4510WAT     H113772   3.094   2.483   1.910
 4510WAT     H213773   3.118   2.335   1.847
 4511WAT      O13774   3.174   1.128   9.617
 4511WAT     H113775   3.159   1.217   9.574
 4511WAT     H213776   3.167   1.138   9.717
 4512WAT      O13777   9.837   5.446   1.975
 4512WAT     H113778   9.752   5.495   1.957
 4512WAT     H213779   9.892   5.444   1.892
 4513WAT      O13780   1.904   4.056   5.917
 4513WAT     H113781   1.867   4.148   5.930
 4513WAT     H213782   1.950   4.027   6.001
 4514WAT      O13783   8.743   9.460   9.145
 4514WAT     H113784   8.805   9.492   9.073
 4514WAT     H213785   8.648   9.472   9.116
 4515WAT      O13786   3.126   6.068   5.382
 4515WAT     H113787   3.059   6.005   5.343
 4515WAT     H213788   3.218   6.035   5.362
 4516WAT      O13789   7.630   4.325   6.048
 4516WAT     H113790   7.650   4.244   5.992
 4516WAT     H213791   7.716   4.370   6.073
 4517WAT      O13792   4.229   7.274   5.005
 4517WAT     H113793   4.156   7.222   4.961
 4517WAT     H213794   4.190   7.355   5.049
 4518WAT      O13795   2.722   4.782   0.542
 4518WAT     H113796   2.652   4.716   0.514
 4518WAT     H213797   2.697   4.873   0.509
 4519WAT      O13798   3.834   0.044   1.409
 4519WAT     H113799   3.773   0.093   1.471
 4519WAT     H213800   3.787   0.023   1.324
 4520WAT      O13801   4.939   8.417   8.404
 4520WAT     H113802   4.954   8.327   8.443
 4520WAT     H213803   4.865   8.463   8.453
 4521WAT      O13804   0.670   3.388   9.473
 4521WAT     H113805   0.761   3.428   9.483
 4521WAT     H213806   0.677   3.304   9.420
 4522WAT      O13807   9.751   8.242   2.507
 4522WAT     H113808   9.785   8.153   2.476
 4522WAT     H213809   9.822   8.290   2.558
 4523WAT      O13810   5.085   6.171   3.760
 4523WAT     H113811   5.038   6.137   3.679
 4523WAT     H213812   5.045   6.259   3.788
 4524WAT      O13813   2.742   7.932   3.091
 4524WAT     H113814   2.821   7.923   3.030
 4524WAT     H213815   2.664   7.884   3.052
 4525WAT      O13816   2.835   3.222   1.563
 4525WAT     H113817   2.768   3.260   1.499
 4525WAT     H213818   2.796   3.223   1.655
 4526WAT      O13819   7.640   5.044   1.727
 4526WAT     H113820   7.609   5.103   1.801
 4526WAT     H213821   7.561   5.013   1.674
 4527WAT      O13822   9.524   4.672   5.452
 4527WAT     H113823   9.478   4.585   5.469
 4527WAT     H213824   9.507   4.700   5.357
 4528WAT      O13825   6.595   6.851   6.273
 4528WAT     H113826   6.537   6.782   6.315
 4528WAT     H213827   6.662   6.807   6.214
 4529WAT      O13828   1.114   5.265   2.110
 4529WAT     H113829   1.212   5.268   2.087
 4529WAT     H213830   1.063   5.233   2.031
 4530WAT      O13831   5.024   1.200   7.626
 4530WAT     H113832   4.996   1.288   7.664
 4530WAT     H213833   4.981   1.126   7.678
 4531WAT      O13834   5.929   3.065   5.902
 4531WAT     H113835   5.955   3.147   5.852
 4531WAT     H213836   5.861   3.014   5.851
 4532WAT      O13837   2.756   8.113   6.196
 4532WAT     H113838   2.798   8.180   6.257
 4532WAT     H213839   2.755   8.023   6.240
 4533WAT      O13840   7.695   9.136   2.117
 4533WAT     H113841   7.693   9.057   2.055
 4533WAT     H213842   7.604   9.177   2.120
 4534WAT      O13843   4.027   2.137   4.710
 4534WAT     H113844   3.972   2.099   4.636
 4534WAT     H213845   4.116   2.166   4.675
 4535WAT      O13846   4.379   2.345   6.054
 4535WAT     H113847   4.360   2.418   5.989
 4535WAT     H213848   4.471   2.356   6.092
 4536WAT      O13849   5.432   9.090   5.574
 4536WAT     H113850   5.383   9.105   5.488
 4536WAT     H213851   5.491   9.169   5.592
 4537WAT      O13852   0.920   0.209   1.943
 4537WAT     H113853   0.981   0.187   1.867
 4537WAT     H213854   0.837   0.153   1.936
 4538WAT      O13855   3.913   5.582   6.945
 4538WAT     H113856   3.921   5.492   6.901
 4538WAT     H213857   3.817   5.610   6.945
 4539WAT      O13858   4.894   2.353   7.807
 4539WAT     H113859   4.903   2.342   7.708
 4539WAT     H213860   4.923   2.445   7.833
 4540WAT      O13861   6.181   8.960   6.394
 4540WAT     H113862   6.209   8.927   6.484
 4540WAT     H213863   6.178   9.060   6.395
 4541WAT      O13864   8.240   8.034   6.983
 4541WAT     H113865   8.212   8.062   7.075
 4541WAT     H213866   8.316   7.969   6.990
 4542WAT      O13867   8.749   7.556   2.601
 4542WAT     H113868   8.817   7.541   2.530
 4542WAT     H213869   8.657   7.543   2.563
 4543WAT      O13870   5.439   6.868   1.583
 4543WAT     H113871   5.423   6.965   1.601
 4543WAT     H213872   5.510   6.858   1.514
 4544WAT      O13873   1.237   8.609   9.155
 4544WAT     H113874   1.237   8.705   9.183
 4544WAT     H213875   1.196   8.600   9.065
 4545WAT      O13876   4.123   5.843   8.668
 4545WAT     H113877   4.209   5.891   8.655
 4545WAT     H213878   4.083   5.820   8.580
 4546WAT      O13879   3.736   0.774   1.815
 4546WAT     H113880   3.712   0.678   1.830
 4546WAT     H213881   3.827   0.779   1.774
 4547WAT      O13882   7.913   1.917   7.106
 4547WAT     H113883   7.896   1.830   7.153
 4547WAT     H213884   7.946   1.898   7.013
 4548WAT      O13885   2.484   8.742   9.534
 4548WAT     H113886   2.459   8.674   9.603
 4548WAT     H213887   2.411   8.750   9.467
 4549WAT      O13888   4.866   5.468   6.051
 4549WAT     H113889   4.833   5.375   6.033
 4549WAT     H213890   4.959   5.478   6.015
 4550WAT      O13891   2.996   5.026   6.196
 4550WAT     H113892   3.046   5.113   6.195
 4550WAT     H213893   3.006   4.981   6.107
 4551WAT      O13894   4.606   2.339   5.213
 4551WAT     H113895   4.655   2.341   5.126
 4551WAT     H213896   4.514   2.303   5.198
 4552WAT      O13897   8.707   7.990   6.568
 4552WAT     H113898   8.685   8.056   6.640
 4552WAT     H213899   8.731   8.039   6.484
 4553WAT      O13900   9.431   0.114   6.047
 4553WAT     H113901   9.338   0.121   6.013
 4553WAT     H213902   9.447   0.185   6.115
 4554WAT      O13903   7.578   7.529   9.252
 4554WAT     H113904   7.503   7.561   9.194
 4554WAT     H213905   7.546   7.452   9.308
 4555WAT      O13906   9.744   9.594   5.855
 4555WAT     H113907   9.684   9.674   5.846
 4555WAT     H213908   9.805   9.607   5.933
 4556WAT      O13909   9.395   4.726   0.364
 4556WAT     H113910   9.298   4.736   0.385
 4556WAT     H213911   9.428   4.638   0.398
 4557WAT      O13912   1.534   7.881   8.467
 4557WAT     H113913   1.489   7.963   8.502
 4557WAT     H213914   1.491   7.853   8.382
 4558WAT      O13915   5.498   8.271   8.244
 4558WAT     H113916   5.441   8.222   8.310
 4558WAT     H213917   5.487   8.231   8.154
 4559WAT      O13918   9.061   0.121   3.648
 4559WAT     H113919   9.029   0.129   3.743
 4559WAT     H213920   9.159   0.100   3.647
 4560WAT      O13921   2.046   0.462   9.414
 4560WAT     H113922   2.075   0.377   9.369
 4560WAT     H213923   2.053   0.452   9.513
 4561WAT      O13924   5.779   8.237   7.819
 4561WAT     H113925   5.854   8.301   7.836
 4561WAT     H213926   5.802   8.149   7.860
 4562WAT      O13927   6.464   7.359   7.290
 4562WAT     H113928   6.376   7.381   7.331
 4562WAT     H213929   6.532   7.427   7.318
 4563WAT      O13930   9.352   7.986   8.913
 4563WAT     H113931   9.373   7.888   8.911
 4563WAT     H213932   9.422   8.033   8.967
 4564WAT      O13933   5.692   8.622   2.693
 4564WAT     H113934   5.708   8.697   2.629
 4564WAT     H213935   5.623   8.650   2.760
 4565WAT      O13936   2.625   9.482   5.266
 4565WAT     H113937   2.682   9.556   5.301
 4565WAT     H213938   2.683   9.408   5.232
 4566WAT      O13939   2.906   6.643   6.761
 4566WAT     H113940   2.990   6.634   6.709
 4566WAT     H213941   2.874   6.737   6.757
 4567WAT      O13942   4.902   0.910   6.861
 4567WAT     H113943   4.841   0.832   6.875
 4567WAT     H213944   4.992   0.889   6.901
 4568WAT      O13945   2.813   3.497   0.989
 4568WAT     H113946   2.898   3.512   0.939
 4568WAT     H213947   2.757   3.580   0.986
 4569WAT      O13948   2.219   2.012   4.634
 4569WAT     H113949   2.301   1.983   4.683
 4569WAT     H213950   2.209   1.957   4.551
 4570WAT      O13951   7.565   6.438   8.365
 4570WAT     H113952   7.588   6.425   8.462
 4570WAT     H213953   7.642   6.408   8.308
 4571WAT      O13954   5.688   4.004   8.995
 4571WAT     H113955   5.767   4.050   8.954
 4571WAT     H213956   5.604   4.052   8.970
 4572WAT      O13957   7.642   5.638   6.526
 4572WAT     H113958   7.717   5.652   6.591
 4572WAT     H213959   7.563   5.602   6.574
 4573WAT      O13960   4.167   6.317   1.021
 4573WAT     H113961   4.145   6.315   1.118
 4573WAT     H213962   4.253   6.269   1.005
 4574WAT      O13963   0.642   6.434   6.418
 4574WAT     H113964   0.556   6.408   6.375
 4574WAT     H213965   0.639   6.530   6.445
 4575WAT      O13966   4.322   2.849   1.489
 4575WAT     H113967   4.333   2.825   1.392
 4575WAT     H213968   4.354   2.942   1.504
 4576WAT      O13969   2.976   2.948   4.896
 4576WAT     H113970   3.008   2.855   4.917
 4576WAT     H213971   2.929   2.948   4.808
 4577WAT      O13972   1.840   3.260   6.037
 4577WAT     H113973   1.926   3.244   5.989
 4577WAT     H213974   1.783   3.177   6.033
 4578WAT      O13975   0.118   2.881   8.252
 4578WAT     H113976   0.140   2.814   8.181
 4578WAT     H213977   0.074   2.960   8.211
 4579WAT      O13978   8.183   1.985   1.687
 4579WAT     H113979   8.086   1.966   1.702
 4579WAT     H213980   8.192   2.058   1.618
 4580WAT      O13981   2.053   1.109   3.382
 4580WAT     H113982   2.002   1.152   3.307
 4580WAT     H213983   1.988   1.073   3.449
 4581WAT      O13984   1.482   9.478   2.471
 4581WAT     H113985   1.433   9.401   2.432
 4581WAT     H213986   1.581   9.461   2.466
 4582WAT      O13987   6.313   4.077   5.076
 4582WAT     H113988   6.300   4.020   4.994
 4582WAT     H213989   6.313   4.174   5.049
 4583WAT      O13990   3.602   0.942   2.648
 4583WAT     H113991   3.592   0.888   2.565
 4583WAT     H213992   3.512   0.952   2.692
 4584WAT      O13993   0.329   2.726   2.871
 4584WAT     H113994   0.399   2.673   2.821
 4584WAT     H213995   0.292   2.796   2.810
 4585WAT      O13996   7.136   3.356   7.492
 4585WAT     H113997   7.151   3.379   7.588
 4585WAT     H213998   7.216   3.383   7.438
 4586WAT      O13999   8.887   3.186   7.885
 4586WAT     H114000   8.921   3.096   7.916
 4586WAT     H214001   8.787   3.184   7.882
 4587WAT      O14002   8.132   0.521   9.774
 4587WAT     H114003   8.162   0.521   9.869
 4587WAT     H214004   8.054   0.582   9.763
 4588WAT      O14005   7.445   3.347   0.926
 4588WAT     H114006   7.482   3.411   0.860
 4588WAT     H214007   7.370   3.296   0.885
 4589WAT      O14008   3.252   0.799   1.594
 4589WAT     H114009   3.156   0.821   1.580
 4589WAT     H214010   3.304   0.823   1.512
 4590WAT      O14011   0.382   6.459   0.920
 4590WAT     H114012   0.440   6.540   0.932
 4590WAT     H214013   0.332   6.467   0.833
 4591WAT      O14014   6.993   8.092   3.584
 4591WAT     H114015   7.023   8.014   3.529
 4591WAT     H214016   7.058   8.167   3.575
 4592WAT      O14017   5.379   7.094   9.752
 4592WAT     H114018   5.452   7.160   9.737
 4592WAT     H214019   5.307   7.134   9.809
 4593WAT      O14020   9.444   4.541   9.297
 4593WAT     H114021   9.416   4.571   9.388
 4593WAT     H214022   9.544   4.548   9.289
 4594WAT      O14023   3.487   2.893   2.423
 4594WAT     H114024   3.427   2.921   2.498
 4594WAT     H214025   3.511   2.973   2.368
 4595WAT      O14026   0.339   8.431   7.782
 4595WAT     H114027   0.319   8.441   7.685
 4595WAT     H214028   0.254   8.426   7.834
 4596WAT      O14029   8.373   0.640   6.831
 4596WAT     H114030   8.422   0.649   6.918
 4596WAT     H214031   8.375   0.545   6.801
 4597WAT      O14032   4.639   6.858   4.852
 4597WAT     H114033   4.549   6.896   4.875
 4597WAT     H214034   4.655   6.868   4.754
 4598WAT      O14035   1.294   4.991   9.077
 4598WAT     H114036   1.258   4.922   9.014
 4598WAT     H214037   1.280   5.082   9.038
 4599WAT      O14038   4.862   9.599   6.519
 4599WAT     H114039   4.931   9.671   6.512
 4599WAT     H214040   4.788   9.629   6.580
 4600WAT      O14041   5.753   7.149   4.508
 4600WAT     H114042   5.824   7.219   4.515
 4600WAT     H214043   5.663   7.193   4.502
 4601WAT      O14044   6.930   0.499   8.615
 4601WAT     H114045   6.886   0.582   8.581
 4601WAT     H214046   7.029   0.509   8.610
 4602WAT      O14047   9.596   0.724   5.054
 4602WAT     H114048   9.662   0.686   4.990
 4602WAT     H214049   9.604   0.677   5.142
 4603WAT      O14050   4.331   4.240   6.698
 4603WAT     H114051   4.309   4.204   6.788
 4603WAT     H214052   4.250   4.235   6.639
 4604WAT      O14053   4.762   4.490   0.555
 4604WAT     H114054   4.680   4.545   0.567
 4604WAT     H214055   4.739   4.404   0.509
 4605WAT      O14056   8.178   4.179   8.008
 4605WAT     H114057   8.249   4.157   7.941
 4605WAT     H214058   8.216   4.240   8.078
 4606WAT      O14059   6.282   2.765   0.410
 4606WAT     H114060   6.223   2.726   0.481
 4606WAT     H214061   6.301   2.696   0.341
 4607WAT      O14062   1.818   7.487   8.552
 4607WAT     H114063   1.823   7.519   8.647
 4607WAT     H214064   1.895   7.523   8.500
 4608WAT      O14065   1.027   6.472   7.003
 4608WAT     H114066   0.953   6.514   6.950
 4608WAT     H214067   1.099   6.443   6.940
 4609WAT      O14068   6.432   6.756   9.397
 4609WAT     H114069   6.430   6.814   9.315
 4609WAT     H214070   6.462   6.664   9.372
 4610WAT      O14071   0.207   6.337   8.958
 4610WAT     H114072   0.158   6.302   8.877
 4610WAT     H214073   0.140   6.375   9.022
 4611WAT      O14074   4.335   2.910   5.609
 4611WAT     H114075   4.253   2.868   5.647
 4611WAT     H214076   4.366   2.858   5.529
 4612WAT      O14077   9.138   7.342   0.297
 4612WAT     H114078   9.172   7.400   0.222
 4612WAT     H214079   9.213   7.286   0.332
 4613WAT      O14080   3.262   1.241   1.936
 4613WAT     H114081   3.264   1.194   2.025
 4613WAT     H214082   3.326   1.318   1.938
 4614WAT      O14083   0.584   9.473   0.442
 4614WAT     H114084   0.566   9.406   0.514
 4614WAT     H214085   0.522   9.551   0.452
 4615WAT      O14086   9.827   1.457   1.299
 4615WAT     H114087   9.737   1.412   1.299
 4615WAT     H214088   9.835   1.514   1.218
 4616WAT      O14089   4.123   5.224   1.535
 4616WAT     H114090   4.045   5.195   1.480
 4616WAT     H214091   4.128   5.169   1.618
 4617WAT      O14092   4.792   6.241   2.183
 4617WAT     H114093   4.768   6.154   2.226
 4617WAT     H214094   4.708   6.292   2.161
 4618WAT      O14095   9.420   9.574   3.967
 4618WAT     H114096   9.456   9.481   3.969
 4618WAT     H214097   9.486   9.635   3.923
 4619WAT      O14098   5.234   5.106   1.447
 4619WAT     H114099   5.305   5.061   1.501
 4619WAT     H214100   5.230   5.203   1.471
 4620WAT      O14101   6.173   1.293   7.993
 4620WAT     H114102   6.212   1.315   8.083
 4620WAT     H214103   6.237   1.322   7.921
 4621WAT      O14104   1.962   7.943   8.917
 4621WAT     H114105   1.881   7.897   8.953
 4621WAT     H214106   2.019   7.878   8.868
 4622WAT      O14107   1.343   5.127   2.469
 4622WAT     H114108   1.338   5.035   2.429
 4622WAT     H214109   1.301   5.126   2.559
 4623WAT      O14110   6.076   2.883   9.104
 4623WAT     H114111   6.167   2.869   9.142
 4623WAT     H214112   6.046   2.977   9.123
 4624WAT      O14113   3.424   5.611   6.837
 4624WAT     H114114   3.439   5.543   6.909
 4624WAT     H214115   3.448   5.702   6.872
 4625WAT      O14116   5.487   0.661   3.623
 4625WAT     H114117   5.577   0.664   3.579
 4625WAT     H214118   5.479   0.578   3.677
 4626WAT      O14119   1.528   1.076   1.418
 4626WAT     H114120   1.497   1.124   1.335
 4626WAT     H214121   1.622   1.102   1.438
 4627WAT      O14122   2.450   2.688   3.155
 4627WAT     H114123   2.432   2.776   3.111
 4627WAT     H214124   2.476   2.704   3.250
 4628WAT      O14125   9.877   7.506   9.602
 4628WAT     H114126   9.826   7.581   9.560
 4628WAT     H214127   9.947   7.474   9.539
 4629WAT      O14128   8.144   5.454   7.959
 4629WAT     H114129   8.205   5.512   7.906
 4629WAT     H214130   8.109   5.380   7.901
 4630WAT      O14131   8.588   0.883   7.831
 4630WAT     H114132   8.632   0.842   7.751
 4630WAT     H214133   8.542   0.968   7.804
 4631WAT      O14134   4.942   2.630   2.822
 4631WAT     H114135   4.850   2.638   2.860
 4631WAT     H214136   4.974   2.536   2.831
 4632WAT      O14137   6.653   7.235   5.706
 4632WAT     H114138   6.671   7.155   5.762
 4632WAT     H214139   6.555   7.241   5.688
 4633WAT      O14140   9.684   7.321   3.964
 4633WAT     H114141   9.697   7.237   3.912
 4633WAT     H214142   9.746   7.391   3.930
 4634WAT      O14143   5.555   2.634   9.006
 4634WAT     H114144   5.538   2.677   8.917
 4634WAT     H214145   5.600   2.546   8.991
 4635WAT      O14146   6.713   5.958   2.093
 4635WAT     H114147   6.813   5.955   2.082
 4635WAT     H214148   6.680   5.867   2.119
 4636WAT      O14149   1.823   6.840   4.043
 4636WAT     H114150   1.857   6.868   4.133
 4636WAT     H214151   1.858   6.749   4.021
 4637WAT      O14152   8.685   2.818   8.895
 4637WAT     H114153   8.606   2.759   8.914
 4637WAT     H214154   8.679   2.901   8.950
 4638WAT      O14155   5.473   8.519   4.058
 4638WAT     H114156   5.486   8.618   4.065
 4638WAT     H214157   5.382   8.499   4.022
 4639WAT      O14158   6.608   3.351   4.462
 4639WAT     H114159   6.556   3.266   4.475
 4639WAT     H214160   6.596   3.410   4.542
 4640WAT      O14161   4.456   8.910   1.426
 4640WAT     H114162   4.426   8.981   1.490
 4640WAT     H214163   4.379   8.849   1.406
 4641WAT      O14164   7.097   4.774   6.346
 4641WAT     H114165   7.192   4.800   6.327
 4641WAT     H214166   7.092   4.733   6.437
 4642WAT      O14167   3.584   8.857   0.971
 4642WAT     H114168   3.622   8.784   0.914
 4642WAT     H214169   3.605   8.946   0.929
 4643WAT      O14170   9.435   1.242   3.051
 4643WAT     H114171   9.342   1.252   3.084
 4643WAT     H214172   9.493   1.312   3.092
 4644WAT      O14173   9.109   6.547   1.787
 4644WAT     H114174   9.193   6.574   1.834
 4644WAT     H214175   9.128   6.539   1.689
 4645WAT      O14176   0.705   6.377   9.091
 4645WAT     H114177   0.608   6.384   9.116
 4645WAT     H214178   0.751   6.315   9.154
 4646WAT      O14179   5.023   5.714   7.573
 4646WAT     H114180   4.957   5.734   7.645
 4646WAT     H214181   5.111   5.688   7.614
 4647WAT      O14182   3.555   3.261   9.206
 4647WAT     H114183   3.542   3.290   9.111
 4647WAT     H214184   3.521   3.332   9.268
 4648WAT      O14185   5.508   0.426   0.372
 4648WAT     H114186   5.548   0.467   0.454
 4648WAT     H214187   5.569   0.441   0.294
 4649WAT      O14188   9.647   6.383   0.097
 4649WAT     H114189   9.601   6.325   0.031
 4649WAT     H214190   9.591   6.464   0.115
 4650WAT      O14191   8.294   3.248   8.996
 4650WAT     H114192   8.372   3.232   9.057
 4650WAT     H214193   8.246   3.162   8.981
 4651WAT      O14194   3.726   6.430   5.874
 4651WAT     H114195   3.782   6.492   5.928
 4651WAT     H214196   3.762   6.427   5.780
 4652WAT      O14197   7.984   3.619   1.277
 4652WAT     H114198   7.948   3.604   1.369
 4652WAT     H214199   7.965   3.539   1.221
 4653WAT      O14200   5.175   3.063   5.286
 4653WAT     H114201   5.118   3.006   5.346
 4653WAT     H214202   5.117   3.126   5.235
 4654WAT      O14203   8.781   8.646   3.223
 4654WAT     H114204   8.880   8.659   3.234
 4654WAT     H214205   8.745   8.601   3.304
 4655WAT      O14206   9.795   6.467   7.771
 4655WAT     H114207   9.822   6.461   7.867
 4655WAT     H214208   9.698   6.442   7.762
 4656WAT      O14209   4.345   2.519   9.619
 4656WAT     H114210   4.313   2.551   9.530
 4656WAT     H214211   4.417   2.451   9.607
 4657WAT      O14212   1.313   3.817   2.514
 4657WAT     H114213   1.312   3.846   2.609
 4657WAT     H214214   1.261   3.732   2.504
 4658WAT      O14215   4.640   4.938   0.239
 4658WAT     H114216   4.596   4.871   0.300
 4658WAT     H214217   4.654   5.024   0.288
 4659WAT      O14218   5.594   9.357   9.434
 4659WAT     H114219   5.560   9.439   9.479
 4659WAT     H214220   5.693   9.367   9.417
 4660WAT      O14221   7.863   4.454   2.852
 4660WAT     H114222   7.770   4.429   2.826
 4660WAT     H214223   7.928   4.418   2.786
 4661WAT      O14224   2.015   9.439   4.768
 4661WAT     H114225   2.019   9.339   4.763
 4661WAT     H214226   2.041   9.469   4.860
 4662WAT      O14227   0.624   3.701   6.786
 4662WAT     H114228   0.646   3.796   6.810
 4662WAT     H214229   0.550   3.700   6.719
 4663WAT      O14230   5.183   2.130   3.515
 4663WAT     H114231   5.154   2.104   3.607
 4663WAT     H214232   5.105   2.162   3.462
 4664WAT      O14233   8.789   7.525   8.179
 4664WAT     H114234   8.756   7.436   8.210
 4664WAT     H214235   8.828   7.516   8.087
 4665WAT      O14236   4.461   3.148   4.022
 4665WAT     H114237   4.476   3.050   4.012
 4665WAT     H214238   4.366   3.164   4.049
 4666WAT      O14239   2.944   4.820   5.693
 4666WAT     H114240   2.854   4.862   5.679
 4666WAT     H214241   2.934   4.721   5.689
 4667WAT      O14242   7.828   3.626   3.628
 4667WAT     H114243   7.847   3.560   3.555
 4667WAT     H214244   7.737   3.609   3.665
 4668WAT      O14245   8.624   0.301   7.674
 4668WAT     H114246   8.635   0.341   7.765
 4668WAT     H214247   8.607   0.203   7.682
 4669WAT      O14248   1.224   8.663   1.326
 4669WAT     H114249   1.128   8.688   1.315
 4669WAT     H214250   1.240   8.575   1.280
 4670WAT      O14251   2.322   7.968   4.675
 4670WAT     H114252   2.373   7.913   4.740
 4670WAT     H214253   2.283   7.908   4.605
 4671WAT      O14254   7.370   3.207   0.035
 4671WAT     H114255   7.300   3.179   0.100
 4671WAT     H214256   7.344   3.293  -0.008
 4672WAT      O14257   5.389   5.423   6.380
 4672WAT     H114258   5.290   5.418   6.383
 4672WAT     H214259   5.418   5.456   6.290
 4673WAT      O14260   7.614   8.662   4.164
 4673WAT     H114261   7.630   8.563   4.166
 4673WAT     H214262   7.644   8.702   4.251
 4674WAT      O14263   5.653   1.220   7.665
 4674WAT     H114264   5.677   1.295   7.726
 4674WAT     H214265   5.602   1.256   7.586
 4675WAT      O14266   7.129   5.818   3.950
 4675WAT     H114267   7.150   5.817   4.048
 4675WAT     H214268   7.212   5.800   3.898
 4676WAT      O14269   7.046   3.517   4.685
 4676WAT     H114270   7.059   3.425   4.648
 4676WAT     H214271   6.951   3.546   4.669
 4677WAT      O14272   7.479   1.896   2.096
 4677WAT     H114273   7.512   1.957   2.168
 4677WAT     H214274   7.520   1.805   2.108
 4678WAT      O14275   9.854   2.072   8.236
 4678WAT     H114276   9.784   2.091   8.167
 4678WAT     H214277   9.830   2.119   8.321
 4679WAT      O14278   8.047   5.959   1.857
 4679WAT     H114279   7.963   5.990   1.813
 4679WAT     H214280   8.064   6.015   1.938
 4680WAT      O14281   3.342   8.828   3.548
 4680WAT     H114282   3.368   8.923   3.566
 4680WAT     H214283   3.313   8.819   3.453
 4681WAT      O14284   0.415   7.782   3.734
 4681WAT     H114285   0.373   7.872   3.744
 4681WAT     H214286   0.471   7.780   3.652
 4682WAT      O14287   7.118   4.905   0.721
 4682WAT     H114288   7.036   4.915   0.665
 4682WAT     H214289   7.197   4.894   0.662
 4683WAT      O14290   9.697   0.605   2.927
 4683WAT     H114291   9.771   0.670   2.910
 4683WAT     H214292   9.635   0.643   2.996
 4684WAT      O14293   2.381   6.447   1.615
 4684WAT     H114294   2.308   6.482   1.673
 4684WAT     H214295   2.440   6.523   1.586
 4685WAT      O14296   0.448   0.292   1.744
 4685WAT     H114297   0.546   0.276   1.731
 4685WAT     H214298   0.408   0.326   1.658
 4686WAT      O14299   5.599   0.055   0.626
 4686WAT     H114300   5.633   0.123   0.561
 4686WAT     H214301   5.568   0.101   0.709
 4687WAT      O14302   8.747   1.767   4.873
 4687WAT     H114303   8.720   1.724   4.960
 4687WAT     H214304   8.750   1.697   4.802
 4688WAT      O14305   2.406   4.488   6.242
 4688WAT     H114306   2.446   4.531   6.324
 4688WAT     H214307   2.311   4.518   6.232
 4689WAT      O14308   4.955   3.229   8.064
 4689WAT     H114309   4.979   3.269   8.153
 4689WAT     H214310   4.922   3.301   8.004
 4690WAT      O14311   6.278   2.178   1.815
 4690WAT     H114312   6.321   2.190   1.725
 4690WAT     H214313   6.185   2.214   1.812
 4691WAT      O14314   1.840   8.697   2.337
 4691WAT     H114315   1.923   8.717   2.286
 4691WAT     H214316   1.813   8.777   2.390
 4692WAT      O14317   2.638   9.120   4.044
 4692WAT     H114318   2.677   9.156   3.960
 4692WAT     H214319   2.709   9.071   4.095
 4693WAT      O14320   2.156   0.839   4.656
 4693WAT     H114321   2.210   0.912   4.616
 4693WAT     H214322   2.199   0.808   4.741
 4694WAT      O14323   1.307   6.841   4.186
 4694WAT     H114324   1.350   6.774   4.124
 4694WAT     H214325   1.272   6.793   4.267
 4695WAT      O14326   5.925   1.103   1.449
 4695WAT     H114327   5.977   1.182   1.417
 4695WAT     H214328   5.980   1.051   1.515
 4696WAT      O14329   6.685   5.869   6.996
 4696WAT     H114330   6.610   5.934   7.007
 4696WAT     H214331   6.733   5.887   6.910
 4697WAT      O14332   6.939   7.811   7.665
 4697WAT     H114333   7.024   7.779   7.707
 4697WAT     H214334   6.861   7.783   7.722
 4698WAT      O14335   4.481   5.753   6.892
 4698WAT     H114336   4.552   5.756   6.821
 4698WAT     H214337   4.428   5.838   6.891
 4699WAT      O14338   4.826   4.839   8.864
 4699WAT     H114339   4.857   4.760   8.917
 4699WAT     H214340   4.748   4.811   8.807
 4700WAT      O14341   9.285   6.902   2.691
 4700WAT     H114342   9.221   6.927   2.764
 4700WAT     H214343   9.269   6.807   2.663
 4701WAT      O14344   6.372   4.220   9.731
 4701WAT     H114345   6.427   4.269   9.798
 4701WAT     H214346   6.281   4.262   9.724
 4702WAT      O14347   0.032   4.836   3.606
 4702WAT     H114348   0.061   4.760   3.548
 4702WAT     H214349  -0.067   4.833   3.619
 4703WAT      O14350   4.875   4.196   0.007
 4703WAT     H114351   4.916   4.239  -0.074
 4703WAT     H214352   4.947   4.151   0.061
 4704WAT      O14353   6.229   5.363   1.583
 4704WAT     H114354   6.312   5.418   1.579
 4704WAT     H214355   6.221   5.310   1.499
 4705WAT      O14356   7.305   7.943   9.530
 4705WAT     H114357   7.210   7.935   9.559
 4705WAT     H214358   7.336   8.038   9.541
 4706WAT      O14359   2.984   4.765   6.997
 4706WAT     H114360   3.083   4.756   7.009
 4706WAT     H214361   2.959   4.862   6.997
 4707WAT      O14362   2.132   0.995   9.625
 4707WAT     H114363   2.064   1.060   9.591
 4707WAT     H214364   2.095   0.945   9.703
 4708WAT      O14365   4.226   1.372   2.177
 4708WAT     H114366   4.220   1.438   2.102
 4708WAT     H214367   4.133   1.344   2.204
 4709WAT      O14368   9.073   4.870   8.448
 4709WAT     H114369   9.017   4.863   8.530
 4709WAT     H214370   9.110   4.962   8.441
 4710WAT      O14371   2.844   0.402   6.848
 4710WAT     H114372   2.836   0.497   6.820
 4710WAT     H214373   2.915   0.395   6.918
 4711WAT      O14374   6.414   7.905   1.627
 4711WAT     H114375   6.424   7.896   1.726
 4711WAT     H214376   6.502   7.887   1.582
 4712WAT      O14377   0.916   6.313   5.941
 4712WAT     H114378   0.919   6.220   5.979
 4712WAT     H214379   0.871   6.311   5.851
 4713WAT      O14380   9.440   1.661   0.136
 4713WAT     H114381   9.508   1.727   0.171
 4713WAT     H214382   9.457   1.572   0.177
 4714WAT      O14383   2.830   2.989   8.823
 4714WAT     H114384   2.838   2.909   8.764
 4714WAT     H214385   2.755   3.047   8.790
 4715WAT      O14386   4.830   2.408   2.305
 4715WAT     H114387   4.801   2.327   2.357
 4715WAT     H214388   4.750   2.465   2.285
 4716WAT      O14389   0.986   1.796   2.963
 4716WAT     H114390   1.082   1.823   2.968
 4716WAT     H214391   0.935   1.838   3.038
 4717WAT      O14392   7.990   8.205   1.103
 4717WAT     H114393   8.009   8.123   1.049
 4717WAT     H214394   7.954   8.277   1.043
 4718WAT      O14395   1.486   7.885   8.178
 4718WAT     H114396   1.467   7.978   8.147
 4718WAT     H214397   1.402   7.831   8.177
 4719WAT      O14398   1.964   3.243   8.903
 4719WAT     H114399   2.054   3.286   8.916
 4719WAT     H214400   1.977   3.149   8.873
 4720WAT      O14401   0.376   3.040   9.491
 4720WAT     H114402   0.329   3.106   9.433
 4720WAT     H214403   0.419   3.088   9.568
 4721WAT      O14404   1.952   5.799   3.771
 4721WAT     H114405   2.000   5.887   3.771
 4721WAT     H214406   1.879   5.801   3.702
 4722WAT      O14407   3.196   3.983   8.535
 4722WAT     H114408   3.197   3.893   8.577
 4722WAT     H214409   3.251   3.982   8.451
 4723WAT      O14410   0.946   6.155   4.053
 4723WAT     H114411   0.983   6.082   3.995
 4723WAT     H214412   0.929   6.236   3.997
 4724WAT      O14413   6.989   5.521   7.569
 4724WAT     H114414   6.933   5.513   7.487
 4724WAT     H214415   6.964   5.449   7.634
 4725WAT      O14416   2.037   7.305   8.827
 4725WAT     H114417   1.974   7.264   8.761
 4725WAT     H214418   2.094   7.373   8.781
 4726WAT      O14419   8.087   4.614   8.115
 4726WAT     H114420   8.097   4.689   8.180
 4726WAT     H214421   8.175   4.596   8.072
 4727WAT      O14422   7.901   2.083   2.843
 4727WAT     H114423   7.910   2.045   2.935
 4727WAT     H214424   7.958   2.165   2.835
 4728WAT      O14425   8.603   1.381   2.772
 4728WAT     H114426   8.565   1.378   2.864
 4728WAT     H214427   8.534   1.352   2.706
 4729WAT      O14428   0.047   1.425   1.677
 4729WAT     H114429   0.061   1.326   1.682
 4729WAT     H214430  -0.038   1.449   1.724
 4730WAT      O14431   7.464   9.714   1.099
 4730WAT     H114432   7.522   9.692   1.020
 4730WAT     H214433   7.371   9.680   1.081
 4731WAT      O14434   1.015   7.493   0.574
 4731WAT     H114435   1.089   7.428   0.554
 4731WAT     H214436   1.028   7.576   0.521
 4732WAT      O14437   1.144   8.441   5.611
 4732WAT     H114438   1.136   8.417   5.514
 4732WAT     H214439   1.169   8.359   5.663
 4733WAT      O14440   9.801   5.099   7.247
 4733WAT     H114441   9.749   5.106   7.332
 4733WAT     H214442   9.743   5.063   7.175
 4734WAT      O14443   5.012   7.749   7.602
 4734WAT     H114444   5.011   7.710   7.694
 4734WAT     H214445   5.100   7.792   7.585
 4735WAT      O14446   3.145   0.126   8.836
 4735WAT     H114447   3.237   0.161   8.826
 4735WAT     H214448   3.138   0.076   8.923
 4736WAT      O14449   6.110   1.635   8.691
 4736WAT     H114450   6.050   1.712   8.713
 4736WAT     H214451   6.147   1.595   8.776
 4737WAT      O14452   7.242   4.946   7.504
 4737WAT     H114453   7.239   4.847   7.517
 4737WAT     H214454   7.221   4.968   7.408
 4738WAT      O14455   9.210   5.179   2.068
 4738WAT     H114456   9.175   5.222   1.985
 4738WAT     H214457   9.309   5.186   2.070
 4739WAT      O14458   4.583   3.455   7.785
 4739WAT     H114459   4.513   3.416   7.725
 4739WAT     H214460   4.538   3.515   7.851
 4740WAT      O14461   9.677   7.167   7.436
 4740WAT     H114462   9.614   7.147   7.510
 4740WAT     H214463   9.631   7.154   7.348
 4741WAT      O14464   2.398   7.767   1.365
 4741WAT     H114465   2.493   7.753   1.336
 4741WAT     H214466   2.374   7.699   1.434
 4742WAT      O14467   1.019   3.684   4.258
 4742WAT     H114468   0.986   3.774   4.288
 4742WAT     H214469   0.985   3.665   4.166
 4743WAT      O14470   0.514   2.922   6.625
 4743WAT     H114471   0.461   2.927   6.541
 4743WAT     H214472   0.518   2.827   6.656
 4744WAT      O14473   2.613   8.545   9.393
 4744WAT     H114474   2.564   8.614   9.446
 4744WAT     H214475   2.683   8.589   9.337
 4745WAT      O14476   5.790   4.399   9.101
 4745WAT     H114477   5.845   4.431   9.023
 4745WAT     H214478   5.735   4.475   9.136
 4746WAT      O14479   8.346   7.781   8.695
 4746WAT     H114480   8.257   7.826   8.689
 4746WAT     H214481   8.383   7.769   8.603
 4747WAT      O14482   4.076   2.878   6.150
 4747WAT     H114483   3.988   2.899   6.192
 4747WAT     H214484   4.078   2.782   6.122
 4748WAT      O14485   6.465   2.166   2.022
 4748WAT     H114486   6.385   2.182   1.964
 4748WAT     H214487   6.546   2.153   1.965
 4749WAT      O14488   1.517   9.065   5.191
 4749WAT     H114489   1.503   9.163   5.178
 4749WAT     H214490   1.431   9.023   5.219
 4750WAT      O14491   3.485   4.298   4.163
 4750WAT     H114492   3.389   4.303   4.139
 4750WAT     H214493   3.496   4.310   4.262
 4751WAT      O14494   7.001   8.835   4.911
 4751WAT     H114495   7.092   8.792   4.912
 4751WAT     H214496   7.011   8.933   4.890
 4752WAT      O14497   7.937   2.373   8.111
 4752WAT     H114498   7.848   2.381   8.157
 4752WAT     H214499   7.933   2.299   8.044
 4753WAT      O14500   7.559   9.072   1.773
 4753WAT     H114501   7.496   9.026   1.835
 4753WAT     H214502   7.653   9.045   1.795
 4754WAT      O14503   1.915   1.957   5.708
 4754WAT     H114504   1.921   2.042   5.656
 4754WAT     H214505   2.005   1.914   5.713
 4755WAT      O14506   6.675   0.319   9.271
 4755WAT     H114507   6.732   0.282   9.198
 4755WAT     H214508   6.650   0.413   9.250
 4756WAT      O14509   1.599   2.702   3.104
 4756WAT     H114510   1.521   2.744   3.058
 4756WAT     H214511   1.613   2.610   3.069
 4757WAT      O14512   5.280   8.536   4.619
 4757WAT     H114513   5.258   8.439   4.629
 4757WAT     H214514   5.200   8.590   4.644
 4758WAT      O14515   2.244   6.855   4.904
 4758WAT     H114516   2.156   6.856   4.951
 4758WAT     H214517   2.245   6.927   4.834
 4759WAT      O14518   2.643   7.418   4.360
 4759WAT     H114519   2.709   7.375   4.299
 4759WAT     H214520   2.691   7.477   4.425
 4760WAT      O14521   4.969   5.486   2.282
 4760WAT     H114522   4.920   5.461   2.198
 4760WAT     H214523   4.915   5.459   2.361
 4761WAT      O14524   8.497   9.195   8.354
 4761WAT     H114525   8.570   9.133   8.326
 4761WAT     H214526   8.447   9.155   8.431
 4762WAT      O14527   2.073   0.721   8.073
 4762WAT     H114528   2.119   0.786   8.134
 4762WAT     H214529   2.104   0.736   7.979
 4763WAT      O14530   9.590   1.447   7.374
 4763WAT     H114531   9.548   1.524   7.423
 4763WAT     H214532   9.680   1.428   7.413
 4764WAT      O14533   7.446   8.683   2.257
 4764WAT     H114534   7.492   8.681   2.346
 4764WAT     H214535   7.430   8.778   2.230
 4765WAT      O14536   5.828   7.571   8.508
 4765WAT     H114537   5.896   7.532   8.446
 4765WAT     H214538   5.762   7.625   8.455
 4766WAT      O14539   2.798   0.694   0.410
 4766WAT     H114540   2.838   0.610   0.373
 4766WAT     H214541   2.839   0.714   0.499
 4767WAT      O14542   7.139   1.111   0.218
 4767WAT     H114543   7.186   1.198   0.199
 4767WAT     H214544   7.182   1.037   0.166
 4768WAT      O14545   2.024   9.132   6.623
 4768WAT     H114546   1.987   9.131   6.530
 4768WAT     H214547   1.951   9.153   6.688
 4769WAT      O14548   2.281   6.062   6.290
 4769WAT     H114549   2.345   6.139   6.295
 4769WAT     H214550   2.331   5.979   6.265
 4770WAT      O14551   2.008   5.355   7.410
 4770WAT     H114552   1.979   5.320   7.320
 4770WAT     H214553   2.105   5.381   7.406
 4771WAT      O14554   9.099   3.297   1.317
 4771WAT     H114555   9.155   3.359   1.373
 4771WAT     H214556   9.077   3.341   1.230
 4772WAT      O14557   6.529   3.490   4.684
 4772WAT     H114558   6.571   3.557   4.746
 4772WAT     H214559   6.430   3.502   4.684
 4773WAT      O14560   8.309   5.158   3.958
 4773WAT     H114561   8.389   5.208   3.989
 4773WAT     H214562   8.229   5.184   4.012
 4774WAT      O14563   7.083   3.926   7.797
 4774WAT     H114564   7.141   3.850   7.767
 4774WAT     H214565   7.014   3.892   7.860
 4775WAT      O14566   7.223   0.315   2.030
 4775WAT     H114567   7.155   0.376   1.990
 4775WAT     H214568   7.206   0.221   2.000
 4776WAT      O14569   3.427   6.365   8.620
 4776WAT     H114570   3.421   6.316   8.707
 4776WAT     H214571   3.418   6.463   8.636
 4777WAT      O14572   6.744   9.640   5.297
 4777WAT     H114573   6.708   9.729   5.269
 4777WAT     H214574   6.676   9.570   5.278
 4778WAT      O14575   1.168   3.631   7.660
 4778WAT     H114576   1.180   3.716   7.712
 4778WAT     H214577   1.138   3.558   7.721
 4779WAT      O14578   4.996   3.266   7.576
 4779WAT     H114579   4.988   3.338   7.507
 4779WAT     H214580   4.917   3.269   7.637
 4780WAT      O14581   0.543   7.296   3.920
 4780WAT     H114582   0.563   7.318   4.016
 4780WAT     H214583   0.501   7.375   3.876
 4781WAT      O14584   5.942   4.523   5.917
 4781WAT     H114585   5.994   4.561   5.840
 4781WAT     H214586   5.913   4.430   5.894
 4782WAT      O14587   0.770   5.385   3.787
 4782WAT     H114588   0.760   5.352   3.693
 4782WAT     H214589   0.737   5.316   3.850
 4783WAT      O14590   0.431   0.035   7.912
 4783WAT     H114591   0.360   0.033   7.982
 4783WAT     H214592   0.413  -0.036   7.844
 4784WAT      O14593   8.590   4.416   0.037
 4784WAT     H114594   8.528   4.437  -0.038
 4784WAT     H214595   8.616   4.501   0.084
 4785WAT      O14596   5.526   1.055   0.776
 4785WAT     H114597   5.564   0.969   0.742
 4785WAT     H214598   5.478   1.038   0.862
 4786WAT      O14599   9.805   9.357   6.472
 4786WAT     H114600   9.776   9.377   6.379
 4786WAT     H214601   9.725   9.352   6.532
 4787WAT      O14602   5.159   8.243   5.845
 4787WAT     H114603   5.145   8.276   5.752
 4787WAT     H214604   5.237   8.179   5.846
 4788WAT      O14605   8.596   5.120   6.849
 4788WAT     H114606   8.573   5.155   6.758
 4788WAT     H214607   8.693   5.136   6.868
 4789WAT      O14608   8.593   1.342   9.308
 4789WAT     H114609   8.616   1.245   9.300
 4789WAT     H214610   8.509   1.352   9.361
 4790WAT      O14611   5.308   4.653   7.934
 4790WAT     H114612   5.351   4.714   8.000
 4790WAT     H214613   5.234   4.603   7.979
 4791WAT      O14614   2.841   0.052   3.599
 4791WAT     H114615   2.872   0.091   3.685
 4791WAT     H214616   2.879  -0.040   3.587
 4792WAT      O14617   1.593   6.413   5.435
 4792WAT     H114618   1.594   6.369   5.525
 4792WAT     H214619   1.663   6.371   5.377
 4793WAT      O14620   0.151   1.214   9.335
 4793WAT     H114621   0.131   1.135   9.277
 4793WAT     H214622   0.250   1.228   9.338
 4794WAT      O14623   8.166   7.296   3.286
 4794WAT     H114624   8.261   7.270   3.302
 4794WAT     H214625   8.106   7.231   3.331
 4795WAT      O14626   4.773   1.973   7.282
 4795WAT     H114627   4.836   2.044   7.249
 4795WAT     H214628   4.777   1.970   7.381
 4796WAT      O14629   4.573   2.004   7.112
 4796WAT     H114630   4.634   1.994   7.190
 4796WAT     H214631   4.542   2.098   7.106
 4797WAT      O14632   4.810   2.616   7.174
 4797WAT     H114633   4.799   2.533   7.228
 4797WAT     H214634   4.872   2.679   7.222
 4798WAT      O14635   5.836   9.396   2.558
 4798WAT     H114636   5.754   9.453   2.570
 4798WAT     H214637   5.875   9.413   2.467
 4799WAT      O14638   6.384   3.050   8.958
 4799WAT     H114639   6.415   3.063   8.864
 4799WAT     H214640   6.462   3.060   9.020
 4800WAT      O14641   5.105   6.492   4.948
 4800WAT     H114642   5.060   6.551   4.881
 4800WAT     H214643   5.038   6.429   4.988
 4801WAT      O14644   0.655   0.380   0.308
 4801WAT     H114645   0.616   0.471   0.324
 4801WAT     H214646   0.585   0.321   0.268
 4802WAT      O14647   2.143   0.464   2.797
 4802WAT     H114648   2.229   0.496   2.756
 4802WAT     H214649   2.163   0.395   2.866
 4803WAT      O14650   4.190   3.506   2.019
 4803WAT     H114651   4.247   3.510   2.101
 4803WAT     H214652   4.211   3.583   1.959
 4804WAT      O14653   6.357   8.621   1.567
 4804WAT     H114654   6.404   8.533   1.556
 4804WAT     H214655   6.295   8.636   1.491
 4805WAT      O14656   1.715   9.041   4.403
 4805WAT     H114657   1.781   8.967   4.408
 4805WAT     H214658   1.622   9.003   4.400
 4806WAT      O14659   3.222   4.223   3.787
 4806WAT     H114660   3.169   4.190   3.865
 4806WAT     H214661   3.282   4.297   3.816
 4807WAT      O14662   7.527   4.972   7.931
 4807WAT     H114663   7.490   5.064   7.913
 4807WAT     H214664   7.591   4.948   7.858
 4808WAT      O14665   3.485   6.340   5.721
 4808WAT     H114666   3.467   6.244   5.702
 4808WAT     H214667   3.547   6.348   5.799
 4809WAT      O14668   0.557   3.061   8.145
 4809WAT     H114669   0.475   3.112   8.170
 4809WAT     H214670   0.532   2.969   8.118
 4810WAT      O14671   0.807   7.066   0.407
 4810WAT     H114672   0.826   7.002   0.481
 4810WAT     H214673   0.889   7.078   0.351
 4811WAT      O14674   4.430   9.680   3.693
 4811WAT     H114675   4.523   9.648   3.674
 4811WAT     H214676   4.409   9.757   3.633
 4812WAT      O14677   7.572   1.238   4.484
 4812WAT     H114678   7.479   1.272   4.469
 4812WAT     H214679   7.605   1.268   4.573
 4813WAT      O14680   5.472   8.023   3.045
 4813WAT     H114681   5.378   7.988   3.035
 4813WAT     H214682   5.503   8.059   2.957
 4814WAT      O14683   1.896   0.536   0.939
 4814WAT     H114684   1.862   0.609   0.998
 4814WAT     H214685   1.991   0.516   0.961
 4815WAT      O14686   7.335   5.229   3.596
 4815WAT     H114687   7.424   5.188   3.615
 4815WAT     H214688   7.282   5.234   3.680
 4816WAT      O14689   1.705   6.429   5.030
 4816WAT     H114690   1.725   6.434   4.932
 4816WAT     H214691   1.694   6.521   5.067
 4817WAT      O14692   5.738   9.524   3.314
 4817WAT     H114693   5.822   9.507   3.365
 4817WAT     H214694   5.742   9.477   3.225
 4818WAT      O14695   5.737   2.586   2.300
 4818WAT     H114696   5.736   2.606   2.398
 4818WAT     H214697   5.652   2.539   2.275
 4819WAT      O14698   6.222   3.226   2.633
 4819WAT     H114699   6.261   3.301   2.687
 4819WAT     H214700   6.199   3.150   2.693
 4820WAT      O14701   0.062   4.063   6.279
 4820WAT     H114702   0.114   4.125   6.338
 4820WAT     H214703  -0.005   4.115   6.226
 4821WAT      O14704   7.331   0.740   8.100
 4821WAT     H114705   7.399   0.782   8.040
 4821WAT     H214706   7.266   0.688   8.044
 4822WAT      O14707   2.218   4.765   9.751
 4822WAT     H114708   2.191   4.690   9.812
 4822WAT     H214709   2.137   4.811   9.717
 4823WAT      O14710   7.098   7.576   9.022
 4823WAT     H114711   7.197   7.565   9.032
 4823WAT     H214712   7.055   7.575   9.113
 4824WAT      O14713   7.437   7.280   7.951
 4824WAT     H114714   7.343   7.286   7.918
 4824WAT     H214715   7.500   7.287   7.874
 4825WAT      O14716   4.234   2.158   8.702
 4825WAT     H114717   4.240   2.253   8.670
 4825WAT     H214718   4.325   2.118   8.706
 4826WAT      O14719   5.176   7.672   0.771
 4826WAT     H114720   5.267   7.675   0.729
 4826WAT     H214721   5.134   7.582   0.755
 4827WAT      O14722   5.204   3.301   8.654
 4827WAT     H114723   5.243   3.279   8.565
 4827WAT     H214724   5.249   3.245   8.724
 4828WAT      O14725   7.598   6.162   8.635
 4828WAT     H114726   7.655   6.079   8.633
 4828WAT     H214727   7.656   6.242   8.621
 4829WAT      O14728   7.454   0.127   7.375
 4829WAT     H114729   7.550   0.133   7.348
 4829WAT     H214730   7.396   0.124   7.293
 4830WAT      O14731   5.006   8.919   4.516
 4830WAT     H114732   5.065   8.892   4.440
 4830WAT     H214733   4.910   8.909   4.488
 4831WAT      O14734   9.667   7.259   7.002
 4831WAT     H114735   9.592   7.324   6.995
 4831WAT     H214736   9.695   7.229   6.911
 4832WAT      O14737   6.195   3.271   3.642
 4832WAT     H114738   6.240   3.210   3.707
 4832WAT     H214739   6.192   3.228   3.552
 4833WAT      O14740   5.422   7.178   3.494
 4833WAT     H114741   5.501   7.140   3.448
 4833WAT     H214742   5.352   7.203   3.426
 4834WAT      O14743   7.687   4.080   8.110
 4834WAT     H114744   7.785   4.060   8.117
 4834WAT     H214745   7.667   4.168   8.154
 4835WAT      O14746   2.591   1.008   3.378
 4835WAT     H114747   2.641   0.928   3.346
 4835WAT     H214748   2.623   1.033   3.470
 4836WAT      O14749   8.042   7.495   3.404
 4836WAT     H114750   7.973   7.451   3.462
 4836WAT     H214751   8.107   7.427   3.372
 4837WAT      O14752   3.268   3.579   9.020
 4837WAT     H114753   3.195   3.522   8.982
 4837WAT     H214754   3.293   3.649   8.953
 4838WAT      O14755   8.707   6.069   1.049
 4838WAT     H114756   8.776   5.998   1.034
 4838WAT     H214757   8.644   6.072   0.971
 4839WAT      O14758   4.318   8.305   8.295
 4839WAT     H114759   4.317   8.260   8.384
 4839WAT     H214760   4.226   8.336   8.273
 4840WAT      O14761   4.325   8.747   7.026
 4840WAT     H114762   4.239   8.787   7.058
 4840WAT     H214763   4.359   8.799   6.948
 4841WAT      O14764   7.304   5.839   2.278
 4841WAT     H114765   7.378   5.795   2.227
 4841WAT     H214766   7.299   5.936   2.254
 4842WAT      O14767   3.845   7.444   8.228
 4842WAT     H114768   3.833   7.355   8.184
 4842WAT     H214769   3.787   7.511   8.181
 4843WAT      O14770   9.067   2.166   0.231
 4843WAT     H114771   9.110   2.241   0.180
 4843WAT     H214772   9.124   2.084   0.222
 4844WAT      O14773   4.785   8.800   2.110
 4844WAT     H114774   4.858   8.866   2.091
 4844WAT     H214775   4.712   8.846   2.161
 4845WAT      O14776   2.541   1.367   0.556
 4845WAT     H114777   2.457   1.419   0.571
 4845WAT     H214778   2.551   1.347   0.459
 4846WAT      O14779   1.422   7.667   8.726
 4846WAT     H114780   1.485   7.597   8.761
 4846WAT     H214781   1.450   7.694   8.634
 4847WAT      O14782   3.382   0.258   9.193
 4847WAT     H114783   3.474   0.286   9.220
 4847WAT     H214784   3.315   0.309   9.247
 4848WAT      O14785   2.644   2.585   8.730
 4848WAT     H114786   2.616   2.641   8.651
 4848WAT     H214787   2.741   2.599   8.749
 4849WAT      O14788   0.289   5.217   4.296
 4849WAT     H114789   0.333   5.155   4.362
 4849WAT     H214790   0.347   5.225   4.215
 4850WAT      O14791   4.767   2.988   5.993
 4850WAT     H114792   4.832   3.036   5.935
 4850WAT     H214793   4.712   2.925   5.937
 4851WAT      O14794   5.361   2.968   7.467
 4851WAT     H114795   5.308   2.883   7.475
 4851WAT     H214796   5.311   3.042   7.512
 4852WAT      O14797   9.275   3.286   6.725
 4852WAT     H114798   9.308   3.272   6.632
 4852WAT     H214799   9.248   3.198   6.764
 4853WAT      O14800   3.263   3.861   2.186
 4853WAT     H114801   3.269   3.958   2.206
 4853WAT     H214802   3.168   3.831   2.194
 4854WAT      O14803   5.728   2.468   5.183
 4854WAT     H114804   5.767   2.434   5.098
 4854WAT     H214805   5.747   2.402   5.256
 4855WAT      O14806   7.034   6.934   0.268
 4855WAT     H114807   7.132   6.916   0.277
 4855WAT     H214808   7.020   7.026   0.233
 4856WAT      O14809   1.946   6.031   8.960
 4856WAT     H114810   2.042   6.042   8.986
 4856WAT     H214811   1.927   6.086   8.879
 4857WAT      O14812   7.096   5.952   9.761
 4857WAT     H114813   7.047   5.866   9.749
 4857WAT     H214814   7.190   5.942   9.729
 4858WAT      O14815   9.134   1.269   4.423
 4858WAT     H114816   9.156   1.172   4.412
 4858WAT     H214817   9.148   1.295   4.519
 4859WAT      O14818   5.589   4.305   8.458
 4859WAT     H114819   5.491   4.315   8.439
 4859WAT     H214820   5.640   4.373   8.406
 4860WAT      O14821   8.914   1.684   1.725
 4860WAT     H114822   8.857   1.619   1.776
 4860WAT     H214823   8.991   1.636   1.684
 4861WAT      O14824   0.726   1.650   8.840
 4861WAT     H114825   0.789   1.671   8.914
 4861WAT     H214826   0.742   1.556   8.808
 4862WAT      O14827   3.224   6.027   1.542
 4862WAT     H114828   3.307   6.011   1.594
 4862WAT     H214829   3.152   5.965   1.574
 4863WAT      O14830   4.097   3.888   6.516
 4863WAT     H114831   4.067   3.833   6.594
 4863WAT     H214832   4.179   3.848   6.476
 4864WAT      O14833   3.657   5.665   7.008
 4864WAT     H114834   3.617   5.757   7.010
 4864WAT     H214835   3.648   5.623   7.098
 4865WAT      O14836   2.794   5.673   4.737
 4865WAT     H114837   2.832   5.717   4.656
 4865WAT     H214838   2.762   5.743   4.801
 4866WAT      O14839   4.725   8.998   0.719
 4866WAT     H114840   4.797   9.068   0.722
 4866WAT     H214841   4.723   8.948   0.806
 4867WAT      O14842   4.363   3.477   9.197
 4867WAT     H114843   4.430   3.468   9.271
 4867WAT     H214844   4.285   3.417   9.216
 4868WAT      O14845   5.294   3.002   2.788
 4868WAT     H114846   5.266   3.056   2.708
 4868WAT     H214847   5.235   2.921   2.794
 4869WAT      O14848   7.797   7.075   7.408
 4869WAT     H114849   7.790   6.994   7.350
 4869WAT     H214850   7.789   7.157   7.352
 4870WAT      O14851   6.301   1.118   2.813
 4870WAT     H114852   6.209   1.098   2.780
 4870WAT     H214853   6.302   1.208   2.857
 4871WAT      O14854   8.949   9.828   0.558
 4871WAT     H114855   8.949   9.822   0.458
 4871WAT     H214856   9.033   9.874   0.588
 4872WAT      O14857   4.673   9.566   6.174
 4872WAT     H114858   4.736   9.493   6.200
 4872WAT     H214859   4.619   9.592   6.254
 4873WAT      O14860   0.274   7.964   3.153
 4873WAT     H114861   0.181   7.939   3.127
 4873WAT     H214862   0.279   7.974   3.253
 4874WAT      O14863   1.012   6.482   2.456
 4874WAT     H114864   1.067   6.561   2.484
 4874WAT     H214865   0.925   6.483   2.506
 4875WAT      O14866   5.508   9.541   0.324
 4875WAT     H114867   5.559   9.493   0.253
 4875WAT     H214868   5.477   9.629   0.289
 4876WAT      O14869   0.849   1.267   2.548
 4876WAT     H114870   0.908   1.187   2.544
 4876WAT     H214871   0.875   1.331   2.476
 4877WAT      O14872   0.677   6.704   3.010
 4877WAT     H114873   0.600   6.715   3.072
 4877WAT     H214874   0.739   6.633   3.045
 4878WAT      O14875   4.848   9.788   7.816
 4878WAT     H114876   4.783   9.718   7.785
 4878WAT     H214877   4.813   9.879   7.792
 4879WAT      O14878   8.420   2.695   5.938
 4879WAT     H114879   8.331   2.673   5.977
 4879WAT     H214880   8.408   2.753   5.858
 4880WAT      O14881   3.050   3.828   3.040
 4880WAT     H114882   3.029   3.917   2.999
 4880WAT     H214883   3.108   3.776   2.977
 4881WAT      O14884   6.832   0.747   2.804
 4881WAT     H114885   6.845   0.684   2.727
 4881WAT     H214886   6.746   0.797   2.791
 4882WAT      O14887   5.596   7.524   1.885
 4882WAT     H114888   5.667   7.464   1.850
 4882WAT     H214889   5.529   7.471   1.937
 4883WAT      O14890   3.784   6.090   7.394
 4883WAT     H114891   3.813   6.063   7.302
 4883WAT     H214892   3.848   6.157   7.431
 4884WAT      O14893   3.829   2.555   3.816
 4884WAT     H114894   3.826   2.455   3.824
 4884WAT     H214895   3.921   2.587   3.838
 4885WAT      O14896   1.408   7.323   4.671
 4885WAT     H114897   1.367   7.253   4.731
 4885WAT     H214898   1.507   7.323   4.684
 4886WAT      O14899   2.887   9.836   2.862
 4886WAT     H114900   2.953   9.766   2.835
 4886WAT     H214901   2.865   9.894   2.783
 4887WAT      O14902   4.795   7.254   3.520
 4887WAT     H114903   4.885   7.227   3.555
 4887WAT     H214904   4.726   7.236   3.589
 4888WAT      O14905   6.804   9.038   6.690
 4888WAT     H114906   6.852   9.090   6.619
 4888WAT     H214907   6.706   9.053   6.681
 4889WAT      O14908   7.759   7.960   2.761
 4889WAT     H114909   7.806   7.990   2.678
 4889WAT     H214910   7.747   8.038   2.823
 4890WAT      O14911   1.691   1.868   1.738
 4890WAT     H114912   1.752   1.822   1.673
 4890WAT     H214913   1.696   1.822   1.826
 4891WAT      O14914   2.999   2.135   1.831
 4891WAT     H114915   3.015   2.037   1.814
 4891WAT     H214916   2.976   2.180   1.745
 4892WAT      O14917   3.984   9.218   6.392
 4892WAT     H114918   4.012   9.145   6.454
 4892WAT     H214919   3.983   9.184   6.298
 4893WAT      O14920   9.582   5.759   6.467
 4893WAT     H114921   9.520   5.792   6.396
 4893WAT     H214922   9.569   5.660   6.479
 4894WAT      O14923   5.456   8.283   4.183
 4894WAT     H114924   5.371   8.293   4.235
 4894WAT     H214925   5.479   8.371   4.142
 4895WAT      O14926   1.155   4.904   2.888
 4895WAT     H114927   1.215   4.974   2.848
 4895WAT     H214928   1.210   4.829   2.924
 4896WAT      O14929   4.494   8.666   8.699
 4896WAT     H114930   4.507   8.571   8.727
 4896WAT     H214931   4.581   8.715   8.707
 4897WAT      O14932   2.282   8.383   3.495
 4897WAT     H114933   2.367   8.340   3.464
 4897WAT     H214934   2.302   8.474   3.530
 4898WAT      O14935   4.064   0.721   5.464
 4898WAT     H114936   4.038   0.802   5.413
 4898WAT     H214937   4.026   0.640   5.420
 4899WAT      O14938   8.570   3.441   6.385
 4899WAT     H114939   8.572   3.537   6.354
 4899WAT     H214940   8.604   3.436   6.478
 4900WAT      O14941   0.392   5.334   8.226
 4900WAT     H114942   0.403   5.255   8.287
 4900WAT     H214943   0.299   5.371   8.236
 4901WAT      O14944   3.644   5.581   8.319
 4901WAT     H114945   3.632   5.568   8.221
 4901WAT     H214946   3.715   5.519   8.353
 4902WAT      O14947   6.252   5.455   4.178
 4902WAT     H114948   6.213   5.396   4.249
 4902WAT     H214949   6.298   5.533   4.222
 4903WAT      O14950   6.024   7.735   8.606
 4903WAT     H114951   5.968   7.795   8.664
 4903WAT     H214952   5.965   7.681   8.547
 4904WAT      O14953   4.846   0.229   4.767
 4904WAT     H114954   4.826   0.138   4.731
 4904WAT     H214955   4.932   0.227   4.818
 4905WAT      O14956   7.949   4.202   5.928
 4905WAT     H114957   7.972   4.262   5.851
 4905WAT     H214958   7.955   4.106   5.898
 4906WAT      O14959   4.668   4.072   8.188
 4906WAT     H114960   4.754   4.074   8.136
 4906WAT     H214961   4.619   4.157   8.174
 4907WAT      O14962   6.364   4.957   0.345
 4907WAT     H114963   6.320   4.902   0.416
 4907WAT     H214964   6.336   5.052   0.355
 4908WAT      O14965   0.931   2.432   3.587
 4908WAT     H114966   1.023   2.456   3.557
 4908WAT     H214967   0.869   2.428   3.508
 4909WAT      O14968   4.194   9.611   2.326
 4909WAT     H114969   4.235   9.586   2.239
 4909WAT     H214970   4.237   9.559   2.400
 4910WAT      O14971   6.419   6.114   8.130
 4910WAT     H114972   6.516   6.137   8.132
 4910WAT     H214973   6.375   6.148   8.213
 4911WAT      O14974   6.751   9.295   9.721
 4911WAT     H114975   6.815   9.258   9.789
 4911WAT     H214976   6.674   9.232   9.710
 4912WAT      O14977   6.303   3.837   0.288
 4912WAT     H114978   6.383   3.810   0.233
 4912WAT     H214979   6.228   3.772   0.271
 4913WAT      O14980   9.154   8.069   7.130
 4913WAT     H114981   9.181   7.981   7.090
 4913WAT     H214982   9.055   8.072   7.141
 4914WAT      O14983   5.641   2.058   3.384
 4914WAT     H114984   5.568   2.123   3.407
 4914WAT     H214985   5.615   1.967   3.417
 4915WAT      O14986   2.379   9.074   9.303
 4915WAT     H114987   2.434   9.042   9.226
 4915WAT     H214988   2.320   9.149   9.272
 4916WAT      O14989   6.592   8.696   8.259
 4916WAT     H114990   6.562   8.764   8.326
 4916WAT     H214991   6.609   8.609   8.305
 4917WAT      O14992   2.745   6.632   0.671
 4917WAT     H114993   2.664   6.690   0.676
 4917WAT     H214994   2.759   6.585   0.758
 4918WAT      O14995   3.040   0.567   6.082
 4918WAT     H114996   3.067   0.487   6.030
 4918WAT     H214997   2.974   0.541   6.152
 4919WAT      O14998   8.133   9.045   5.157
 4919WAT     H114999   8.168   9.139   5.151
 4919WAT     H215000   8.094   9.029   5.247
 4920WAT      O15001   7.643   0.540   9.660
 4920WAT     H115002   7.713   0.568   9.594
 4920WAT     H215003   7.684   0.528   9.750
 4921WAT      O15004   0.056   1.579   9.514
 4921WAT     H115005   0.014   1.668   9.531
 4921WAT     H215006   0.138   1.591   9.458
 4922WAT      O15007   7.973   1.127   4.185
 4922WAT     H115008   7.988   1.226   4.186
 4922WAT     H215009   7.889   1.106   4.234
 4923WAT      O15010   8.788   5.297   7.260
 4923WAT     H115011   8.790   5.219   7.322
 4923WAT     H215012   8.702   5.347   7.271
 4924WAT      O15013   9.574   4.734   6.108
 4924WAT     H115014   9.516   4.770   6.180
 4924WAT     H215015   9.519   4.682   6.043
 4925WAT      O15016   8.642   2.829   7.378
 4925WAT     H115017   8.725   2.861   7.424
 4925WAT     H215018   8.574   2.805   7.447
 4926WAT      O15019   2.272   7.917   0.622
 4926WAT     H115020   2.202   7.900   0.552
 4926WAT     H215021   2.358   7.877   0.591
 4927WAT      O15022   0.720   0.493   7.066
 4927WAT     H115023   0.649   0.440   7.112
 4927WAT     H215024   0.714   0.589   7.094
 4928WAT      O15025   8.509   1.761   4.086
 4928WAT     H115026   8.583   1.766   4.020
 4928WAT     H215027   8.446   1.838   4.073
 4929WAT      O15028   7.132   1.591   1.195
 4929WAT     H115029   7.159   1.664   1.257
 4929WAT     H215030   7.208   1.569   1.134
 4930WAT      O15031   0.827   2.872   7.340
 4930WAT     H115032   0.748   2.844   7.395
 4930WAT     H215033   0.825   2.971   7.327
 4931WAT      O15034   6.109   8.171   6.480
 4931WAT     H115035   6.202   8.206   6.481
 4931WAT     H215036   6.061   8.206   6.399
 4932WAT      O15037   0.323   1.491   5.762
 4932WAT     H115038   0.329   1.545   5.846
 4932WAT     H215039   0.269   1.408   5.780
 4933WAT      O15040   7.464   9.369   4.783
 4933WAT     H115041   7.405   9.422   4.721
 4933WAT     H215042   7.420   9.282   4.804
 4934WAT      O15043   7.549   6.190   2.279
 4934WAT     H115044   7.601   6.200   2.364
 4934WAT     H215045   7.560   6.272   2.223
 4935WAT      O15046   8.857   4.035   3.533
 4935WAT     H115047   8.797   4.102   3.489
 4935WAT     H215048   8.852   4.046   3.632
 4936WAT      O15049   8.934   1.986   8.442
 4936WAT     H115050   8.976   1.994   8.532
 4936WAT     H215051   9.005   1.981   8.372
 4937WAT      O15052   3.802   5.157   1.588
 4937WAT     H115053   3.799   5.257   1.582
 4937WAT     H215054   3.742   5.127   1.662
 4938WAT      O15055   3.283   4.666   8.499
 4938WAT     H115056   3.325   4.615   8.573
 4938WAT     H215057   3.235   4.746   8.536
 4939WAT      O15058   7.038   7.953   4.212
 4939WAT     H115059   7.026   7.957   4.113
 4939WAT     H215060   7.054   8.045   4.248
 4940WAT      O15061   3.167   7.888   8.422
 4940WAT     H115062   3.189   7.982   8.398
 4940WAT     H215063   3.224   7.826   8.368
 4941WAT      O15064   4.908   6.111   0.975
 4941WAT     H115065   4.872   6.166   0.900
 4941WAT     H215066   4.907   6.014   0.949
 4942WAT      O15067   8.661   5.033   2.698
 4942WAT     H115068   8.709   5.110   2.657
 4942WAT     H215069   8.722   4.984   2.761
 4943WAT      O15070   1.443   0.997   7.158
 4943WAT     H115071   1.479   0.993   7.064
 4943WAT     H215072   1.398   1.085   7.172
 4944WAT      O15073   8.866   0.163   2.964
 4944WAT     H115074   8.854   0.078   3.016
 4944WAT     H215075   8.961   0.171   2.935
 4945WAT      O15076   5.311   0.785   3.445
 4945WAT     H115077   5.228   0.736   3.418
 4945WAT     H215078   5.349   0.743   3.527
 4946WAT      O15079   4.910   3.509   7.473
 4946WAT     H115080   4.836   3.560   7.518
 4946WAT     H215081   4.897   3.512   7.374
 4947WAT      O15082   5.800   9.764   5.390
 4947WAT     H115083   5.878   9.714   5.352
 4947WAT     H215084   5.731   9.698   5.422
 4948WAT      O15085   4.475   4.611   1.812
 4948WAT     H115086   4.523   4.542   1.866
 4948WAT     H215087   4.536   4.689   1.796
 4949WAT      O15088   9.586   7.896   7.147
 4949WAT     H115089   9.566   7.988   7.114
 4949WAT     H215090   9.503   7.856   7.186
 4950WAT      O15091   7.661   0.745   4.146
 4950WAT     H115092   7.704   0.655   4.135
 4950WAT     H215093   7.692   0.806   4.073
 4951WAT      O15094   5.338   5.467   2.277
 4951WAT     H115095   5.437   5.484   2.280
 4951WAT     H215096   5.296   5.535   2.216
 4952WAT      O15097   4.354   6.986   8.426
 4952WAT     H115098   4.274   7.034   8.462
 4952WAT     H215099   4.435   7.045   8.435
 4953WAT      O15100   1.919   5.886   4.614
 4953WAT     H115101   1.918   5.914   4.710
 4953WAT     H215102   1.826   5.886   4.578
 4954WAT      O15103   1.509   8.175   2.459
 4954WAT     H115104   1.563   8.164   2.375
 4954WAT     H215105   1.491   8.272   2.474
 4955WAT      O15106   7.161   7.292   7.957
 4955WAT     H115107   7.159   7.221   8.028
 4955WAT     H215108   7.083   7.279   7.895
 4956WAT      O15109   4.931   8.419   5.505
 4956WAT     H115110   4.872   8.355   5.456
 4956WAT     H215111   5.013   8.372   5.537
 4957WAT      O15112   4.361   2.537   7.745
 4957WAT     H115113   4.290   2.598   7.710
 4957WAT     H215114   4.326   2.443   7.749
 4958WAT      O15115   3.370   4.681   4.384
 4958WAT     H115116   3.416   4.650   4.467
 4958WAT     H215117   3.300   4.615   4.358
 4959WAT      O15118   3.131   4.218   4.438
 4959WAT     H115119   3.183   4.241   4.520
 4959WAT     H215120   3.035   4.202   4.462
 4960WAT      O15121   9.365   5.081   7.544
 4960WAT     H115122   9.323   5.063   7.633
 4960WAT     H215123   9.372   4.995   7.492
 4961WAT      O15124   8.367   5.859   3.316
 4961WAT     H115125   8.313   5.893   3.393
 4961WAT     H215126   8.464   5.880   3.330
 4962WAT      O15127   6.568   1.054   6.153
 4962WAT     H115128   6.509   1.128   6.187
 4962WAT     H215129   6.664   1.081   6.161
 4963WAT      O15130   0.623   1.956   7.713
 4963WAT     H115131   0.684   1.971   7.791
 4963WAT     H215132   0.543   2.015   7.722
 4964WAT      O15133   2.280   2.939   0.822
 4964WAT     H115134   2.282   2.920   0.724
 4964WAT     H215135   2.355   2.891   0.867
 4965WAT      O15136   8.313   7.632   5.430
 4965WAT     H115137   8.359   7.563   5.374
 4965WAT     H215138   8.364   7.718   5.425
 4966WAT      O15139   5.815   3.133   0.759
 4966WAT     H115140   5.744   3.087   0.813
 4966WAT     H215141   5.875   3.064   0.717
 4967WAT      O15142   2.670   0.554   8.151
 4967WAT     H115143   2.743   0.620   8.165
 4967WAT     H215144   2.683   0.509   8.063
 4968WAT      O15145   2.390   6.557   2.339
 4968WAT     H115146   2.466   6.515   2.290
 4968WAT     H215147   2.305   6.540   2.289
 4969WAT      O15148   4.282   2.594   9.352
 4969WAT     H115149   4.234   2.660   9.294
 4969WAT     H215150   4.339   2.534   9.296
 4970WAT      O15151   5.996   4.811   4.375
 4970WAT     H115152   6.021   4.767   4.461
 4970WAT     H215153   5.984   4.742   4.304
 4971WAT      O15154   4.290   8.333   9.069
 4971WAT     H115155   4.241   8.410   9.028
 4971WAT     H215156   4.267   8.249   9.021
 4972WAT      O15157   0.618   7.659   0.014
 4972WAT     H115158   0.660   7.641  -0.074
 4972WAT     H215159   0.585   7.754   0.016
 4973WAT      O15160   4.920   5.835   0.936
 4973WAT     H115161   4.867   5.753   0.956
 4973WAT     H215162   4.955   5.830   0.843
 4974WAT      O15163   6.165   0.921   1.277
 4974WAT     H115164   6.204   1.006   1.240
 4974WAT     H215165   6.066   0.924   1.272
 4975WAT      O15166   6.717   0.068   0.645
 4975WAT     H115167   6.680   0.006   0.576
 4975WAT     H215168   6.726   0.019   0.732
 4976WAT      O15169   9.258   9.596   0.859
 4976WAT     H115170   9.292   9.576   0.950
 4976WAT     H215171   9.230   9.512   0.814
 4977WAT      O15172   5.311   2.460   0.198
 4977WAT     H115173   5.284   2.367   0.222
 4977WAT     H215174   5.235   2.506   0.152
 4978WAT      O15175   6.744   7.531   6.967
 4978WAT     H115176   6.714   7.553   7.059
 4978WAT     H215177   6.824   7.471   6.971
 4979WAT      O15178   7.138   4.565   0.572
 4979WAT     H115179   7.223   4.572   0.519
 4979WAT     H215180   7.068   4.623   0.530
 4980WAT      O15181   6.278   4.854   0.100
 4980WAT     H115182   6.327   4.905   0.172
 4980WAT     H215183   6.186   4.834   0.132
 4981WAT      O15184   6.026   3.986   9.352
 4981WAT     H115185   5.998   4.076   9.318
 4981WAT     H215186   6.118   3.993   9.390
 4982WAT      O15187   4.081   1.105   1.748
 4982WAT     H115188   4.043   1.013   1.740
 4982WAT     H215189   4.074   1.135   1.843
 4983WAT      O15190   0.324   4.084   0.586
 4983WAT     H115191   0.275   4.125   0.509
 4983WAT     H215192   0.267   4.088   0.668
 4984WAT      O15193   0.229   6.736   8.260
 4984WAT     H115194   0.199   6.691   8.176
 4984WAT     H215195   0.212   6.835   8.252
 4985WAT      O15196   1.762   5.581   8.559
 4985WAT     H115197   1.793   5.668   8.596
 4985WAT     H215198   1.716   5.529   8.631
 4986WAT      O15199   8.350   4.087   6.916
 4986WAT     H115200   8.426   4.121   6.860
 4986WAT     H215201   8.385   4.055   7.004
 4987WAT      O15202   6.295   5.127   0.674
 4987WAT     H115203   6.282   5.220   0.708
 4987WAT     H215204   6.340   5.073   0.745
 4988WAT      O15205   2.496   4.038   2.493
 4988WAT     H115206   2.419   4.101   2.482
 4988WAT     H215207   2.479   3.955   2.439
 4989WAT      O15208   1.368   0.395   1.632
 4989WAT     H115209   1.367   0.402   1.732
 4989WAT     H215210   1.342   0.484   1.593
 4990WAT      O15211   6.979   9.110   9.391
 4990WAT     H115212   7.014   9.182   9.451
 4990WAT     H215213   6.881   9.124   9.376
 4991WAT      O15214   7.050   3.766   2.161
 4991WAT     H115215   7.013   3.675   2.176
 4991WAT     H215216   7.019   3.801   2.072
 4992WAT      O15217   5.344   2.055   5.535
 4992WAT     H115218   5.249   2.065   5.505
 4992WAT     H215219   5.360   1.960   5.563
 4993WAT      O15220   1.557   6.808   7.650
 4993WAT     H115221   1.517   6.864   7.722
 4993WAT     H215222   1.484   6.760   7.601
 4994WAT      O15223   4.249   6.955   2.800
 4994WAT     H115224   4.200   7.027   2.848
 4994WAT     H215225   4.257   6.980   2.703
 4995WAT      O15226   4.721   9.362   9.450
 4995WAT     H115227   4.651   9.334   9.516
 4995WAT     H215228   4.802   9.304   9.462
 4996WAT      O15229   9.104   3.035   1.252
 4996WAT     H115230   9.113   3.037   1.153
 4996WAT     H215231   9.105   3.128   1.288
 4997WAT      O15232   3.736   8.018   3.173
 4997WAT     H115233   3.830   8.046   3.191
 4997WAT     H215234   3.676   8.098   3.180
 4998WAT      O15235   3.587   2.184   7.373
 4998WAT     H115236   3.525   2.108   7.394
 4998WAT     H215237   3.660   2.187   7.441
 4999WAT      O15238   3.709   6.887   3.081
 4999WAT     H115239   3.713   6.794   3.117
 4999WAT     H215240   3.620   6.927   3.103
 5000WAT      O15241   6.597   4.206   8.402
 5000WAT     H115242   6.551   4.126   8.364
 5000WAT     H215243   6.538   4.248   8.471
 5001WAT      O15244   0.168   5.419   1.794
 5001WAT     H115245   0.245   5.469   1.756
 5001WAT     H215246   0.111   5.384   1.719
 5002WAT      O15247   7.871   3.951   9.603
 5002WAT     H115248   7.943   3.891   9.569
 5002WAT     H215249   7.881   3.963   9.702
 5003WAT      O15250   0.078   5.974   5.452
 5003WAT     H115251   0.122   5.894   5.412
 5003WAT     H215252   0.116   6.057   5.412
 5004WAT      O15253   9.489   5.849   0.996
 5004WAT     H115254   9.456   5.823   1.086
 5004WAT     H215255   9.440   5.930   0.964
 5005WAT      O15256   0.004   8.013   9.079
 5005WAT     H115257   0.022   8.078   9.005
 5005WAT     H215258   0.005   8.061   9.167
 5006WAT      O15259   4.831   2.464   0.992
 5006WAT     H115260   4.899   2.525   1.031
 5006WAT     H215261   4.794   2.503   0.908
 5007WAT      O15262   3.712   4.349   0.691
 5007WAT     H115263   3.692   4.440   0.728
 5007WAT     H215264   3.707   4.352   0.592
 5008WAT      O15265   8.801   4.411   1.330
 5008WAT     H115266   8.703   4.405   1.344
 5008WAT     H215267   8.847   4.424   1.418
 5009WAT      O15268   8.948   9.439   3.591
 5009WAT     H115269   9.035   9.487   3.594
 5009WAT     H215270   8.963   9.341   3.597
 5010WAT      O15271   0.520   7.075   0.986
 5010WAT     H115272   0.422   7.059   0.979
 5010WAT     H215273   0.566   7.037   0.905
 5011WAT      O15274   1.248   2.561   9.293
 5011WAT     H115275   1.196   2.578   9.209
 5011WAT     H215276   1.210   2.481   9.340
 5012WAT      O15277   1.066   1.961   0.474
 5012WAT     H115278   1.082   1.922   0.383
 5012WAT     H215279   1.140   2.024   0.497
 5013WAT      O15280   6.677   9.445   1.751
 5013WAT     H115281   6.717   9.356   1.733
 5013WAT     H215282   6.748   9.515   1.750
 5014WAT      O15283   4.596   4.776   6.280
 5014WAT     H115284   4.574   4.783   6.182
 5014WAT     H215285   4.600   4.867   6.320
 5015WAT      O15286   3.637   6.474   4.335
 5015WAT     H115287   3.587   6.449   4.252
 5015WAT     H215288   3.706   6.405   4.355
 5016WAT      O15289   8.723   4.265   4.606
 5016WAT     H115290   8.821   4.278   4.590
 5016WAT     H215291   8.674   4.350   4.586
 5017WAT      O15292   0.226   2.621   1.935
 5017WAT     H115293   0.207   2.523   1.947
 5017WAT     H215294   0.141   2.672   1.941
 5018WAT      O15295   9.749   2.948   2.504
 5018WAT     H115296   9.691   3.019   2.547
 5018WAT     H215297   9.775   2.978   2.413
 5019WAT      O15298   5.464   6.658   6.521
 5019WAT     H115299   5.509   6.623   6.439
 5019WAT     H215300   5.484   6.755   6.532
 5020WAT      O15301   4.443   3.626   3.465
 5020WAT     H115302   4.486   3.716   3.469
 5020WAT     H215303   4.364   3.629   3.403
 5021WAT      O15304   0.818   6.571   2.636
 5021WAT     H115305   0.721   6.592   2.646
 5021WAT     H215306   0.865   6.648   2.593
 5022WAT      O15307   8.288   4.650   2.166
 5022WAT     H115308   8.315   4.662   2.262
 5022WAT     H215309   8.204   4.702   2.149
 5023WAT      O15310   5.876   5.587   9.082
 5023WAT     H115311   5.893   5.550   8.991
 5023WAT     H215312   5.950   5.649   9.108
 5024WAT      O15313   3.579   2.715   2.631
 5024WAT     H115314   3.564   2.748   2.538
 5024WAT     H215315   3.642   2.637   2.628
 5025WAT      O15316   3.044   3.688   5.583
 5025WAT     H115317   3.057   3.785   5.606
 5025WAT     H215318   3.077   3.672   5.490
 5026WAT      O15319   0.915   7.498   3.367
 5026WAT     H115320   0.973   7.579   3.367
 5026WAT     H215321   0.972   7.417   3.349
 5027WAT      O15322   3.908   1.982   1.362
 5027WAT     H115323   3.849   1.915   1.408
 5027WAT     H215324   3.854   2.059   1.330
 5028WAT      O15325   0.695   7.828   0.561
 5028WAT     H115326   0.724   7.789   0.648
 5028WAT     H215327   0.645   7.913   0.577
 5029WAT      O15328   9.854   0.917   8.241
 5029WAT     H115329   9.756   0.934   8.231
 5029WAT     H215330   9.902   1.004   8.252
 5030WAT      O15331   7.319   5.919   0.832
 5030WAT     H115332   7.412   5.935   0.799
 5030WAT     H215333   7.254   5.945   0.760
 5031WAT      O15334   8.254   7.638   2.155
 5031WAT     H115335   8.251   7.545   2.118
 5031WAT     H215336   8.344   7.679   2.136
 5032WAT      O15337   5.690   7.392   2.954
 5032WAT     H115338   5.744   7.441   2.886
 5032WAT     H215339   5.610   7.446   2.980
 5033WAT      O15340   8.965   2.964   4.907
 5033WAT     H115341   8.918   2.950   4.820
 5033WAT     H215342   9.010   3.053   4.908
 5034WAT      O15343   8.866   1.496   9.155
 5034WAT     H115344   8.864   1.559   9.233
 5034WAT     H215345   8.947   1.437   9.162
 5035WAT      O15346   2.720   0.656   1.333
 5035WAT     H115347   2.658   0.621   1.403
 5035WAT     H215348   2.811   0.617   1.347
 5036WAT      O15349   0.156   6.768   6.221
 5036WAT     H115350   0.149   6.671   6.195
 5036WAT     H215351   0.199   6.819   6.146
 5037WAT      O15352   8.687   0.236   8.126
 5037WAT     H115353   8.761   0.169   8.135
 5037WAT     H215354   8.655   0.262   8.216
 5038WAT      O15355   4.556   5.919   6.660
 5038WAT     H115356   4.597   5.972   6.585
 5038WAT     H215357   4.458   5.938   6.665
 5039WAT      O15358   3.673   3.987   2.433
 5039WAT     H115359   3.582   3.980   2.474
 5039WAT     H215360   3.708   4.080   2.444
 5040WAT      O15361   0.881   2.218   6.657
 5040WAT     H115362   0.800   2.248   6.707
 5040WAT     H215363   0.945   2.295   6.647
 5041WAT      O15364   7.571   5.519   2.615
 5041WAT     H115365   7.577   5.458   2.693
 5041WAT     H215366   7.518   5.600   2.640
 5042WAT      O15367   8.158   1.062   3.974
 5042WAT     H115368   8.084   1.097   4.032
 5042WAT     H215369   8.245   1.099   4.004
 5043WAT      O15370   8.458   7.310   0.328
 5043WAT     H115371   8.426   7.226   0.283
 5043WAT     H215372   8.542   7.289   0.379
 5044WAT      O15373   0.366   1.807   7.003
 5044WAT     H115374   0.317   1.868   6.940
 5044WAT     H215375   0.463   1.806   6.979
 5045WAT      O15376   2.559   1.378   2.541
 5045WAT     H115377   2.484   1.329   2.585
 5045WAT     H215378   2.572   1.344   2.448
 5046WAT      O15379   6.559   0.066   9.019
 5046WAT     H115380   6.497   0.049   9.095
 5046WAT     H215381   6.565   0.164   9.001
 5047WAT      O15382   4.921   7.399   4.956
 5047WAT     H115383   4.907   7.460   4.878
 5047WAT     H215384   4.906   7.305   4.928
 5048WAT      O15385   5.995   9.426   4.401
 5048WAT     H115386   5.982   9.456   4.306
 5048WAT     H215387   6.093   9.425   4.421
 5049WAT      O15388   6.352   0.160   0.524
 5049WAT     H115389   6.380   0.134   0.431
 5049WAT     H215390   6.369   0.257   0.538
 5050WAT      O15391   0.095   2.156   3.485
 5050WAT     H115392   0.065   2.251   3.490
 5050WAT     H215393   0.093   2.126   3.390
 5051WAT      O15394   6.315   1.730   3.832
 5051WAT     H115395   6.239   1.770   3.884
 5051WAT     H215396   6.320   1.632   3.852
 5052WAT      O15397   0.514   2.009   1.655
 5052WAT     H115398   0.578   2.085   1.657
 5052WAT     H215399   0.564   1.923   1.650
 5053WAT      O15400   1.688   6.962   7.068
 5053WAT     H115401   1.745   7.030   7.021
 5053WAT     H215402   1.623   6.922   7.003
 5054WAT      O15403   1.092   0.245   6.658
 5054WAT     H115404   1.056   0.210   6.571
 5054WAT     H215405   1.065   0.184   6.732
 5055WAT      O15406   0.254   7.044   1.189
 5055WAT     H115407   0.244   7.074   1.094
 5055WAT     H215408   0.237   7.121   1.250
 5056WAT      O15409   2.756   8.120   5.912
 5056WAT     H115410   2.687   8.192   5.907
 5056WAT     H215411   2.786   8.109   6.007
 5057WAT      O15412   5.819   0.759   8.352
 5057WAT     H115413   5.860   0.765   8.262
 5057WAT     H215414   5.889   0.735   8.419
 5058WAT      O15415   7.154   4.199   2.421
 5058WAT     H115416   7.138   4.102   2.402
 5058WAT     H215417   7.222   4.208   2.494
 5059WAT      O15418   6.852   1.874   2.515
 5059WAT     H115419   6.853   1.784   2.558
 5059WAT     H215420   6.930   1.882   2.453
 5060WAT      O15421   5.040   2.141   7.577
 5060WAT     H115422   5.007   2.055   7.539
 5060WAT     H215423   5.044   2.210   7.504
 5061WAT      O15424   6.045   7.095   1.356
 5061WAT     H115425   6.069   6.999   1.368
 5061WAT     H215426   5.976   7.120   1.424
 5062WAT      O15427   6.860   1.929   7.971
 5062WAT     H115428   6.864   1.989   8.051
 5062WAT     H215429   6.911   1.845   7.989
 5063WAT      O15430   3.694   1.779   6.632
 5063WAT     H115431   3.733   1.732   6.553
 5063WAT     H215432   3.725   1.735   6.717
 5064WAT      O15433   5.906   5.940   7.393
 5064WAT     H115434   5.980   5.889   7.438
 5064WAT     H215435   5.943   6.024   7.353
 5065WAT      O15436   1.987   0.547   2.322
 5065WAT     H115437   2.006   0.455   2.285
 5065WAT     H215438   1.984   0.543   2.422
 5066WAT      O15439   6.189   7.136   2.139
 5066WAT     H115440   6.181   7.235   2.150
 5066WAT     H215441   6.243   7.116   2.057
 5067WAT      O15442   0.360   2.796   1.462
 5067WAT     H115443   0.300   2.774   1.539
 5067WAT     H215444   0.401   2.712   1.427
 5068WAT      O15445   8.826   8.731   0.454
 5068WAT     H115446   8.759   8.730   0.528
 5068WAT     H215447   8.778   8.728   0.366
 5069WAT      O15448   0.637   6.825   6.292
 5069WAT     H115449   0.631   6.808   6.390
 5069WAT     H215450   0.579   6.760   6.243
 5070WAT      O15451   8.315   3.474   4.434
 5070WAT     H115452   8.246   3.544   4.453
 5070WAT     H215453   8.305   3.441   4.340
 5071WAT      O15454   2.337   6.118   1.208
 5071WAT     H115455   2.318   6.213   1.233
 5071WAT     H215456   2.390   6.115   1.123
 5072WAT      O15457   3.583   7.878   3.901
 5072WAT     H115458   3.592   7.955   3.964
 5072WAT     H215459   3.489   7.874   3.866
 5073WAT      O15460   6.344   6.598   5.250
 5073WAT     H115461   6.416   6.605   5.182
 5073WAT     H215462   6.324   6.688   5.288
 5074WAT      O15463   3.033   4.187   9.266
 5074WAT     H115464   3.028   4.263   9.330
 5074WAT     H215465   3.129   4.169   9.244
 5075WAT      O15466   8.915   6.503   6.914
 5075WAT     H115467   8.972   6.576   6.950
 5075WAT     H215468   8.917   6.506   6.814
 5076WAT      O15469   0.305   6.359   7.300
 5076WAT     H115470   0.246   6.378   7.221
 5076WAT     H215471   0.313   6.441   7.357
 5077WAT      O15472   7.173   5.289   0.330
 5077WAT     H115473   7.179   5.216   0.262
 5077WAT     H215474   7.181   5.249   0.422
 5078WAT      O15475   4.021   3.554   7.025
 5078WAT     H115476   4.042   3.456   7.017
 5078WAT     H215477   3.927   3.564   7.058
 5079WAT      O15478   2.466   6.396   1.020
 5079WAT     H115479   2.470   6.446   1.107
 5079WAT     H215480   2.517   6.311   1.028
 5080WAT      O15481   4.021   9.011   6.564
 5080WAT     H115482   4.040   8.914   6.545
 5080WAT     H215483   3.925   9.021   6.591
 5081WAT      O15484   4.881   9.215   3.868
 5081WAT     H115485   4.975   9.220   3.834
 5081WAT     H215486   4.820   9.262   3.803
 5082WAT      O15487   1.642   9.335   9.581
 5082WAT     H115488   1.572   9.390   9.535
 5082WAT     H215489   1.609   9.241   9.590
 5083WAT      O15490   7.680   5.324   4.589
 5083WAT     H115491   7.633   5.267   4.521
 5083WAT     H215492   7.713   5.407   4.546
 5084WAT      O15493   4.473   9.523   1.527
 5084WAT     H115494   4.428   9.452   1.582
 5084WAT     H215495   4.406   9.566   1.467
 5085WAT      O15496   6.122   5.786   4.322
 5085WAT     H115497   6.030   5.801   4.288
 5085WAT     H215498   6.129   5.817   4.417
 5086WAT      O15499   3.418   2.170   4.134
 5086WAT     H115500   3.503   2.206   4.171
 5086WAT     H215501   3.413   2.190   4.036
 5087WAT      O15502   3.411   5.140   9.201
 5087WAT     H115503   3.331   5.117   9.257
 5087WAT     H215504   3.383   5.147   9.105
 5088WAT      O15505   6.134   5.962   2.326
 5088WAT     H115506   6.067   5.905   2.373
 5088WAT     H215507   6.087   6.028   2.267
 5089WAT      O15508   2.332   2.991   2.832
 5089WAT     H115509   2.305   3.064   2.769
 5089WAT     H215510   2.291   2.905   2.802
 5090WAT      O15511   1.842   7.684   2.706
 5090WAT     H115512   1.835   7.596   2.752
 5090WAT     H215513   1.849   7.757   2.774
 5091WAT      O15514   6.161   0.668   2.308
 5091WAT     H115515   6.132   0.572   2.310
 5091WAT     H215516   6.090   0.724   2.265
 5092WAT      O15517   6.516   1.794   6.311
 5092WAT     H115518   6.539   1.697   6.310
 5092WAT     H215519   6.599   1.848   6.324
 5093WAT      O15520   2.804   6.776   9.358
 5093WAT     H115521   2.832   6.689   9.398
 5093WAT     H215522   2.786   6.842   9.432
 5094WAT      O15523   1.405   5.265   8.581
 5094WAT     H115524   1.413   5.269   8.482
 5094WAT     H215525   1.448   5.346   8.622
 5095WAT      O15526   6.065   4.906   8.637
 5095WAT     H115527   6.116   4.840   8.581
 5095WAT     H215528   6.058   4.992   8.587
 5096WAT      O15529   1.806   5.703   3.096
 5096WAT     H115530   1.757   5.729   3.013
 5096WAT     H215531   1.876   5.771   3.116
 5097WAT      O15532   9.829   7.464   0.192
 5097WAT     H115533   9.807   7.561   0.204
 5097WAT     H215534   9.864   7.449   0.100
 5098WAT      O15535   6.831   4.883   1.904
 5098WAT     H115536   6.834   4.790   1.941
 5098WAT     H215537   6.736   4.911   1.890
 5099WAT      O15538   5.955   2.658   6.766
 5099WAT     H115539   5.894   2.707   6.703
 5099WAT     H215540   5.969   2.713   6.848
 5100WAT      O15541   4.599   5.929   5.919
 5100WAT     H115542   4.555   6.013   5.885
 5100WAT     H215543   4.617   5.867   5.842
 5101WAT      O15544   2.145   6.376   4.363
 5101WAT     H115545   2.071   6.309   4.372
 5101WAT     H215546   2.225   6.343   4.413
 5102WAT      O15547   9.165   5.837   6.224
 5102WAT     H115548   9.121   5.773   6.286
 5102WAT     H215549   9.126   5.929   6.237
 5103WAT      O15550   1.775   6.399   0.667
 5103WAT     H115551   1.847   6.342   0.628
 5103WAT     H215552   1.808   6.440   0.752
 5104WAT      O15553   6.786   7.227   3.498
 5104WAT     H115554   6.705   7.226   3.439
 5104WAT     H215555   6.835   7.313   3.485
 5105WAT      O15556   3.198   8.931   9.463
 5105WAT     H115557   3.136   8.962   9.391
 5105WAT     H215558   3.282   8.895   9.422
 5106WAT      O15559   6.222   5.581   2.242
 5106WAT     H115560   6.312   5.553   2.276
 5106WAT     H215561   6.157   5.584   2.318
 5107WAT      O15562   9.429   9.460   6.420
 5107WAT     H115563   9.334   9.466   6.451
 5107WAT     H215564   9.432   9.460   6.320
 5108WAT      O15565   3.850   8.617   1.012
 5108WAT     H115566   3.924   8.566   0.968
 5108WAT     H215567   3.771   8.619   0.951
 5109WAT      O15568   9.189   0.034   9.421
 5109WAT     H115569   9.262   0.075   9.475
 5109WAT     H215570   9.129  -0.019   9.481
 5110WAT      O15571   1.224   2.919   3.809
 5110WAT     H115572   1.286   2.955   3.740
 5110WAT     H215573   1.132   2.912   3.771
 5111WAT      O15574   0.994   8.717   8.719
 5111WAT     H115575   0.993   8.617   8.722
 5111WAT     H215576   0.929   8.748   8.650
 5112WAT      O15577   8.321   4.566   2.829
 5112WAT     H115578   8.415   4.534   2.812
 5112WAT     H215579   8.265   4.549   2.748
 5113WAT      O15580   4.486   2.200   3.651
 5113WAT     H115581   4.457   2.105   3.637
 5113WAT     H215582   4.474   2.252   3.567
 5114WAT      O15583   1.072   1.845   7.344
 5114WAT     H115584   1.079   1.750   7.312
 5114WAT     H215585   1.107   1.906   7.273
 5115WAT      O15586   8.305   8.136   8.611
 5115WAT     H115587   8.308   8.236   8.601
 5115WAT     H215588   8.243   8.098   8.543
 5116WAT      O15589   3.287   5.720   4.114
 5116WAT     H115590   3.305   5.713   4.212
 5116WAT     H215591   3.192   5.694   4.096
 5117WAT      O15592   5.760   8.444   4.697
 5117WAT     H115593   5.682   8.505   4.710
 5117WAT     H215594   5.730   8.362   4.648
 5118WAT      O15595   4.059   2.702   3.586
 5118WAT     H115596   4.082   2.624   3.644
 5118WAT     H215597   4.139   2.762   3.576
 5119WAT      O15598   1.674   3.713   4.407
 5119WAT     H115599   1.671   3.808   4.376
 5119WAT     H215600   1.708   3.655   4.333
 5120WAT      O15601   2.828   1.499   6.111
 5120WAT     H115602   2.823   1.511   6.210
 5120WAT     H215603   2.830   1.589   6.066
 5121WAT      O15604   5.401   7.147   8.186
 5121WAT     H115605   5.378   7.132   8.282
 5121WAT     H215606   5.324   7.191   8.139
 5122WAT      O15607   8.956   7.100   7.519
 5122WAT     H115608   8.967   7.017   7.574
 5122WAT     H215609   8.870   7.145   7.543
 5123WAT      O15610   1.217   5.121   0.103
 5123WAT     H115611   1.272   5.091   0.025
 5123WAT     H215612   1.278   5.152   0.176
 5124WAT      O15613   0.626   0.522   8.283
 5124WAT     H115614   0.667   0.484   8.366
 5124WAT     H215615   0.680   0.600   8.252
 5125WAT      O15616   9.360   3.069   8.984
 5125WAT     H115617   9.425   3.038   8.914
 5125WAT     H215618   9.339   2.992   9.045
 5126WAT      O15619   8.366   1.960   3.120
 5126WAT     H115620   8.418   2.044   3.134
 5126WAT     H215621   8.344   1.919   3.209
 5127WAT      O15622   2.754   1.183   5.261
 5127WAT     H115623   2.752   1.139   5.171
 5127WAT     H215624   2.843   1.167   5.303
 5128WAT      O15625   0.722   8.129   3.497
 5128WAT     H115626   0.806   8.152   3.546
 5128WAT     H215627   0.649   8.190   3.526
 5129WAT      O15628   8.941   5.569   5.436
 5129WAT     H115629   9.001   5.649   5.437
 5129WAT     H215630   8.990   5.491   5.396
 5130WAT      O15631   6.077   6.669   9.693
 5130WAT     H115632   6.142   6.593   9.693
 5130WAT     H215633   6.106   6.737   9.626
 5131WAT      O15634   8.597   4.686   8.597
 5131WAT     H115635   8.672   4.630   8.563
 5131WAT     H215636   8.511   4.653   8.558
 5132WAT      O15637   9.355   5.033   3.559
 5132WAT     H115638   9.311   5.117   3.590
 5132WAT     H215639   9.454   5.048   3.550
 5133WAT      O15640   5.178   2.504   6.058
 5133WAT     H115641   5.230   2.483   5.975
 5133WAT     H215642   5.092   2.549   6.032
 5134WAT      O15643   5.129   1.787   3.105
 5134WAT     H115644   5.138   1.823   3.012
 5134WAT     H215645   5.184   1.704   3.114
 5135WAT      O15646   0.575   9.058   8.470
 5135WAT     H115647   0.519   9.009   8.537
 5135WAT     H215648   0.635   9.122   8.518
 5136WAT      O15649   4.462   0.330   9.002
 5136WAT     H115650   4.459   0.378   8.914
 5136WAT     H215651   4.421   0.389   9.072
 5137WAT      O15652   6.296   1.074   0.330
 5137WAT     H115653   6.366   1.146   0.325
 5137WAT     H215654   6.334   0.988   0.295
 5138WAT      O15655   7.466   1.001   1.843
 5138WAT     H115656   7.396   0.981   1.775
 5138WAT     H215657   7.443   1.085   1.892
 5139WAT      O15658   7.606   5.935   2.183
 5139WAT     H115659   7.624   5.957   2.087
 5139WAT     H215660   7.581   6.018   2.232
 5140WAT      O15661   8.091   6.864   1.022
 5140WAT     H115662   8.068   6.834   0.929
 5140WAT     H215663   8.024   6.828   1.086
 5141WAT      O15664   6.404   5.162   6.412
 5141WAT     H115665   6.414   5.195   6.506
 5141WAT     H215666   6.328   5.209   6.367
 5142WAT      O15667   0.949   3.464   5.536
 5142WAT     H115668   0.955   3.466   5.436
 5142WAT     H215669   1.041   3.461   5.575
 5143WAT      O15670   5.652   3.111   2.839
 5143WAT     H115671   5.700   3.143   2.758
 5143WAT     H215672   5.576   3.173   2.860
 5144WAT      O15673   8.815   6.836   1.388
 5144WAT     H115674   8.791   6.852   1.484
 5144WAT     H215675   8.732   6.816   1.336
 5145WAT      O15676   1.150   0.391   3.110
 5145WAT     H115677   1.169   0.413   3.206
 5145WAT     H215678   1.166   0.294   3.094
 5146WAT      O15679   0.653   1.293   8.525
 5146WAT     H115680   0.570   1.345   8.504
 5146WAT     H215681   0.717   1.299   8.449
 5147WAT      O15682   1.030   0.898   4.682
 5147WAT     H115683   1.105   0.964   4.689
 5147WAT     H215684   1.050   0.820   4.742
 5148WAT      O15685   3.312   0.865   9.682
 5148WAT     H115686   3.409   0.854   9.702
 5148WAT     H215687   3.296   0.958   9.648
 5149WAT      O15688   2.319   8.005   8.736
 5149WAT     H115689   2.410   7.983   8.700
 5149WAT     H215690   2.318   8.099   8.770
 5150WAT      O15691   9.749   3.406   1.720
 5150WAT     H115692   9.737   3.352   1.637
 5150WAT     H215693   9.730   3.502   1.701
 5151WAT      O15694   2.980   1.128   5.069
 5151WAT     H115695   2.972   1.031   5.092
 5151WAT     H215696   2.918   1.149   4.993
 5152WAT      O15697   8.180   2.033   9.751
 5152WAT     H115698   8.117   1.993   9.816
 5152WAT     H215699   8.162   1.995   9.660
 5153WAT      O15700   8.303   1.571   3.034
 5153WAT     H115701   8.269   1.610   2.949
 5153WAT     H215702   8.331   1.646   3.095
 5154WAT      O15703   9.713   1.983   7.191
 5154WAT     H115704   9.751   2.058   7.243
 5154WAT     H215705   9.760   1.898   7.215
 5155WAT      O15706   4.178   9.222   3.182
 5155WAT     H115707   4.133   9.133   3.173
 5155WAT     H215708   4.244   9.217   3.257
 5156WAT      O15709   4.025   9.749   7.408
 5156WAT     H115710   4.040   9.657   7.371
 5156WAT     H215711   4.107   9.780   7.456
 5157WAT      O15712   8.674   4.283   1.103
 5157WAT     H115713   8.686   4.343   1.024
 5157WAT     H215714   8.736   4.310   1.177
 5158WAT      O15715   0.091   9.200   8.605
 5158WAT     H115716   0.084   9.101   8.594
 5158WAT     H215717   0.180   9.232   8.573
 5159WAT      O15718   0.212   9.556   0.719
 5159WAT     H115719   0.286   9.565   0.786
 5159WAT     H215720   0.184   9.646   0.687
 5160WAT      O15721   2.135   7.964   4.267
 5160WAT     H115722   2.095   7.904   4.336
 5160WAT     H215723   2.069   7.980   4.193
 5161WAT      O15724   8.395   8.748   1.856
 5161WAT     H115725   8.322   8.681   1.863
 5161WAT     H215726   8.458   8.737   1.933
 5162WAT      O15727   1.488   0.267   2.763
 5162WAT     H115728   1.404   0.283   2.711
 5162WAT     H215729   1.516   0.352   2.808
 5163WAT      O15730   2.607   0.368   0.777
 5163WAT     H115731   2.659   0.321   0.849
 5163WAT     H215732   2.656   0.361   0.690
 5164WAT      O15733   6.650   5.119   7.830
 5164WAT     H115734   6.663   5.198   7.770
 5164WAT     H215735   6.727   5.055   7.817
 5165WAT      O15736   8.564   2.202   8.987
 5165WAT     H115737   8.478   2.157   9.009
 5165WAT     H215738   8.633   2.134   8.965
 5166WAT      O15739   4.488   0.786   5.710
 5166WAT     H115740   4.436   0.845   5.647
 5166WAT     H215741   4.526   0.709   5.659
 5167WAT      O15742   7.555   4.715   7.483
 5167WAT     H115743   7.558   4.680   7.576
 5167WAT     H215744   7.495   4.657   7.427
 5168WAT      O15745   8.096   7.767   2.585
 5168WAT     H115746   8.094   7.727   2.676
 5168WAT     H215747   8.177   7.824   2.574
 5169WAT      O15748   8.870   9.409   7.687
 5169WAT     H115749   8.885   9.377   7.780
 5169WAT     H215750   8.942   9.375   7.627
 5170WAT      O15751   4.677   3.013   1.059
 5170WAT     H115752   4.667   3.099   1.109
 5170WAT     H215753   4.771   2.981   1.066
 5171WAT      O15754   6.397   4.512   7.425
 5171WAT     H115755   6.331   4.561   7.369
 5171WAT     H215756   6.349   4.445   7.481
 5172WAT      O15757   6.061   2.400   0.447
 5172WAT     H115758   6.131   2.336   0.414
 5172WAT     H215759   5.978   2.349   0.471
 5173WAT      O15760   5.267   9.296   6.215
 5173WAT     H115761   5.268   9.347   6.301
 5173WAT     H215762   5.262   9.198   6.234
 5174WAT      O15763   5.187   5.351   1.538
 5174WAT     H115764   5.116   5.347   1.608
 5174WAT     H215765   5.167   5.426   1.474
 5175WAT      O15766   4.790   7.814   1.202
 5175WAT     H115767   4.716   7.755   1.169
 5175WAT     H215768   4.798   7.805   1.301
 5176WAT      O15769   6.932   0.617   2.092
 5176WAT     H115770   6.961   0.603   1.997
 5176WAT     H215771   7.011   0.607   2.152
 5177WAT      O15772   8.458   0.695   1.191
 5177WAT     H115773   8.393   0.743   1.132
 5177WAT     H215774   8.411   0.661   1.272
 5178WAT      O15775   7.190   2.506   2.494
 5178WAT     H115776   7.200   2.605   2.487
 5178WAT     H215777   7.161   2.482   2.587
 5179WAT      O15778   7.534   1.477   6.106
 5179WAT     H115779   7.627   1.477   6.143
 5179WAT     H215780   7.531   1.420   6.024
 5180WAT      O15781   5.159   3.256   5.821
 5180WAT     H115782   5.144   3.316   5.743
 5180WAT     H215783   5.108   3.171   5.809
 5181WAT      O15784   8.375   7.179   1.421
 5181WAT     H115785   8.393   7.259   1.478
 5181WAT     H215786   8.300   7.200   1.357
 5182WAT      O15787   1.510   4.522   4.411
 5182WAT     H115788   1.480   4.545   4.503
 5182WAT     H215789   1.568   4.595   4.375
 5183WAT      O15790   2.380   0.122   5.933
 5183WAT     H115791   2.281   0.114   5.925
 5183WAT     H215792   2.405   0.142   6.028
 5184WAT      O15793   0.708   5.485   2.324
 5184WAT     H115794   0.725   5.400   2.273
 5184WAT     H215795   0.787   5.545   2.316
 5185WAT      O15796   6.881   8.377   7.257
 5185WAT     H115797   6.971   8.389   7.215
 5185WAT     H215798   6.881   8.294   7.313
 5186WAT      O15799   1.339   6.822   0.232
 5186WAT     H115800   1.304   6.911   0.204
 5186WAT     H215801   1.276   6.780   0.297
 5187WAT      O15802   7.999   7.400   9.624
 5187WAT     H115803   8.092   7.371   9.650
 5187WAT     H215804   7.994   7.500   9.626
 5188WAT      O15805   7.820   6.628   1.078
 5188WAT     H115806   7.771   6.715   1.071
 5188WAT     H215807   7.881   6.631   1.157
 5189WAT      O15808   6.271   4.112   3.811
 5189WAT     H115809   6.220   4.035   3.772
 5189WAT     H215810   6.369   4.101   3.790
 5190WAT      O15811   4.312   1.022   3.784
 5190WAT     H115812   4.263   1.072   3.713
 5190WAT     H215813   4.318   0.926   3.759
 5191WAT      O15814   9.005   5.984   6.527
 5191WAT     H115815   8.920   5.946   6.564
 5191WAT     H215816   9.083   5.946   6.577
 5192WAT      O15817   7.494   8.144   3.967
 5192WAT     H115818   7.452   8.160   3.877
 5192WAT     H215819   7.430   8.171   4.039
 5193WAT      O15820   4.763   4.198   2.272
 5193WAT     H115821   4.736   4.273   2.211
 5193WAT     H215822   4.863   4.198   2.283
 5194WAT      O15823   1.706   0.740   4.673
 5194WAT     H115824   1.678   0.835   4.680
 5194WAT     H215825   1.666   0.699   4.590
 5195WAT      O15826   2.102   6.932   0.489
 5195WAT     H115827   2.015   6.982   0.491
 5195WAT     H215828   2.130   6.917   0.394
 5196WAT      O15829   2.161   6.347   7.944
 5196WAT     H115830   2.129   6.436   7.913
 5196WAT     H215831   2.216   6.304   7.873
 5197WAT      O15832   0.538   8.701   2.453
 5197WAT     H115833   0.585   8.788   2.463
 5197WAT     H215834   0.549   8.667   2.359
 5198WAT      O15835   4.269   5.796   2.060
 5198WAT     H115836   4.302   5.810   2.153
 5198WAT     H215837   4.214   5.713   2.056
 5199WAT      O15838   1.711   5.899   8.886
 5199WAT     H115839   1.802   5.924   8.918
 5199WAT     H215840   1.660   5.981   8.862
 5200WAT      O15841   3.705   3.969   0.078
 5200WAT     H115842   3.707   3.877   0.038
 5200WAT     H215843   3.727   3.964   0.175
 5201WAT      O15844   6.270   1.023   9.472
 5201WAT     H115845   6.185   0.987   9.512
 5201WAT     H215846   6.335   0.948   9.460
 5202WAT      O15847   4.173   5.844   2.511
 5202WAT     H115848   4.205   5.810   2.423
 5202WAT     H215849   4.076   5.865   2.505
 5203WAT      O15850   5.362   7.658   4.608
 5203WAT     H115851   5.304   7.610   4.674
 5203WAT     H215852   5.444   7.693   4.654
 5204WAT      O15853   5.591   4.712   2.657
 5204WAT     H115854   5.499   4.713   2.696
 5204WAT     H215855   5.624   4.618   2.651
 5205WAT      O15856   4.338   5.930   3.306
 5205WAT     H115857   4.246   5.959   3.280
 5205WAT     H215858   4.398   6.009   3.312
 5206WAT      O15859   0.081   1.513   4.185
 5206WAT     H115860   0.022   1.593   4.197
 5206WAT     H215861   0.110   1.479   4.274
 5207WAT      O15862   6.630   8.427   1.815
 5207WAT     H115863   6.611   8.374   1.898
 5207WAT     H215864   6.708   8.488   1.831
 5208WAT      O15865   2.872   4.846   6.661
 5208WAT     H115866   2.932   4.798   6.725
 5208WAT     H215867   2.878   4.802   6.571
 5209WAT      O15868   0.439   7.537   2.918
 5209WAT     H115869   0.482   7.579   2.838
 5209WAT     H215870   0.415   7.607   2.984
 5210WAT      O15871   1.574   4.064   4.537
 5210WAT     H115872   1.482   4.033   4.561
 5210WAT     H215873   1.585   4.062   4.438
 5211WAT      O15874   6.044   3.123   9.232
 5211WAT     H115875   6.026   3.059   9.307
 5211WAT     H215876   6.021   3.216   9.260
 5212WAT      O15877   6.150   9.227   6.425
 5212WAT     H115878   6.206   9.309   6.430
 5212WAT     H215879   6.093   9.231   6.343
 5213WAT      O15880   1.412   0.615   1.956
 5213WAT     H115881   1.354   0.688   1.917
 5213WAT     H215882   1.499   0.612   1.907
 5214WAT      O15883   5.573   4.838   2.072
 5214WAT     H115884   5.548   4.911   2.136
 5214WAT     H215885   5.526   4.754   2.099
 5215WAT      O15886   8.222   1.384   7.283
 5215WAT     H115887   8.234   1.376   7.184
 5215WAT     H215888   8.167   1.308   7.316
 5216WAT      O15889   4.247   1.906   1.775
 5216WAT     H115890   4.204   1.993   1.751
 5216WAT     H215891   4.316   1.883   1.706
 5217WAT      O15892   6.910   7.390   1.695
 5217WAT     H115893   7.010   7.399   1.687
 5217WAT     H215894   6.889   7.308   1.748
 5218WAT      O15895   6.313   7.111   9.581
 5218WAT     H115896   6.329   7.210   9.586
 5218WAT     H215897   6.308   7.074   9.673
 5219WAT      O15898   2.541   1.179   9.580
 5219WAT     H115899   2.473   1.141   9.516
 5219WAT     H215900   2.494   1.229   9.652
 5220WAT      O15901   6.704   7.980   8.551
 5220WAT     H115902   6.659   7.893   8.532
 5220WAT     H215903   6.799   7.963   8.578
 5221WAT      O15904   2.274   4.015   9.892
 5221WAT     H115905   2.364   4.039   9.856
 5221WAT     H215906   2.261   3.916   9.888
 5222WAT      O15907   1.179   1.492   9.667
 5222WAT     H115908   1.153   1.464   9.574
 5222WAT     H215909   1.219   1.584   9.664
 5223WAT      O15910   5.485   8.052   6.776
 5223WAT     H115911   5.410   8.014   6.830
 5223WAT     H215912   5.455   8.134   6.728
 5224WAT      O15913   3.816   1.405   3.746
 5224WAT     H115914   3.783   1.494   3.714
 5224WAT     H215915   3.913   1.396   3.726
 5225WAT      O15916   6.743   6.303   1.735
 5225WAT     H115917   6.771   6.330   1.643
 5225WAT     H215918   6.657   6.252   1.729
 5226WAT      O15919   9.081   1.613   7.383
 5226WAT     H115920   9.028   1.573   7.459
 5226WAT     H215921   9.033   1.597   7.297
 5227WAT      O15922   6.676   3.835   5.960
 5227WAT     H115923   6.688   3.752   5.907
 5227WAT     H215924   6.664   3.812   6.056
 5228WAT      O15925   4.909   1.078   9.213
 5228WAT     H115926   4.854   1.005   9.171
 5228WAT     H215927   4.864   1.166   9.197
 5229WAT      O15928   8.751   2.739   6.417
 5229WAT     H115929   8.674   2.697   6.370
 5229WAT     H215930   8.756   2.705   6.511
 5230WAT      O15931   7.976   1.807   7.659
 5230WAT     H115932   7.926   1.762   7.733
 5230WAT     H215933   7.914   1.824   7.582
 5231WAT      O15934   1.647   6.514   2.435
 5231WAT     H115935   1.613   6.538   2.344
 5231WAT     H215936   1.651   6.415   2.444
 5232WAT      O15937   4.747   8.296   3.685
 5232WAT     H115938   4.774   8.377   3.633
 5232WAT     H215939   4.762   8.312   3.782
 5233WAT      O15940   5.533   3.487   6.628
 5233WAT     H115941   5.613   3.431   6.605
 5233WAT     H215942   5.563   3.580   6.648
 5234WAT      O15943   0.479   7.734   1.445
 5234WAT     H115944   0.391   7.724   1.492
 5234WAT     H215945   0.521   7.820   1.472
 5235WAT      O15946   9.656   1.100   7.410
 5235WAT     H115947   9.623   1.143   7.327
 5235WAT     H215948   9.579   1.063   7.462
 5236WAT      O15949   1.490   3.328   6.165
 5236WAT     H115950   1.582   3.291   6.152
 5236WAT     H215951   1.493   3.406   6.227
 5237WAT      O15952   5.737   0.517   2.335
 5237WAT     H115953   5.668   0.447   2.314
 5237WAT     H215954   5.702   0.578   2.406
 5238WAT      O15955   0.869   9.275   0.694
 5238WAT     H115956   0.847   9.195   0.640
 5238WAT     H215957   0.854   9.256   0.791
 5239WAT      O15958   5.019   7.205   8.689
 5239WAT     H115959   5.010   7.304   8.703
 5239WAT     H215960   4.933   7.160   8.714
 5240WAT      O15961   1.203   7.161   5.380
 5240WAT     H115962   1.246   7.139   5.468
 5240WAT     H215963   1.160   7.079   5.342
 5241WAT      O15964   6.013   8.412   0.361
 5241WAT     H115965   6.035   8.507   0.382
 5241WAT     H215966   5.924   8.408   0.316
 5242WAT      O15967   2.103   1.278   9.127
 5242WAT     H115968   2.008   1.284   9.095
 5242WAT     H215969   2.153   1.358   9.097
 5243WAT      O15970   3.696   5.272   7.265
 5243WAT     H115971   3.685   5.227   7.354
 5243WAT     H215972   3.792   5.267   7.237
 5244WAT      O15973   5.775   6.963   7.661
 5244WAT     H115974   5.808   6.869   7.674
 5244WAT     H215975   5.701   6.963   7.594
 5245WAT      O15976   1.787   7.299   3.124
 5245WAT     H115977   1.747   7.378   3.078
 5245WAT     H215978   1.730   7.219   3.106
 5246WAT      O15979   2.940   6.486   0.507
 5246WAT     H115980   2.874   6.426   0.462
 5246WAT     H215981   2.904   6.513   0.596
 5247WAT      O15982   3.748   7.194   0.598
 5247WAT     H115983   3.703   7.130   0.660
 5247WAT     H215984   3.708   7.285   0.610
 5248WAT      O15985   7.940   9.149   0.834
 5248WAT     H115986   7.924   9.247   0.830
 5248WAT     H215987   8.038   9.130   0.829
 5249WAT      O15988   7.371   7.730   3.007
 5249WAT     H115989   7.313   7.679   2.945
 5249WAT     H215990   7.448   7.769   2.956
 5250WAT      O15991   0.907   7.220   7.770
 5250WAT     H115992   0.848   7.224   7.689
 5250WAT     H215993   0.985   7.161   7.752
 5251WAT      O15994   0.781   5.053   0.234
 5251WAT     H115995   0.786   5.151   0.253
 5251WAT     H215996   0.776   5.038   0.135
 5252WAT      O15997   4.536   3.916   7.371
 5252WAT     H115998   4.581   3.980   7.308
 5252WAT     H215999   4.575   3.927   7.463
 5253WAT      O16000   6.142   5.893   4.556
 5253WAT     H116001   6.162   5.983   4.593
 5253WAT     H216002   6.071   5.849   4.612
 5254WAT      O16003   0.366   1.722   5.474
 5254WAT     H116004   0.331   1.816   5.468
 5254WAT     H216005   0.293   1.662   5.507
 5255WAT      O16006   9.617   8.237   0.832
 5255WAT     H116007   9.531   8.189   0.820
 5255WAT     H216008   9.663   8.204   0.914
 5256WAT      O16009   7.828   3.739   0.564
 5256WAT     H116010   7.749   3.800   0.558
 5256WAT     H216011   7.849   3.703   0.474
 5257WAT      O16012   8.136   5.435   0.931
 5257WAT     H116013   8.091   5.446   0.842
 5257WAT     H216014   8.235   5.445   0.919
 5258WAT      O16015   8.083   5.379   3.872
 5258WAT     H116016   8.141   5.324   3.812
 5258WAT     H216017   8.063   5.466   3.826
 5259WAT      O16018   7.094   8.638   8.812
 5259WAT     H116019   7.089   8.696   8.893
 5259WAT     H216020   7.044   8.681   8.737
 5260WAT      O16021   4.685   8.221   8.275
 5260WAT     H116022   4.597   8.210   8.227
 5260WAT     H216023   4.753   8.160   8.234
 5261WAT      O16024   3.483   5.207   6.205
 5261WAT     H116025   3.530   5.243   6.124
 5261WAT     H216026   3.438   5.121   6.182
 5262WAT      O16027   7.758   1.698   9.193
 5262WAT     H116028   7.829   1.767   9.183
 5262WAT     H216029   7.668   1.739   9.175
 5263WAT      O16030   4.635   1.002   3.654
 5263WAT     H116031   4.660   0.913   3.616
 5263WAT     H216032   4.584   1.055   3.586
 5264WAT      O16033   2.835   5.279   3.033
 5264WAT     H116034   2.856   5.183   3.050
 5264WAT     H216035   2.895   5.315   2.962
 5265WAT      O16036   1.375   9.567   5.988
 5265WAT     H116037   1.436   9.522   5.922
 5265WAT     H216038   1.371   9.512   6.072
 5266WAT      O16039   7.039   3.874   0.761
 5266WAT     H116040   7.130   3.845   0.730
 5266WAT     H216041   6.998   3.801   0.816
 5267WAT      O16042   8.919   9.047   4.619
 5267WAT     H116043   8.845   9.076   4.559
 5267WAT     H216044   8.964   8.967   4.580
 5268WAT      O16045   4.361   0.779   3.689
 5268WAT     H116046   4.455   0.783   3.654
 5268WAT     H216047   4.362   0.739   3.781
 5269WAT      O16048   9.485   6.992   4.658
 5269WAT     H116049   9.523   7.084   4.663
 5269WAT     H216050   9.506   6.943   4.743
 5270WAT      O16051   5.211   3.421   2.162
 5270WAT     H116052   5.154   3.475   2.100
 5270WAT     H216053   5.178   3.327   2.164
 5271WAT      O16054   6.913   8.858   1.873
 5271WAT     H116055   6.926   8.919   1.795
 5271WAT     H216056   6.918   8.763   1.843
 5272WAT      O16057   9.461   4.603   7.021
 5272WAT     H116058   9.526   4.626   6.948
 5272WAT     H216059   9.483   4.513   7.057
 5273WAT      O16060   9.126   0.075   9.728
 5273WAT     H116061   9.073  -0.010   9.719
 5273WAT     H216062   9.068   0.153   9.706
 5274WAT      O16063   8.572   9.104   3.913
 5274WAT     H116064   8.527   9.137   3.996
 5274WAT     H216065   8.512   9.039   3.866
 5275WAT      O16066   4.441   3.566   0.252
 5275WAT     H116067   4.512   3.555   0.321
 5275WAT     H216068   4.476   3.534   0.163
 5276WAT      O16069   0.698   4.970   4.530
 5276WAT     H116070   0.723   4.875   4.548
 5276WAT     H216071   0.752   5.030   4.589
 5277WAT      O16072   2.568   8.051   0.457
 5277WAT     H116073   2.654   8.102   0.461
 5277WAT     H216074   2.567   7.982   0.529
 5278WAT      O16075   6.356   0.887   8.953
 5278WAT     H116076   6.313   0.803   8.919
 5278WAT     H216077   6.421   0.863   9.026
 5279WAT      O16078   4.149   9.251   9.839
 5279WAT     H116079   4.209   9.178   9.872
 5279WAT     H216080   4.154   9.255   9.739
 5280WAT      O16081   8.152   3.846   2.003
 5280WAT     H116082   8.110   3.926   2.044
 5280WAT     H216083   8.102   3.764   2.031
 5281WAT      O16084   1.589   8.587   3.246
 5281WAT     H116085   1.670   8.568   3.191
 5281WAT     H216086   1.600   8.674   3.294
 5282WAT      O16087   3.529   9.450   7.608
 5282WAT     H116088   3.482   9.506   7.540
 5282WAT     H216089   3.474   9.368   7.628
 5283WAT      O16090   7.350   2.366   7.876
 5283WAT     H116091   7.351   2.358   7.975
 5283WAT     H216092   7.262   2.336   7.840
 5284WAT      O16093   1.526   2.818   7.909
 5284WAT     H116094   1.538   2.888   7.979
 5284WAT     H216095   1.485   2.858   7.828
 5285WAT      O16096   4.340   2.495   6.562
 5285WAT     H116097   4.302   2.489   6.470
 5285WAT     H216098   4.430   2.452   6.564
 5286WAT      O16099   8.464   7.034   0.761
 5286WAT     H116100   8.418   7.122   0.768
 5286WAT     H216101   8.541   7.041   0.698
 5287WAT      O16102   6.330   7.039   6.199
 5287WAT     H116103   6.415   7.004   6.240
 5287WAT     H216104   6.288   7.104   6.262
 5288WAT      O16105   5.441   3.628   1.251
 5288WAT     H116106   5.383   3.651   1.173
 5288WAT     H216107   5.537   3.629   1.222
 5289WAT      O16108   0.556   6.708   6.044
 5289WAT     H116109   0.564   6.738   5.949
 5289WAT     H216110   0.618   6.631   6.061
 5290WAT      O16111   8.123   7.262   0.781
 5290WAT     H116112   8.039   7.210   0.794
 5290WAT     H216113   8.186   7.245   0.857
 5291WAT      O16114   2.335   5.603   4.367
 5291WAT     H116115   2.352   5.513   4.326
 5291WAT     H216116   2.393   5.671   4.322
 5292WAT      O16117   6.887   9.487   0.213
 5292WAT     H116118   6.980   9.510   0.244
 5292WAT     H216119   6.821   9.524   0.278
 5293WAT      O16120   3.534   3.698   7.197
 5293WAT     H116121   3.466   3.771   7.188
 5293WAT     H216122   3.578   3.705   7.287
 5294WAT      O16123   1.042   3.585   7.195
 5294WAT     H116124   0.997   3.609   7.281
 5294WAT     H216125   1.141   3.594   7.206
 5295WAT      O16126   6.527   3.839   8.132
 5295WAT     H116127   6.434   3.875   8.132
 5295WAT     H216128   6.569   3.856   8.043
 5296WAT      O16129   2.024   2.423   1.485
 5296WAT     H116130   2.019   2.382   1.576
 5296WAT     H216131   2.103   2.485   1.479
 5297WAT      O16132   5.741   5.043   8.840
 5297WAT     H116133   5.643   5.044   8.860
 5297WAT     H216134   5.764   5.122   8.783
 5298WAT      O16135   5.315   6.415   4.554
 5298WAT     H116136   5.322   6.370   4.643
 5298WAT     H216137   5.399   6.465   4.535
 5299WAT      O16138   6.713   0.176   7.595
 5299WAT     H116139   6.673   0.249   7.651
 5299WAT     H216140   6.707   0.201   7.498
 5300WAT      O16141   7.933   7.471   6.307
 5300WAT     H116142   7.991   7.390   6.295
 5300WAT     H216143   7.935   7.525   6.223
 5301WAT      O16144   3.333   6.542   2.667
 5301WAT     H116145   3.257   6.607   2.666
 5301WAT     H216146   3.302   6.456   2.707
 5302WAT      O16147   3.115   7.930   6.630
 5302WAT     H116148   3.031   7.879   6.615
 5302WAT     H216149   3.127   7.997   6.556
 5303WAT      O16150   8.353   2.874   3.871
 5303WAT     H116151   8.352   2.897   3.773
 5303WAT     H216152   8.301   2.942   3.922
 5304WAT      O16153   0.610   4.568   4.007
 5304WAT     H116154   0.653   4.650   3.969
 5304WAT     H216155   0.678   4.496   4.017
 5305WAT      O16156   7.360   6.913   6.421
 5305WAT     H116157   7.347   6.822   6.460
 5305WAT     H216158   7.274   6.946   6.382
 5306WAT      O16159   0.635   5.394   5.018
 5306WAT     H116160   0.591   5.324   5.074
 5306WAT     H216161   0.727   5.411   5.051
 5307WAT      O16162   9.748   9.176   6.922
 5307WAT     H116163   9.817   9.121   6.876
 5307WAT     H216164   9.788   9.216   7.005
 5308WAT      O16165   6.457   8.555   6.029
 5308WAT     H116166   6.538   8.497   6.020
 5308WAT     H216167   6.377   8.499   6.044
 5309WAT      O16168   8.124   5.453   3.146
 5309WAT     H116169   8.124   5.461   3.245
 5309WAT     H216170   8.216   5.475   3.111
 5310WAT      O16171   0.397   4.049   5.549
 5310WAT     H116172   0.453   4.071   5.630
 5310WAT     H216173   0.302   4.070   5.569
 5311WAT      O16174   0.459   8.027   8.455
 5311WAT     H116175   0.473   8.016   8.357
 5311WAT     H216176   0.540   7.996   8.505
 5312WAT      O16177   1.218   8.415   2.007
 5312WAT     H116178   1.253   8.426   2.100
 5312WAT     H216179   1.161   8.494   1.983
 5313WAT      O16180   2.177   7.648   5.149
 5313WAT     H116181   2.112   7.720   5.127
 5313WAT     H216182   2.224   7.670   5.235
 5314WAT      O16183   5.291   0.262   2.367
 5314WAT     H116184   5.316   0.298   2.457
 5314WAT     H216185   5.294   0.336   2.300
 5315WAT      O16186   5.866   7.297   2.598
 5315WAT     H116187   5.837   7.233   2.670
 5315WAT     H216188   5.931   7.252   2.537
 5316WAT      O16189   5.985   5.309   6.567
 5316WAT     H116190   6.050   5.308   6.643
 5316WAT     H216191   5.905   5.254   6.591
 5317WAT      O16192   0.636   6.461   1.317
 5317WAT     H116193   0.642   6.559   1.299
 5317WAT     H216194   0.540   6.435   1.325
 5318WAT      O16195   3.576   3.254   7.377
 5318WAT     H116196   3.597   3.219   7.468
 5318WAT     H216197   3.505   3.324   7.384
 5319WAT      O16198   0.108   1.610   8.121
 5319WAT     H116199   0.136   1.698   8.160
 5319WAT     H216200   0.179   1.576   8.060
 5320WAT      O16201   2.666   4.908   4.123
 5320WAT     H116202   2.591   4.967   4.154
 5320WAT     H216203   2.753   4.943   4.157
 5321WAT      O16204   0.617   9.804   9.586
 5321WAT     H116205   0.689   9.858   9.631
 5321WAT     H216206   0.649   9.773   9.497
 5322WAT      O16207   5.728   8.489   6.384
 5322WAT     H116208   5.716   8.547   6.464
 5322WAT     H216209   5.717   8.393   6.410
 5323WAT      O16210   6.745   8.040   3.432
 5323WAT     H116211   6.811   8.035   3.508
 5323WAT     H216212   6.794   8.054   3.347
 5324WAT      O16213   1.694   9.235   3.241
 5324WAT     H116214   1.699   9.209   3.144
 5324WAT     H216215   1.621   9.184   3.286
 5325WAT      O16216   0.969   8.595   7.457
 5325WAT     H116217   0.916   8.680   7.466
 5325WAT     H216218   1.006   8.570   7.547
 5326WAT      O16219   8.742   6.167   9.479
 5326WAT     H116220   8.725   6.076   9.517
 5326WAT     H216221   8.734   6.163   9.379
 5327WAT      O16222   4.462   3.664   3.897
 5327WAT     H116223   4.487   3.761   3.896
 5327WAT     H216224   4.545   3.608   3.885
 5328WAT      O16225   5.389   3.989   7.424
 5328WAT     H116226   5.339   4.000   7.337
 5328WAT     H216227   5.351   4.051   7.492
 5329WAT      O16228   1.550   1.309   2.613
 5329WAT     H116229   1.471   1.342   2.561
 5329WAT     H216230   1.531   1.217   2.647
 5330WAT      O16231   5.315   7.700   5.082
 5330WAT     H116232   5.226   7.709   5.038
 5330WAT     H216233   5.387   7.696   5.012
 5331WAT      O16234   4.474   4.303   9.160
 5331WAT     H116235   4.464   4.364   9.082
 5331WAT     H216236   4.541   4.232   9.139
 5332WAT      O16237   2.951   5.183   7.552
 5332WAT     H116238   2.875   5.149   7.607
 5332WAT     H216239   3.037   5.173   7.603
 5333WAT      O16240   8.560   6.588   9.458
 5333WAT     H116241   8.471   6.619   9.422
 5333WAT     H216242   8.545   6.509   9.517
 5334WAT      O16243   7.424   7.606   0.762
 5334WAT     H116244   7.394   7.689   0.809
 5334WAT     H216245   7.514   7.621   0.722
 5335WAT      O16246   0.690   4.401   4.301
 5335WAT     H116247   0.730   4.364   4.218
 5335WAT     H216248   0.712   4.499   4.308
 5336WAT      O16249   9.250   9.062   7.211
 5336WAT     H116250   9.200   9.148   7.195
 5336WAT     H216251   9.327   9.055   7.148
 5337WAT      O16252   8.339   2.936   0.698
 5337WAT     H116253   8.258   2.991   0.713
 5337WAT     H216254   8.362   2.885   0.781
 5338WAT      O16255   0.919   5.580   4.787
 5338WAT     H116256   0.933   5.488   4.750
 5338WAT     H216257   0.920   5.647   4.713
 5339WAT      O16258   2.347   7.485   1.459
 5339WAT     H116259   2.309   7.403   1.416
 5339WAT     H216260   2.276   7.530   1.513
 5340WAT      O16261   7.954   8.359   0.177
 5340WAT     H116262   7.926   8.284   0.235
 5340WAT     H216263   8.018   8.418   0.227
 5341WAT      O16264   1.806   9.459   2.056
 5341WAT     H116265   1.743   9.382   2.058
 5341WAT     H216266   1.793   9.511   1.971
 5342WAT      O16267   3.378   7.566   4.383
 5342WAT     H116268   3.468   7.609   4.393
 5342WAT     H216269   3.308   7.626   4.421
 5343WAT      O16270   6.085   0.210   6.056
 5343WAT     H116271   6.024   0.138   6.022
 5343WAT     H216272   6.122   0.183   6.145
 5344WAT      O16273   3.136   8.206   7.931
 5344WAT     H116274   3.066   8.187   8.000
 5344WAT     H216275   3.103   8.277   7.869
 5345WAT      O16276   4.116   8.182   6.691
 5345WAT     H116277   4.114   8.266   6.637
 5345WAT     H216278   4.211   8.151   6.701
 5346WAT      O16279   1.120   5.903   4.126
 5346WAT     H116280   1.105   5.937   4.033
 5346WAT     H216281   1.216   5.875   4.136
 5347WAT      O16282   0.650   4.776   8.973
 5347WAT     H116283   0.705   4.764   8.890
 5347WAT     H216284   0.651   4.873   8.999
 5348WAT      O16285   5.395   2.036   2.112
 5348WAT     H116286   5.367   2.049   2.017
 5348WAT     H216287   5.474   2.095   2.131
 5349WAT      O16288   5.604   3.065   3.595
 5349WAT     H116289   5.666   3.099   3.525
 5349WAT     H216290   5.574   3.142   3.653
 5350WAT      O16291   3.900   3.307   5.556
 5350WAT     H116292   3.931   3.222   5.597
 5350WAT     H216293   3.848   3.287   5.472
 5351WAT      O16294   0.359   3.158   7.187
 5351WAT     H116295   0.275   3.122   7.227
 5351WAT     H216296   0.346   3.255   7.166
 5352WAT      O16297   3.844   7.880   5.645
 5352WAT     H116298   3.802   7.899   5.556
 5352WAT     H216299   3.846   7.964   5.700
 5353WAT      O16300   8.498   0.968   3.980
 5353WAT     H116301   8.598   0.971   3.978
 5353WAT     H216302   8.462   1.061   3.980
 5354WAT      O16303   4.175   6.821   4.575
 5354WAT     H116304   4.088   6.844   4.532
 5354WAT     H216305   4.234   6.902   4.577
 5355WAT      O16306   6.747   4.244   0.922
 5355WAT     H116307   6.648   4.247   0.916
 5355WAT     H216308   6.783   4.184   0.851
 5356WAT      O16309   3.377   0.919   7.759
 5356WAT     H116310   3.308   0.846   7.756
 5356WAT     H216311   3.456   0.892   7.703
 5357WAT      O16312   0.167   6.132   8.760
 5357WAT     H116313   0.098   6.102   8.827
 5357WAT     H216314   0.220   6.052   8.730
 5358WAT      O16315   9.031   2.841   3.118
 5358WAT     H116316   8.960   2.803   3.178
 5358WAT     H216317   9.114   2.858   3.172
 5359WAT      O16318   8.127   7.210   3.649
 5359WAT     H116319   8.040   7.221   3.601
 5359WAT     H216320   8.166   7.300   3.669
 5360WAT      O16321   6.722   0.825   1.028
 5360WAT     H116322   6.694   0.771   0.948
 5360WAT     H216323   6.772   0.906   0.998
 5361WAT      O16324   5.795   2.721   5.215
 5361WAT     H116325   5.715   2.775   5.189
 5361WAT     H216326   5.776   2.624   5.198
 5362WAT      O16327   2.500   4.913   2.849
 5362WAT     H116328   2.467   4.986   2.790
 5362WAT     H216329   2.545   4.952   2.929
 5363WAT      O16330   6.948   5.199   5.598
 5363WAT     H116331   6.978   5.228   5.507
 5363WAT     H216332   6.956   5.100   5.606
 5364WAT      O16333   2.134   1.428   5.830
 5364WAT     H116334   2.192   1.458   5.754
 5364WAT     H216335   2.136   1.496   5.903
 5365WAT      O16336   8.525   9.446   5.203
 5365WAT     H116337   8.591   9.440   5.279
 5365WAT     H216338   8.571   9.425   5.117
 5366WAT      O16339   3.852   6.999   0.996
 5366WAT     H116340   3.876   7.053   1.077
 5366WAT     H216341   3.936   6.975   0.946
 5367WAT      O16342   0.890   5.204   0.558
 5367WAT     H116343   0.926   5.250   0.639
 5367WAT     H216344   0.949   5.223   0.480
 5368WAT      O16345   6.129   6.380   0.315
 5368WAT     H116346   6.041   6.333   0.302
 5368WAT     H216347   6.122   6.442   0.393
 5369WAT      O16348   3.740   2.335   0.618
 5369WAT     H116349   3.714   2.265   0.551
 5369WAT     H216350   3.828   2.311   0.659
 5370WAT      O16351   6.982   6.263   7.651
 5370WAT     H116352   6.942   6.186   7.700
 5370WAT     H216353   6.962   6.254   7.554
 5371WAT      O16354   6.709   7.634   5.667
 5371WAT     H116355   6.612   7.655   5.674
 5371WAT     H216356   6.735   7.570   5.739
 5372WAT      O16357   7.436   6.726   8.874
 5372WAT     H116358   7.392   6.645   8.914
 5372WAT     H216359   7.444   6.797   8.943
 5373WAT      O16360   2.301   7.751   3.003
 5373WAT     H116361   2.242   7.829   2.982
 5373WAT     H216362   2.314   7.745   3.102
 5374WAT      O16363   7.094   7.973   6.692
 5374WAT     H116364   7.061   8.067   6.690
 5374WAT     H216365   7.158   7.958   6.617
 5375WAT      O16366   2.519   2.648   0.234
 5375WAT     H116367   2.558   2.564   0.195
 5375WAT     H216368   2.427   2.629   0.266
 5376WAT      O16369   3.551   6.286   0.492
 5376WAT     H116370   3.462   6.241   0.497
 5376WAT     H216371   3.561   6.348   0.569
 5377WAT      O16372   5.335   5.102   7.373
 5377WAT     H116373   5.365   5.019   7.419
 5377WAT     H216374   5.294   5.079   7.285
 5378WAT      O16375   8.781   1.968   5.550
 5378WAT     H116376   8.751   1.979   5.455
 5378WAT     H216377   8.754   1.877   5.583
 5379WAT      O16378   8.182   2.759   8.650
 5379WAT     H116379   8.089   2.794   8.652
 5379WAT     H216380   8.181   2.660   8.669
 5380WAT      O16381   8.571   4.963   5.796
 5380WAT     H116382   8.580   5.063   5.792
 5380WAT     H216383   8.641   4.927   5.857
 5381WAT      O16384   6.179   0.362   9.290
 5381WAT     H116385   6.231   0.291   9.241
 5381WAT     H216386   6.131   0.320   9.366
 5382WAT      O16387   4.000   7.425   8.858
 5382WAT     H116388   4.065   7.455   8.788
 5382WAT     H216389   3.920   7.385   8.815
 5383WAT      O16390   8.152   6.418   0.617
 5383WAT     H116391   8.097   6.491   0.576
 5383WAT     H216392   8.203   6.454   0.695
 5384WAT      O16393   7.343   7.517   7.137
 5384WAT     H116394   7.400   7.455   7.191
 5384WAT     H216395   7.247   7.492   7.147
 5385WAT      O16396   6.219   1.907   1.336
 5385WAT     H116397   6.187   1.814   1.356
 5385WAT     H216398   6.188   1.969   1.409
 5386WAT      O16399   5.992   4.883   0.583
 5386WAT     H116400   5.981   4.855   0.679
 5386WAT     H216401   6.071   4.836   0.544
 5387WAT      O16402   0.554   6.695   6.497
 5387WAT     H116403   0.458   6.724   6.505
 5387WAT     H216404   0.586   6.662   6.586
 5388WAT      O16405   8.160   5.474   7.617
 5388WAT     H116406   8.245   5.424   7.633
 5388WAT     H216407   8.148   5.489   7.519
 5389WAT      O16408   5.577   0.342   6.972
 5389WAT     H116409   5.568   0.309   7.066
 5389WAT     H216410   5.514   0.291   6.913
 5390WAT      O16411   6.781   2.113   5.685
 5390WAT     H116412   6.776   2.015   5.701
 5390WAT     H216413   6.779   2.132   5.587
 5391WAT      O16414   7.833   6.523   4.449
 5391WAT     H116415   7.800   6.617   4.448
 5391WAT     H216416   7.933   6.522   4.451
 5392WAT      O16417   1.641   2.072   8.503
 5392WAT     H116418   1.696   1.994   8.472
 5392WAT     H216419   1.632   2.138   8.429
 5393WAT      O16420   7.093   1.198   6.535
 5393WAT     H116421   7.085   1.195   6.436
 5393WAT     H216422   7.189   1.182   6.561
 5394WAT      O16423   1.789   9.630   0.501
 5394WAT     H116424   1.869   9.684   0.528
 5394WAT     H216425   1.789   9.544   0.552
 5395WAT      O16426   4.928   8.895   7.452
 5395WAT     H116427   5.020   8.934   7.449
 5395WAT     H216428   4.928   8.811   7.506
 5396WAT      O16429   9.180   4.038   6.354
 5396WAT     H116430   9.135   4.043   6.265
 5396WAT     H216431   9.250   3.966   6.352
 5397WAT      O16432   5.450   3.175   5.234
 5397WAT     H116433   5.525   3.176   5.299
 5397WAT     H216434   5.400   3.089   5.243
 5398WAT      O16435   2.926   8.658   1.173
 5398WAT     H116436   2.994   8.714   1.222
 5398WAT     H216437   2.972   8.593   1.114
 5399WAT      O16438   4.781   1.791   9.435
 5399WAT     H116439   4.825   1.704   9.412
 5399WAT     H216440   4.803   1.859   9.365
 5400WAT      O16441   3.223   7.705   7.747
 5400WAT     H116442   3.247   7.703   7.650
 5400WAT     H216443   3.145   7.765   7.762
 5401WAT      O16444   8.937   5.440   2.062
 5401WAT     H116445   8.865   5.495   2.018
 5401WAT     H216446   8.994   5.399   1.991
 5402WAT      O16447   8.193   5.867   4.536
 5402WAT     H116448   8.115   5.927   4.514
 5402WAT     H216449   8.201   5.858   4.635
 5403WAT      O16450   4.503   1.061   2.398
 5403WAT     H116451   4.548   1.005   2.468
 5403WAT     H216452   4.570   1.085   2.328
 5404WAT      O16453   4.047   2.503   0.380
 5404WAT     H116454   4.121   2.513   0.447
 5404WAT     H216455   3.973   2.566   0.403
 5405WAT      O16456   9.787   4.852   6.413
 5405WAT     H116457   9.808   4.918   6.485
 5405WAT     H216458   9.872   4.820   6.371
 5406WAT      O16459   2.225   3.169   1.217
 5406WAT     H116460   2.280   3.144   1.138
 5406WAT     H216461   2.275   3.235   1.274
 5407WAT      O16462   8.845   6.504   6.358
 5407WAT     H116463   8.819   6.436   6.426
 5407WAT     H216464   8.943   6.495   6.338
 5408WAT      O16465   4.138   9.559   4.652
 5408WAT     H116466   4.209   9.570   4.722
 5408WAT     H216467   4.086   9.475   4.671
 5409WAT      O16468   9.412   3.591   7.589
 5409WAT     H116469   9.318   3.612   7.561
 5409WAT     H216470   9.428   3.623   7.682
 5410WAT      O16471   3.391   6.004   4.470
 5410WAT     H116472   3.382   6.097   4.435
 5410WAT     H216473   3.440   6.005   4.557
 5411WAT      O16474   0.428   9.534   7.986
 5411WAT     H116475   0.447   9.561   8.080
 5411WAT     H216476   0.364   9.456   7.986
 5412WAT      O16477   7.827   9.010   1.833
 5412WAT     H116478   7.901   9.075   1.815
 5412WAT     H216479   7.848   8.956   1.914
 5413WAT      O16480   1.867   2.181   4.250
 5413WAT     H116481   1.861   2.130   4.336
 5413WAT     H216482   1.776   2.213   4.225
 5414WAT      O16483   6.413   9.502   2.945
 5414WAT     H116484   6.423   9.577   2.880
 5414WAT     H216485   6.453   9.528   3.032
 5415WAT      O16486   4.646   6.123   0.734
 5415WAT     H116487   4.636   6.023   0.730
 5415WAT     H216488   4.574   6.166   0.680
 5416WAT      O16489   2.857   6.122   4.824
 5416WAT     H116490   2.870   6.193   4.893
 5416WAT     H216491   2.862   6.032   4.868
 5417WAT      O16492   3.999   2.453   6.689
 5417WAT     H116493   4.081   2.467   6.743
 5417WAT     H216494   3.961   2.362   6.707
 5418WAT      O16495   5.409   1.728   8.218
 5418WAT     H116496   5.489   1.764   8.267
 5418WAT     H216497   5.439   1.679   8.137
 5419WAT      O16498   2.088   9.772   4.887
 5419WAT     H116499   2.133   9.860   4.902
 5419WAT     H216500   2.144   9.699   4.926
 5420WAT      O16501   4.374   9.345   0.205
 5420WAT     H116502   4.382   9.264   0.146
 5420WAT     H216503   4.330   9.419   0.154
 5421WAT      O16504   4.829   2.508   9.690
 5421WAT     H116505   4.801   2.580   9.626
 5421WAT     H216506   4.831   2.545   9.783
 5422WAT      O16507   6.937   4.125   3.803
 5422WAT     H116508   7.023   4.106   3.756
 5422WAT     H216509   6.866   4.146   3.736
 5423WAT      O16510   1.358   5.619   2.255
 5423WAT     H116511   1.267   5.580   2.267
 5423WAT     H216512   1.416   5.594   2.333
 5424WAT      O16513   2.967   3.212   4.828
 5424WAT     H116514   2.964   3.124   4.875
 5424WAT     H216515   3.016   3.279   4.885
 5425WAT      O16516   9.684   4.365   2.547
 5425WAT     H116517   9.765   4.411   2.510
 5425WAT     H216518   9.637   4.316   2.474
 5426WAT      O16519   0.872   5.258   2.978
 5426WAT     H116520   0.971   5.247   2.982
 5426WAT     H216521   0.830   5.214   3.057
 5427WAT      O16522   6.604   7.303   8.463
 5427WAT     H116523   6.669   7.376   8.486
 5427WAT     H216524   6.557   7.272   8.545
 5428WAT      O16525   2.847   8.300   6.389
 5428WAT     H116526   2.845   8.395   6.358
 5428WAT     H216527   2.814   8.295   6.483
 5429WAT      O16528   6.627   8.952   9.426
 5429WAT     H116529   6.681   8.995   9.499
 5429WAT     H216530   6.689   8.916   9.356
 5430WAT      O16531   1.118   3.455   7.880
 5430WAT     H116532   1.166   3.369   7.863
 5430WAT     H216533   1.019   3.440   7.874
 5431WAT      O16534   9.313   4.041   9.436
 5431WAT     H116535   9.239   3.976   9.418
 5431WAT     H216536   9.395   4.012   9.387
 5432WAT      O16537   6.263   4.432   1.563
 5432WAT     H116538   6.197   4.464   1.495
 5432WAT     H216539   6.346   4.489   1.557
 5433WAT      O16540   4.830   2.331   5.347
 5433WAT     H116541   4.744   2.309   5.302
 5433WAT     H216542   4.847   2.429   5.339
 5434WAT      O16543   1.698   3.442   5.575
 5434WAT     H116544   1.707   3.422   5.673
 5434WAT     H216545   1.654   3.531   5.564
 5435WAT      O16546   7.587   9.656   0.656
 5435WAT     H116547   7.624   9.709   0.579
 5435WAT     H216548   7.537   9.577   0.620
 5436WAT      O16549   9.089   0.830   3.818
 5436WAT     H116550   9.048   0.774   3.746
 5436WAT     H216551   9.188   0.833   3.805
 5437WAT      O16552   4.237   8.457   6.005
 5437WAT     H116553   4.202   8.551   6.008
 5437WAT     H216554   4.182   8.404   5.940
 5438WAT      O16555   9.168   3.053   6.945
 5438WAT     H116556   9.157   2.998   7.028
 5438WAT     H216557   9.122   3.142   6.959
 5439WAT      O16558   4.647   0.421   9.463
 5439WAT     H116559   4.603   0.340   9.425
 5439WAT     H216560   4.591   0.455   9.539
 5440WAT      O16561   1.093   1.976   3.540
 5440WAT     H116562   1.108   2.056   3.482
 5440WAT     H216563   1.147   1.899   3.505
 5441WAT      O16564   4.156   3.607   5.087
 5441WAT     H116565   4.188   3.662   5.164
 5441WAT     H216566   4.140   3.666   5.008
 5442WAT      O16567   4.861   2.761   5.033
 5442WAT     H116568   4.907   2.678   5.003
 5442WAT     H216569   4.793   2.789   4.965
 5443WAT      O16570   4.433   8.421   0.043
 5443WAT     H116571   4.365   8.451   0.109
 5443WAT     H216572   4.524   8.448   0.074
 5444WAT      O16573   9.494   3.936   0.793
 5444WAT     H116574   9.541   3.890   0.869
 5444WAT     H216575   9.536   4.026   0.778
 5445WAT      O16576   2.749   6.421   6.780
 5445WAT     H116577   2.657   6.438   6.815
 5445WAT     H216578   2.790   6.508   6.753
 5446WAT      O16579   2.500   0.016   4.374
 5446WAT     H116580   2.523   0.078   4.300
 5446WAT     H216581   2.497   0.066   4.461
 5447WAT      O16582   7.382   2.290   9.160
 5447WAT     H116583   7.446   2.319   9.232
 5447WAT     H216584   7.400   2.343   9.077
 5448WAT      O16585   8.894   0.674   4.470
 5448WAT     H116586   8.802   0.649   4.440
 5448WAT     H216587   8.960   0.653   4.398
 5449WAT      O16588   3.619   6.041   8.173
 5449WAT     H116589   3.592   6.124   8.221
 5449WAT     H216590   3.639   5.969   8.241
 5450WAT      O16591   4.614   3.235   2.391
 5450WAT     H116592   4.590   3.332   2.395
 5450WAT     H216593   4.555   3.188   2.326
 5451WAT      O16594   9.678   6.604   6.022
 5451WAT     H116595   9.609   6.619   6.093
 5451WAT     H216596   9.739   6.530   6.049
 5452WAT      O16597   7.601   4.603   2.563
 5452WAT     H116598   7.602   4.521   2.621
 5452WAT     H216599   7.632   4.682   2.616
 5453WAT      O16600   0.819   8.356   9.762
 5453WAT     H116601   0.801   8.427   9.830
 5453WAT     H216602   0.819   8.396   9.671
 5454WAT      O16603   1.704   6.575   3.165
 5454WAT     H116604   1.628   6.624   3.121
 5454WAT     H216605   1.676   6.547   3.257
 5455WAT      O16606   2.920   1.704   7.444
 5455WAT     H116607   3.011   1.739   7.422
 5455WAT     H216608   2.928   1.631   7.512
 5456WAT      O16609   1.563   9.824   1.198
 5456WAT     H116610   1.573   9.756   1.270
 5456WAT     H216611   1.469   9.858   1.197
 5457WAT      O16612   6.469   6.711   3.333
 5457WAT     H116613   6.463   6.612   3.322
 5457WAT     H216614   6.553   6.734   3.383
 5458WAT      O16615   9.115   1.279   3.842
 5458WAT     H116616   9.109   1.207   3.773
 5458WAT     H216617   9.034   1.278   3.899
 5459WAT      O16618   8.423   5.416   2.217
 5459WAT     H116619   8.401   5.495   2.159
 5459WAT     H216620   8.433   5.446   2.312
 5460WAT      O16621   8.701   7.024   2.623
 5460WAT     H116622   8.712   7.098   2.689
 5460WAT     H216623   8.775   7.029   2.556
 5461WAT      O16624   0.841   4.819   7.114
 5461WAT     H116625   0.857   4.900   7.169
 5461WAT     H216626   0.927   4.770   7.101
 5462WAT      O16627   5.497   1.804   3.482
 5462WAT     H116628   5.458   1.723   3.525
 5462WAT     H216629   5.424   1.862   3.447
 5463WAT      O16630   6.434   0.545   7.878
 5463WAT     H116631   6.461   0.618   7.941
 5463WAT     H216632   6.467   0.457   7.913
 5464WAT      O16633   9.724   0.958   6.195
 5464WAT     H116634   9.776   0.919   6.271
 5464WAT     H216635   9.749   1.054   6.184
 5465WAT      O16636   1.237   1.543   3.730
 5465WAT     H116637   1.159   1.564   3.788
 5465WAT     H216638   1.208   1.544   3.634
 5466WAT      O16639   3.882   1.604   1.307
 5466WAT     H116640   3.840   1.669   1.371
 5466WAT     H216641   3.855   1.627   1.214
 5467WAT      O16642   5.863   6.441   7.090
 5467WAT     H116643   5.948   6.448   7.038
 5467WAT     H216644   5.837   6.531   7.125
 5468WAT      O16645   8.682   1.614   9.325
 5468WAT     H116646   8.668   1.516   9.339
 5468WAT     H216647   8.658   1.637   9.230
 5469WAT      O16648   5.218   1.099   0.159
 5469WAT     H116649   5.120   1.081   0.154
 5469WAT     H216650   5.259   1.088   0.068
 5470WAT      O16651   0.853   7.630   8.403
 5470WAT     H116652   0.890   7.636   8.496
 5470WAT     H216653   0.917   7.580   8.345
 5471WAT      O16654   7.160   2.196   9.039
 5471WAT     H116655   7.095   2.271   9.056
 5471WAT     H216656   7.227   2.193   9.112
 5472WAT      O16657   1.935   8.241   2.403
 5472WAT     H116658   1.874   8.313   2.371
 5472WAT     H216659   2.012   8.283   2.452
 5473WAT      O16660   8.117   2.329   5.176
 5473WAT     H116661   8.201   2.334   5.230
 5473WAT     H216662   8.140   2.300   5.083
 5474WAT      O16663   0.835   7.282   0.061
 5474WAT     H116664   0.817   7.323   0.150
 5474WAT     H216665   0.761   7.219   0.037
 5475WAT      O16666   3.985   7.713   1.182
 5475WAT     H116667   3.909   7.757   1.229
 5475WAT     H216668   4.023   7.776   1.114
 5476WAT      O16669   4.222   0.464   7.888
 5476WAT     H116670   4.245   0.413   7.805
 5476WAT     H216671   4.152   0.414   7.940
 5477WAT      O16672   8.801   2.424   6.125
 5477WAT     H116673   8.808   2.515   6.085
 5477WAT     H216674   8.892   2.383   6.131
 5478WAT      O16675   4.269   3.617   5.500
 5478WAT     H116676   4.174   3.628   5.472
 5478WAT     H216677   4.272   3.586   5.595
 5479WAT      O16678   5.909   6.587   8.144
 5479WAT     H116679   5.899   6.488   8.138
 5479WAT     H216680   5.852   6.622   8.218
 5480WAT      O16681   2.398   0.572   2.739
 5480WAT     H116682   2.498   0.565   2.740
 5480WAT     H216683   2.369   0.641   2.806
 5481WAT      O16684   9.167   5.438   9.381
 5481WAT     H116685   9.259   5.469   9.358
 5481WAT     H216686   9.139   5.365   9.319
 5482WAT      O16687   6.336   0.463   4.529
 5482WAT     H116688   6.318   0.371   4.566
 5482WAT     H216689   6.322   0.462   4.430
 5483WAT      O16690   5.922   8.528   1.201
 5483WAT     H116691   5.886   8.452   1.148
 5483WAT     H216692   5.852   8.563   1.262
 5484WAT      O16693   3.806   7.306   3.394
 5484WAT     H116694   3.843   7.396   3.415
 5484WAT     H216695   3.812   7.290   3.295
 5485WAT      O16696   6.421   7.528   4.657
 5485WAT     H116697   6.447   7.615   4.700
 5485WAT     H216698   6.490   7.503   4.588
 5486WAT      O16699   4.483   5.665   7.137
 5486WAT     H116700   4.386   5.673   7.162
 5486WAT     H216701   4.497   5.703   7.045
 5487WAT      O16702   3.871   3.939   4.948
 5487WAT     H116703   3.958   3.971   4.986
 5487WAT     H216704   3.810   4.017   4.934
 5488WAT      O16705   0.764   2.793   8.124
 5488WAT     H116706   0.763   2.803   8.024
 5488WAT     H216707   0.778   2.697   8.147
 5489WAT      O16708   3.851   9.117   3.955
 5489WAT     H116709   3.937   9.122   3.904
 5489WAT     H216710   3.781   9.171   3.909
 5490WAT      O16711   3.079   7.249   7.568
 5490WAT     H116712   3.172   7.214   7.578
 5490WAT     H216713   3.025   7.184   7.513
 5491WAT      O16714   9.294   5.635   6.604
 5491WAT     H116715   9.274   5.545   6.644
 5491WAT     H216716   9.390   5.640   6.579
 5492WAT      O16717   9.489   7.866   1.820
 5492WAT     H116718   9.543   7.799   1.872
 5492WAT     H216719   9.501   7.956   1.861
 5493WAT      O16720   6.439   6.073   4.493
 5493WAT     H116721   6.343   6.095   4.509
 5493WAT     H216722   6.486   6.155   4.459
 5494WAT      O16723   2.127   6.369   1.926
 5494WAT     H116724   2.039   6.340   1.964
 5494WAT     H216725   2.186   6.289   1.912
 5495WAT      O16726   0.461   4.558   6.626
 5495WAT     H116727   0.401   4.483   6.600
 5495WAT     H216728   0.451   4.577   6.724
 5496WAT      O16729   1.568   8.602   1.676
 5496WAT     H116730   1.520   8.605   1.764
 5496WAT     H216731   1.501   8.598   1.602
 5497WAT      O16732   3.044   6.186   7.170
 5497WAT     H116733   3.029   6.272   7.217
 5497WAT     H216734   3.045   6.111   7.236
 5498WAT      O16735   1.609   5.625   7.601
 5498WAT     H116736   1.627   5.556   7.531
 5498WAT     H216737   1.512   5.652   7.597
 5499WAT      O16738   0.712   6.171   4.329
 5499WAT     H116739   0.801   6.194   4.289
 5499WAT     H216740   0.705   6.072   4.341
 5500WAT      O16741   0.273   3.757   1.764
 5500WAT     H116742   0.295   3.698   1.842
 5500WAT     H216743   0.230   3.841   1.797
 5501WAT      O16744   9.432   6.464   3.935
 5501WAT     H116745   9.342   6.434   3.904
 5501WAT     H216746   9.499   6.448   3.863
 5502WAT      O16747   0.335   8.827   4.747
 5502WAT     H116748   0.244   8.865   4.730
 5502WAT     H216749   0.335   8.729   4.727
 5503WAT      O16750   3.536   1.877   8.767
 5503WAT     H116751   3.451   1.874   8.714
 5503WAT     H216752   3.513   1.881   8.865
 5504WAT      O16753   9.212   0.300   6.405
 5504WAT     H116754   9.176   0.365   6.472
 5504WAT     H216755   9.299   0.334   6.369
 5505WAT      O16756   3.084   4.609   2.669
 5505WAT     H116757   3.174   4.647   2.687
 5505WAT     H216758   3.016   4.682   2.669
 5506WAT      O16759   5.605   4.347   4.611
 5506WAT     H116760   5.579   4.251   4.621
 5506WAT     H216761   5.526   4.400   4.580
 5507WAT      O16762   3.456   3.502   7.679
 5507WAT     H116763   3.423   3.409   7.697
 5507WAT     H216764   3.406   3.541   7.602
 5508WAT      O16765   8.886   8.453   3.655
 5508WAT     H116766   8.790   8.460   3.628
 5508WAT     H216767   8.909   8.528   3.718
 5509WAT      O16768   5.251   8.473   7.610
 5509WAT     H116769   5.194   8.438   7.684
 5509WAT     H216770   5.303   8.552   7.641
 5510WAT      O16771   9.116   7.687   3.966
 5510WAT     H116772   9.207   7.696   4.008
 5510WAT     H216773   9.095   7.590   3.954
 5511WAT      O16774   1.267   7.611   1.200
 5511WAT     H116775   1.193   7.560   1.243
 5511WAT     H216776   1.234   7.654   1.116
 5512WAT      O16777   5.259   5.118   6.645
 5512WAT     H116778   5.279   5.114   6.743
 5512WAT     H216779   5.192   5.190   6.628
 5513WAT      O16780   5.990   9.667   9.698
 5513WAT     H116781   5.960   9.727   9.772
 5513WAT     H216782   5.936   9.685   9.616
 5514WAT      O16783   7.401   9.381   6.873
 5514WAT     H116784   7.467   9.308   6.887
 5514WAT     H216785   7.417   9.454   6.940
 5515WAT      O16786   2.888   2.268   6.082
 5515WAT     H116787   2.866   2.298   6.175
 5515WAT     H216788   2.850   2.177   6.067
 5516WAT      O16789   0.277   8.646   0.711
 5516WAT     H116790   0.333   8.728   0.727
 5516WAT     H216791   0.193   8.652   0.765
 5517WAT      O16792   6.056   2.314   1.715
 5517WAT     H116793   5.977   2.327   1.654
 5517WAT     H216794   6.062   2.391   1.779
 5518WAT      O16795   0.631   0.840   8.534
 5518WAT     H116796   0.602   0.933   8.558
 5518WAT     H216797   0.578   0.774   8.587
 5519WAT      O16798   7.536   7.700   0.251
 5519WAT     H116799   7.496   7.740   0.333
 5519WAT     H216800   7.505   7.751   0.171
 5520WAT      O16801   8.468   6.623   5.737
 5520WAT     H116802   8.386   6.570   5.758
 5520WAT     H216803   8.492   6.680   5.816
 5521WAT      O16804   8.779   6.847   7.417
 5521WAT     H116805   8.741   6.875   7.505
 5521WAT     H216806   8.863   6.795   7.432
 5522WAT      O16807   6.905   5.351   1.183
 5522WAT     H116808   6.999   5.382   1.168
 5522WAT     H216809   6.897   5.309   1.274
 5523WAT      O16810   9.040   0.951   8.479
 5523WAT     H116811   8.974   1.026   8.471
 5523WAT     H216812   9.076   0.949   8.573
 5524WAT      O16813   6.332   0.056   8.417
 5524WAT     H116814   6.332  -0.037   8.382
 5524WAT     H216815   6.284   0.116   8.353
 5525WAT      O16816   0.679   6.147   7.458
 5525WAT     H116817   0.720   6.099   7.536
 5525WAT     H216818   0.694   6.092   7.375
 5526WAT      O16819   2.644   2.023   0.392
 5526WAT     H116820   2.724   1.965   0.407
 5526WAT     H216821   2.649   2.063   0.300
 5527WAT      O16822   8.986   8.040   7.505
 5527WAT     H116823   9.015   7.985   7.426
 5527WAT     H216824   9.012   7.994   7.589
 5528WAT      O16825   6.821   3.232   4.837
 5528WAT     H116826   6.848   3.190   4.924
 5528WAT     H216827   6.767   3.314   4.856
 5529WAT      O16828   4.472   5.512   5.389
 5529WAT     H116829   4.541   5.579   5.417
 5529WAT     H216830   4.432   5.540   5.302
 5530WAT      O16831   0.139   5.616   0.307
 5530WAT     H116832   0.069   5.580   0.369
 5530WAT     H216833   0.123   5.713   0.292
 5531WAT      O16834   2.245   0.590   8.958
 5531WAT     H116835   2.233   0.676   8.907
 5531WAT     H216836   2.156   0.556   8.988
 5532WAT      O16837   2.952   7.731   5.263
 5532WAT     H116838   2.920   7.825   5.252
 5532WAT     H216839   3.029   7.729   5.326
 5533WAT      O16840   2.607   2.852   7.195
 5533WAT     H116841   2.514   2.888   7.198
 5533WAT     H216842   2.671   2.925   7.218
 5534WAT      O16843   0.553   4.147   1.223
 5534WAT     H116844   0.510   4.149   1.133
 5534WAT     H216845   0.632   4.085   1.221
 5535WAT      O16846   1.999   0.507   1.401
 5535WAT     H116847   1.926   0.439   1.395
 5535WAT     H216848   2.086   0.461   1.422
 5536WAT      O16849   4.466   9.603   8.379
 5536WAT     H116850   4.392   9.625   8.443
 5536WAT     H216851   4.496   9.687   8.334
 5537WAT      O16852   1.288   7.146   4.841
 5537WAT     H116853   1.196   7.130   4.878
 5537WAT     H216854   1.351   7.167   4.916
 5538WAT      O16855   3.012   5.611   3.549
 5538WAT     H116856   2.981   5.656   3.465
 5538WAT     H216857   3.051   5.522   3.527
 5539WAT      O16858   7.373   3.301   6.031
 5539WAT     H116859   7.387   3.400   6.029
 5539WAT     H216860   7.361   3.267   5.937
 5540WAT      O16861   9.235   3.856   0.718
 5540WAT     H116862   9.322   3.889   0.756
 5540WAT     H216863   9.160   3.912   0.754
 5541WAT      O16864   3.724   3.202   6.618
 5541WAT     H116865   3.754   3.243   6.704
 5541WAT     H216866   3.691   3.109   6.634
 5542WAT      O16867   9.482   5.188   3.864
 5542WAT     H116868   9.441   5.271   3.826
 5542WAT     H216869   9.415   5.113   3.860
 5543WAT      O16870   8.166   1.663   1.705
 5543WAT     H116871   8.173   1.714   1.791
 5543WAT     H216872   8.151   1.727   1.630
 5544WAT      O16873   2.511   3.464   6.281
 5544WAT     H116874   2.602   3.422   6.283
 5544WAT     H216875   2.519   3.563   6.292
 5545WAT      O16876   1.202   5.642   6.820
 5545WAT     H116877   1.125   5.600   6.771
 5545WAT     H216878   1.287   5.611   6.779
 5546WAT      O16879   8.329   5.979   8.637
 5546WAT     H116880   8.396   6.014   8.703
 5546WAT     H216881   8.326   6.039   8.557
 5547WAT      O16882   1.804   2.344   2.517
 5547WAT     H116883   1.760   2.323   2.429
 5547WAT     H216884   1.902   2.323   2.511
 5548WAT      O16885   2.559   3.272   8.031
 5548WAT     H116886   2.524   3.319   8.112
 5548WAT     H216887   2.531   3.323   7.949
 5549WAT      O16888   0.944   9.712   6.073
 5549WAT     H116889   0.943   9.808   6.101
 5549WAT     H216890   0.865   9.694   6.014
 5550WAT      O16891   2.899   2.273   9.253
 5550WAT     H116892   2.866   2.316   9.169
 5550WAT     H216893   2.997   2.292   9.263
 5551WAT      O16894   6.068   8.883   0.884
 5551WAT     H116895   6.068   8.793   0.928
 5551WAT     H216896   6.144   8.888   0.819
 5552WAT      O16897   4.401   7.305   0.767
 5552WAT     H116898   4.356   7.233   0.714
 5552WAT     H216899   4.332   7.358   0.816
 5553WAT      O16900   8.576   6.452   7.353
 5553WAT     H116901   8.552   6.511   7.430
 5553WAT     H216902   8.498   6.395   7.329
 5554WAT      O16903   9.568   4.639   6.751
 5554WAT     H116904   9.646   4.608   6.698
 5554WAT     H216905   9.569   4.738   6.758
 5555WAT      O16906   8.385   5.423   6.481
 5555WAT     H116907   8.457   5.399   6.416
 5555WAT     H216908   8.389   5.360   6.559
 5556WAT      O16909   5.081   8.171   8.101
 5556WAT     H116910   5.137   8.166   8.019
 5556WAT     H216911   5.019   8.250   8.094
 5557WAT      O16912   0.791   6.639   0.457
 5557WAT     H116913   0.701   6.621   0.417
 5557WAT     H216914   0.853   6.672   0.386
 5558WAT      O16915   7.080   7.568   4.420
 5558WAT     H116916   7.067   7.626   4.340
 5558WAT     H216917   7.121   7.481   4.392
 5559WAT      O16918   8.979   9.316   8.447
 5559WAT     H116919   8.880   9.310   8.434
 5559WAT     H216920   9.021   9.227   8.429
 5560WAT      O16921   4.724   8.992   1.795
 5560WAT     H116922   4.660   8.916   1.791
 5560WAT     H216923   4.682   9.074   1.756
 5561WAT      O16924   7.833   3.367   3.476
 5561WAT     H116925   7.821   3.344   3.572
 5561WAT     H216926   7.917   3.325   3.442
 5562WAT      O16927   8.060   8.916   6.099
 5562WAT     H116928   8.002   8.940   6.176
 5562WAT     H216929   8.120   8.840   6.125
 5563WAT      O16930   4.137   9.232   8.071
 5563WAT     H116931   4.221   9.270   8.035
 5563WAT     H216932   4.077   9.205   7.996
 5564WAT      O16933   8.370   5.568   1.294
 5564WAT     H116934   8.292   5.524   1.248
 5564WAT     H216935   8.408   5.506   1.362
 5565WAT      O16936   0.648   5.590   4.834
 5565WAT     H116937   0.738   5.606   4.793
 5565WAT     H216938   0.653   5.511   4.896
 5566WAT      O16939   7.164   7.612   9.806
 5566WAT     H116940   7.199   7.624   9.713
 5566WAT     H216941   7.143   7.702   9.845
 5567WAT      O16942   4.588   7.012   4.394
 5567WAT     H116943   4.544   7.084   4.447
 5567WAT     H216944   4.581   7.034   4.296
 5568WAT      O16945   7.934   1.341   1.284
 5568WAT     H116946   7.938   1.369   1.380
 5568WAT     H216947   7.841   1.309   1.262
 5569WAT      O16948   4.967   9.087   3.203
 5569WAT     H116949   4.926   9.013   3.151
 5569WAT     H216950   4.942   9.175   3.162
 5570WAT      O16951   7.361   5.613   6.305
 5570WAT     H116952   7.411   5.526   6.299
 5570WAT     H216953   7.354   5.641   6.400
 5571WAT      O16954   2.035   6.073   3.767
 5571WAT     H116955   2.108   6.122   3.719
 5571WAT     H216956   1.960   6.136   3.787
 5572WAT      O16957   5.401   7.983   4.979
 5572WAT     H116958   5.331   7.937   5.033
 5572WAT     H216959   5.421   7.930   4.897
 5573WAT      O16960   7.216   5.061   5.460
 5573WAT     H116961   7.141   5.107   5.414
 5573WAT     H216962   7.279   5.023   5.391
 5574WAT      O16963   4.623   0.649   9.137
 5574WAT     H116964   4.579   0.663   9.048
 5574WAT     H216965   4.565   0.590   9.194
 5575WAT      O16966   9.390   6.313   4.848
 5575WAT     H116967   9.463   6.349   4.790
 5575WAT     H216968   9.418   6.225   4.886
 5576WAT      O16969   6.901   0.342   3.645
 5576WAT     H116970   6.977   0.393   3.685
 5576WAT     H216971   6.822   0.346   3.706
 5577WAT      O16972   1.720   1.939   7.094
 5577WAT     H116973   1.641   1.891   7.132
 5577WAT     H216974   1.770   1.986   7.167
 5578WAT      O16975   4.412   1.072   4.937
 5578WAT     H116976   4.350   0.997   4.915
 5578WAT     H216977   4.369   1.131   5.007
 5579WAT      O16978   6.515   3.261   3.656
 5579WAT     H116979   6.453   3.310   3.595
 5579WAT     H216980   6.591   3.321   3.681
 5580WAT      O16981   8.465   0.461   1.999
 5580WAT     H116982   8.430   0.505   1.917
 5580WAT     H216983   8.564   0.446   1.990
 5581WAT      O16984   7.612   3.666   5.951
 5581WAT     H116985   7.664   3.630   6.028
 5581WAT     H216986   7.669   3.730   5.899
 5582WAT      O16987   9.308   2.881   8.328
 5582WAT     H116988   9.264   2.794   8.304
 5582WAT     H216989   9.402   2.863   8.357
 5583WAT      O16990   6.932   4.491   1.552
 5583WAT     H116991   6.867   4.562   1.576
 5583WAT     H216992   7.025   4.528   1.552
 5584WAT      O16993   9.048   9.038   3.201
 5584WAT     H116994   8.995   9.123   3.200
 5584WAT     H216995   9.005   8.971   3.140
 5585WAT      O16996   7.981   0.826   1.919
 5585WAT     H116997   8.061   0.882   1.938
 5585WAT     H216998   7.901   0.884   1.904
 5586WAT      O16999   0.692   0.745   7.209
 5586WAT     H117000   0.677   0.726   7.306
 5586WAT     H217001   0.747   0.828   7.199
 5587WAT      O17002   1.113   8.331   2.450
 5587WAT     H117003   1.097   8.420   2.493
 5587WAT     H217004   1.164   8.344   2.365
 5588WAT      O17005   1.807   7.942   6.392
 5588WAT     H117006   1.725   7.969   6.341
 5588WAT     H217007   1.888   7.964   6.338
 5589WAT      O17008   3.331   5.386   5.301
 5589WAT     H117009   3.283   5.300   5.320
 5589WAT     H217010   3.344   5.436   5.386
 5590WAT      O17011   2.358   5.948   1.403
 5590WAT     H117012   2.274   5.895   1.411
 5590WAT     H217013   2.345   6.020   1.334
 5591WAT      O17014   1.944   5.984   4.880
 5591WAT     H117015   1.935   6.051   4.953
 5591WAT     H217016   1.928   5.892   4.918
 5592WAT      O17017   6.481   3.037   4.930
 5592WAT     H117018   6.388   3.073   4.932
 5592WAT     H217019   6.489   2.962   4.996
 5593WAT      O17020   8.212   4.715   9.240
 5593WAT     H117021   8.181   4.668   9.323
 5593WAT     H217022   8.134   4.735   9.181
 5594WAT      O17023   4.829   5.789   0.130
 5594WAT     H117024   4.820   5.696   0.094
 5594WAT     H217025   4.776   5.852   0.072
 5595WAT      O17026   6.105   4.307   4.554
 5595WAT     H117027   6.140   4.364   4.628
 5595WAT     H217028   6.007   4.322   4.542
 5596WAT      O17029   4.514   6.311   5.167
 5596WAT     H117030   4.434   6.263   5.201
 5596WAT     H217031   4.593   6.250   5.168
 5597WAT      O17032   9.678   0.220   8.561
 5597WAT     H117033   9.711   0.136   8.605
 5597WAT     H217034   9.747   0.252   8.496
 5598WAT      O17035   3.533   2.856   6.103
 5598WAT     H117036   3.483   2.771   6.122
 5598WAT     H217037   3.472   2.922   6.059
 5599WAT      O17038   2.396   1.511   1.687
 5599WAT     H117039   2.413   1.601   1.648
 5599WAT     H217040   2.476   1.453   1.675
 5600WAT      O17041   6.717   4.584   6.962
 5600WAT     H117042   6.619   4.586   6.945
 5600WAT     H217043   6.735   4.613   7.056
 5601WAT      O17044   5.887   8.681   3.882
 5601WAT     H117045   5.799   8.677   3.835
 5601WAT     H217046   5.884   8.623   3.964
 5602WAT      O17047   3.025   0.870   4.349
 5602WAT     H117048   3.099   0.810   4.379
 5602WAT     H217049   3.038   0.893   4.253
 5603WAT      O17050   5.725   7.701   9.194
 5603WAT     H117051   5.663   7.764   9.241
 5603WAT     H217052   5.689   7.607   9.201
 5604WAT      O17053   7.403   3.070   1.287
 5604WAT     H117054   7.500   3.061   1.262
 5604WAT     H217055   7.348   3.077   1.204
 5605WAT      O17056   9.052   5.054   1.433
 5605WAT     H117057   8.957   5.041   1.463
 5605WAT     H217058   9.113   5.042   1.512
 5606WAT      O17059   0.020   1.090   6.748
 5606WAT     H117060  -0.046   1.120   6.679
 5606WAT     H217061  -0.030   1.054   6.827
 5607WAT      O17062   3.894   8.209   2.989
 5607WAT     H117063   3.857   8.176   2.901
 5607WAT     H217064   3.965   8.146   3.020
 5608WAT      O17065   0.465   4.409   1.181
 5608WAT     H117066   0.532   4.335   1.184
 5608WAT     H217067   0.513   4.496   1.174
 5609WAT      O17068   0.759   3.785   1.588
 5609WAT     H117069   0.662   3.809   1.578
 5609WAT     H217070   0.815   3.860   1.553
 5610WAT      O17071   6.005   6.621   3.321
 5610WAT     H117072   5.933   6.602   3.255
 5610WAT     H217073   5.967   6.618   3.413
 5611WAT      O17074   9.262   9.607   1.776
 5611WAT     H117075   9.253   9.638   1.681
 5611WAT     H217076   9.279   9.686   1.835
 5612WAT      O17077   5.084   4.015   5.203
 5612WAT     H117078   5.161   3.951   5.197
 5612WAT     H217079   5.119   4.107   5.223
 5613WAT      O17080   1.503   5.419   3.824
 5613WAT     H117081   1.452   5.408   3.909
 5613WAT     H217082   1.455   5.482   3.763
 5614WAT      O17083   0.632   3.600   8.641
 5614WAT     H117084   0.613   3.504   8.620
 5614WAT     H217085   0.566   3.658   8.594
 5615WAT      O17086   4.644   5.292   7.405
 5615WAT     H117087   4.734   5.263   7.374
 5615WAT     H217088   4.630   5.388   7.382
 5616WAT      O17089   1.706   9.792   8.426
 5616WAT     H117090   1.789   9.753   8.385
 5616WAT     H217091   1.647   9.717   8.458
 5617WAT      O17092   6.835   6.058   5.498
 5617WAT     H117093   6.829   6.155   5.472
 5617WAT     H217094   6.928   6.037   5.526
 5618WAT      O17095   4.555   5.248   0.947
 5618WAT     H117096   4.458   5.271   0.936
 5618WAT     H217097   4.610   5.306   0.886
 5619WAT      O17098   5.661   1.247   5.813
 5619WAT     H117099   5.757   1.251   5.841
 5619WAT     H217100   5.603   1.237   5.894
 5620WAT      O17101   3.119   0.744   9.488
 5620WAT     H117102   3.186   0.785   9.549
 5620WAT     H217103   3.053   0.690   9.541
 5621WAT      O17104   5.165   7.403   2.875
 5621WAT     H117105   5.224   7.425   2.797
 5621WAT     H217106   5.076   7.446   2.863
 5622WAT      O17107   5.254   1.486   6.079
 5622WAT     H117108   5.289   1.525   6.164
 5622WAT     H217109   5.223   1.392   6.096
 5623WAT      O17110   9.208   4.581   8.205
 5623WAT     H117111   9.168   4.668   8.179
 5623WAT     H217112   9.232   4.529   8.123
 5624WAT      O17113   5.935   3.166   7.228
 5624WAT     H117114   5.838   3.170   7.252
 5624WAT     H217115   5.967   3.257   7.203
 5625WAT      O17116   9.377   2.428   9.232
 5625WAT     H117117   9.399   2.347   9.288
 5625WAT     H217118   9.280   2.426   9.209
 5626WAT      O17119   1.503   1.366   9.057
 5626WAT     H117120   1.412   1.326   9.064
 5626WAT     H217121   1.535   1.360   8.963
 5627WAT      O17122   8.493   2.638   1.395
 5627WAT     H117123   8.511   2.566   1.328
 5627WAT     H217124   8.570   2.645   1.458
 5628WAT      O17125   3.376   7.575   5.148
 5628WAT     H117126   3.425   7.577   5.061
 5628WAT     H217127   3.364   7.668   5.182
 5629WAT      O17128   8.266   4.491   6.191
 5629WAT     H117129   8.348   4.545   6.207
 5629WAT     H217130   8.192   4.525   6.248
 5630WAT      O17131   0.225   9.683   4.301
 5630WAT     H117132   0.136   9.698   4.259
 5630WAT     H217133   0.297   9.702   4.234
 5631WAT      O17134   6.759   9.369   6.300
 5631WAT     H117135   6.795   9.356   6.207
 5631WAT     H217136   6.828   9.416   6.356
 5632WAT      O17137   3.517   8.034   6.632
 5632WAT     H117138   3.432   8.050   6.682
 5632WAT     H217139   3.501   7.969   6.558
 5633WAT      O17140   5.052   3.631   3.734
 5633WAT     H117141   4.999   3.583   3.664
 5633WAT     H217142   4.991   3.660   3.808
 5634WAT      O17143   9.520   6.479   2.662
 5634WAT     H117144   9.562   6.396   2.698
 5634WAT     H217145   9.456   6.517   2.729
 5635WAT      O17146   9.103   3.846   8.338
 5635WAT     H117147   9.128   3.943   8.347
 5635WAT     H217148   9.183   3.789   8.355
 5636WAT      O17149   4.486   1.034   0.896
 5636WAT     H117150   4.396   1.043   0.940
 5636WAT     H217151   4.479   0.972   0.819
 5637WAT      O17152   0.071   1.424   8.332
 5637WAT     H117153   0.095   1.493   8.264
 5637WAT     H217154  -0.022   1.391   8.315
 5638WAT      O17155   1.335   3.201   7.655
 5638WAT     H117156   1.398   3.145   7.600
 5638WAT     H217157   1.324   3.291   7.611
 5639WAT      O17158   6.797   9.750   0.855
 5639WAT     H117159   6.772   9.668   0.907
 5639WAT     H217160   6.891   9.776   0.877
 5640WAT      O17161   5.505   1.409   7.167
 5640WAT     H117162   5.431   1.474   7.181
 5640WAT     H217163   5.470   1.329   7.118
 5641WAT      O17164   6.805   1.066   7.566
 5641WAT     H117165   6.869   0.996   7.534
 5641WAT     H217166   6.795   1.059   7.665
 5642WAT      O17167   4.919   3.457   3.563
 5642WAT     H117168   4.848   3.504   3.615
 5642WAT     H217169   4.928   3.500   3.472
 5643WAT      O17170   2.263   6.184   3.354
 5643WAT     H117171   2.274   6.124   3.275
 5643WAT     H217172   2.336   6.253   3.353
 5644WAT      O17173   8.023   5.452   2.128
 5644WAT     H117174   8.104   5.394   2.130
 5644WAT     H217175   8.042   5.539   2.174
 5645WAT      O17176   1.866   6.600   8.719
 5645WAT     H117177   1.795   6.552   8.668
 5645WAT     H217178   1.831   6.688   8.750
 5646WAT      O17179   3.901   7.381   4.902
 5646WAT     H117180   3.898   7.476   4.935
 5646WAT     H217181   3.834   7.327   4.952
 5647WAT      O17182   3.263   6.163   0.846
 5647WAT     H117183   3.236   6.113   0.764
 5647WAT     H217184   3.356   6.198   0.833
 5648WAT      O17185   9.424   2.875   0.159
 5648WAT     H117186   9.423   2.948   0.227
 5648WAT     H217187   9.415   2.787   0.204
 5649WAT      O17188   1.962   0.008   3.126
 5649WAT     H117189   1.914  -0.008   3.040
 5649WAT     H217190   1.921  -0.048   3.198
 5650WAT      O17191   6.180   2.288   5.136
 5650WAT     H117192   6.122   2.207   5.147
 5650WAT     H217193   6.141   2.348   5.066
 5651WAT      O17194   8.451   0.349   0.074
 5651WAT     H117195   8.508   0.348   0.156
 5651WAT     H217196   8.372   0.408   0.090
 5652WAT      O17197   8.844   1.108   0.520
 5652WAT     H117198   8.759   1.104   0.467
 5652WAT     H217199   8.827   1.156   0.606
 5653WAT      O17200   1.058   4.711   0.970
 5653WAT     H117201   1.118   4.658   0.910
 5653WAT     H217202   1.064   4.808   0.947
 5654WAT      O17203   1.226   5.277   3.651
 5654WAT     H117204   1.258   5.357   3.702
 5654WAT     H217205   1.172   5.218   3.711
 5655WAT      O17206   1.673   6.754   5.503
 5655WAT     H117207   1.652   6.809   5.422
 5655WAT     H217208   1.593   6.753   5.564
 5656WAT      O17209   8.539   8.299   5.699
 5656WAT     H117210   8.601   8.311   5.776
 5656WAT     H217211   8.570   8.355   5.622
 5657WAT      O17212   2.114   8.922   1.681
 5657WAT     H117213   2.093   8.828   1.708
 5657WAT     H217214   2.123   8.979   1.763
 5658WAT      O17215   7.115   7.038   6.376
 5658WAT     H117216   7.148   7.125   6.341
 5658WAT     H217217   7.017   7.029   6.358
 5659WAT      O17218   6.282   2.156   3.817
 5659WAT     H117219   6.330   2.189   3.899
 5659WAT     H217220   6.278   2.229   3.749
 5660WAT      O17221   3.302   1.546   6.118
 5660WAT     H117222   3.283   1.500   6.205
 5660WAT     H217223   3.322   1.642   6.134
 5661WAT      O17224   4.314   1.086   8.391
 5661WAT     H117225   4.291   1.152   8.320
 5661WAT     H217226   4.306   0.993   8.354
 5662WAT      O17227   2.631   2.457   0.074
 5662WAT     H117228   2.692   2.411   0.138
 5662WAT     H217229   2.656   2.434  -0.020
 5663WAT      O17230   4.808   3.382   5.130
 5663WAT     H117231   4.794   3.440   5.050
 5663WAT     H217232   4.721   3.368   5.177
 5664WAT      O17233   2.482   9.739   2.076
 5664WAT     H117234   2.526   9.760   1.989
 5664WAT     H217235   2.464   9.641   2.082
 5665WAT      O17236   9.308   3.375   9.501
 5665WAT     H117237   9.267   3.345   9.415
 5665WAT     H217238   9.405   3.393   9.487
 5666WAT      O17239   2.821   6.822   3.156
 5666WAT     H117240   2.753   6.786   3.092
 5666WAT     H217241   2.846   6.915   3.130
 5667WAT      O17242   6.548   6.061   5.640
 5667WAT     H117243   6.622   6.027   5.582
 5667WAT     H217244   6.476   6.099   5.582
 5668WAT      O17245   0.833   0.961   7.362
 5668WAT     H117246   0.851   0.889   7.429
 5668WAT     H217247   0.919   1.009   7.341
 5669WAT      O17248   3.327   8.910   0.222
 5669WAT     H117249   3.351   8.997   0.181
 5669WAT     H217250   3.239   8.879   0.187
 5670WAT      O17251   2.087   2.730   9.573
 5670WAT     H117252   2.109   2.633   9.561
 5670WAT     H217253   2.098   2.778   9.486
 5671WAT      O17254   1.808   4.105   1.272
 5671WAT     H117255   1.862   4.139   1.194
 5671WAT     H217256   1.841   4.015   1.298
 5672WAT      O17257   1.223   0.661   6.042
 5672WAT     H117258   1.239   0.726   6.117
 5672WAT     H217259   1.209   0.570   6.079
 5673WAT      O17260   0.736   4.167   2.418
 5673WAT     H117261   0.648   4.158   2.373
 5673WAT     H217262   0.765   4.263   2.417
 5674WAT      O17263   7.922   9.497   1.071
 5674WAT     H117264   7.913   9.465   0.977
 5674WAT     H217265   8.011   9.470   1.108
 5675WAT      O17266   0.863   2.442   6.851
 5675WAT     H117267   0.932   2.418   6.782
 5675WAT     H217268   0.777   2.397   6.828
 5676WAT      O17269   3.186   0.616   4.237
 5676WAT     H117270   3.274   0.599   4.280
 5676WAT     H217271   3.181   0.712   4.208
 5677WAT      O17272   3.792   7.043   1.784
 5677WAT     H117273   3.805   7.053   1.883
 5677WAT     H217274   3.760   6.951   1.764
 5678WAT      O17275   9.825   6.087   3.358
 5678WAT     H117276   9.814   6.061   3.454
 5678WAT     H217277   9.787   6.178   3.344
 5679WAT      O17278   8.333   5.169   2.617
 5679WAT     H117279   8.336   5.184   2.716
 5679WAT     H217280   8.417   5.124   2.588
 5680WAT      O17281   8.409   2.004   1.844
 5680WAT     H117282   8.337   1.984   1.778
 5680WAT     H217283   8.467   1.923   1.857
 5681WAT      O17284   9.155   4.598   2.355
 5681WAT     H117285   9.233   4.613   2.294
 5681WAT     H217286   9.188   4.574   2.446
 5682WAT      O17287   4.311   5.433   1.576
 5682WAT     H117288   4.365   5.393   1.650
 5682WAT     H217289   4.250   5.363   1.538
 5683WAT      O17290   1.841   9.143   5.746
 5683WAT     H117291   1.750   9.142   5.704
 5683WAT     H217292   1.900   9.076   5.700
 5684WAT      O17293   6.827   0.557   7.018
 5684WAT     H117294   6.927   0.562   7.028
 5684WAT     H217295   6.802   0.584   6.925
 5685WAT      O17296   4.722   8.543   6.705
 5685WAT     H117297   4.744   8.530   6.608
 5685WAT     H217298   4.625   8.522   6.720
 5686WAT      O17299   0.675   6.867   7.213
 5686WAT     H117300   0.718   6.781   7.185
 5686WAT     H217301   0.746   6.935   7.232
 5687WAT      O17302   4.795   6.010   8.590
 5687WAT     H117303   4.709   5.961   8.607
 5687WAT     H217304   4.816   6.068   8.668
 5688WAT      O17305   0.670   0.687   0.689
 5688WAT     H117306   0.765   0.661   0.670
 5688WAT     H217307   0.646   0.661   0.782
 5689WAT      O17308   7.269   5.259   4.502
 5689WAT     H117309   7.332   5.322   4.547
 5689WAT     H217310   7.286   5.166   4.535
 5690WAT      O17311   7.187   0.412   4.444
 5690WAT     H117312   7.262   0.463   4.402
 5690WAT     H217313   7.222   0.355   4.518
 5691WAT      O17314   6.355   2.342   0.863
 5691WAT     H117315   6.439   2.395   0.850
 5691WAT     H217316   6.370   2.273   0.934
 5692WAT      O17317   0.160   3.544   5.057
 5692WAT     H117318   0.180   3.464   5.114
 5692WAT     H217319   0.244   3.575   5.012
 5693WAT      O17320   8.245   9.358   9.032
 5693WAT     H117321   8.336   9.389   9.058
 5693WAT     H217322   8.210   9.416   8.959
 5694WAT      O17323   8.133   5.549   5.765
 5694WAT     H117324   8.215   5.590   5.805
 5694WAT     H217325   8.084   5.498   5.836
 5695WAT      O17326   6.930   1.496   9.815
 5695WAT     H117327   6.873   1.509   9.734
 5695WAT     H217328   6.919   1.403   9.850
 5696WAT      O17329   4.742   0.611   1.925
 5696WAT     H117330   4.721   0.708   1.922
 5696WAT     H217331   4.830   0.597   1.971
 5697WAT      O17332   6.363   0.093   7.323
 5697WAT     H117333   6.276   0.055   7.291
 5697WAT     H217334   6.428   0.096   7.247
 5698WAT      O17335   1.170   7.647   4.524
 5698WAT     H117336   1.242   7.661   4.456
 5698WAT     H217337   1.210   7.612   4.608
 5699WAT      O17338   5.126   9.000   8.126
 5699WAT     H117339   5.211   8.983   8.076
 5699WAT     H217340   5.129   9.091   8.167
 5700WAT      O17341   3.318   8.089   0.006
 5700WAT     H117342   3.390   8.085   0.076
 5700WAT     H217343   3.357   8.067  -0.083
 5701WAT      O17344   4.852   4.072   6.028
 5701WAT     H117345   4.941   4.113   6.006
 5701WAT     H217346   4.825   4.099   6.120
 5702WAT      O17347   6.992   3.122   7.447
 5702WAT     H117348   7.045   3.049   7.489
 5702WAT     H217349   7.044   3.208   7.452
 5703WAT      O17350   4.230   4.980   9.685
 5703WAT     H117351   4.207   5.077   9.676
 5703WAT     H217352   4.245   4.958   9.781
 5704WAT      O17353   7.085   1.634   5.408
 5704WAT     H117354   7.177   1.674   5.408
 5704WAT     H217355   7.017   1.707   5.414
 5705WAT      O17356   1.920   4.517   2.096
 5705WAT     H117357   1.968   4.503   2.010
 5705WAT     H217358   1.888   4.430   2.132
 5706WAT      O17359   1.327   5.007   0.791
 5706WAT     H117360   1.342   5.096   0.747
 5706WAT     H217361   1.414   4.972   0.825
 5707WAT      O17362   9.524   4.255   7.930
 5707WAT     H117363   9.560   4.162   7.921
 5707WAT     H217364   9.581   4.318   7.876
 5708WAT      O17365   0.699   7.178   9.369
 5708WAT     H117366   0.703   7.277   9.351
 5708WAT     H217367   0.718   7.162   9.466
 5709WAT      O17368   3.209   1.459   2.568
 5709WAT     H117369   3.229   1.522   2.643
 5709WAT     H217370   3.292   1.446   2.514
 5710WAT      O17371   8.089   0.213   5.047
 5710WAT     H117372   7.991   0.231   5.040
 5710WAT     H217373   8.133   0.287   5.097
 5711WAT      O17374   2.403   1.272   3.057
 5711WAT     H117375   2.464   1.273   3.136
 5711WAT     H217376   2.379   1.365   3.032
 5712WAT      O17377   7.286   9.470   5.671
 5712WAT     H117378   7.371   9.418   5.682
 5712WAT     H217379   7.295   9.558   5.717
 5713WAT      O17380   1.832   8.264   3.477
 5713WAT     H117381   1.820   8.338   3.410
 5713WAT     H217382   1.927   8.262   3.507
 5714WAT      O17383   5.544   1.313   2.093
 5714WAT     H117384   5.644   1.306   2.092
 5714WAT     H217385   5.507   1.254   2.164
 5715WAT      O17386   1.600   8.955   8.369
 5715WAT     H117387   1.518   8.897   8.373
 5715WAT     H217388   1.682   8.898   8.376
 5716WAT      O17389   5.614   8.921   0.663
 5716WAT     H117390   5.592   9.018   0.674
 5716WAT     H217391   5.712   8.909   0.649
 5717WAT      O17392   3.059   3.106   4.573
 5717WAT     H117393   3.049   3.103   4.672
 5717WAT     H217394   2.968   3.102   4.531
 5718WAT      O17395   3.210   7.396   5.032
 5718WAT     H117396   3.268   7.467   5.070
 5718WAT     H217397   3.209   7.317   5.093
 5719WAT      O17398   9.449   2.176   0.110
 5719WAT     H117399   9.434   2.170   0.011
 5719WAT     H217400   9.375   2.231   0.151
 5720WAT      O17401   3.187   3.319   6.170
 5720WAT     H117402   3.252   3.370   6.227
 5720WAT     H217403   3.112   3.379   6.144
 5721WAT      O17404   3.097   6.182   9.634
 5721WAT     H117405   3.001   6.189   9.610
 5721WAT     H217406   3.110   6.214   9.728
 5722WAT      O17407   0.748   1.846   7.174
 5722WAT     H117408   0.766   1.750   7.151
 5722WAT     H217409   0.760   1.860   7.272
 5723WAT      O17410   6.984   0.899   7.454
 5723WAT     H117411   6.992   0.799   7.457
 5723WAT     H217412   7.000   0.930   7.360
 5724WAT      O17413   8.554   6.980   8.580
 5724WAT     H117414   8.502   7.065   8.589
 5724WAT     H217415   8.594   6.976   8.489
 5725WAT      O17416   7.900   6.504   5.669
 5725WAT     H117417   7.960   6.576   5.634
 5725WAT     H217418   7.865   6.531   5.759
 5726WAT      O17419   9.674   7.429   5.748
 5726WAT     H117420   9.737   7.437   5.671
 5726WAT     H217421   9.584   7.401   5.715
 5727WAT      O17422   5.893   0.058   5.186
 5727WAT     H117423   5.798   0.069   5.156
 5727WAT     H217424   5.896   0.015   5.276
 5728WAT      O17425   0.602   2.899   3.225
 5728WAT     H117426   0.520   2.911   3.280
 5728WAT     H217427   0.682   2.924   3.280
 5729WAT      O17428   0.611   8.766   9.476
 5729WAT     H117429   0.609   8.695   9.546
 5729WAT     H217430   0.643   8.727   9.390
 5730WAT      O17431   6.798   5.364   9.389
 5730WAT     H117432   6.762   5.381   9.481
 5730WAT     H217433   6.816   5.451   9.343
 5731WAT      O17434   7.984   0.115   2.485
 5731WAT     H117435   7.988   0.204   2.439
 5731WAT     H217436   8.044   0.051   2.437
 5732WAT      O17437   9.138   7.442   5.119
 5732WAT     H117438   9.198   7.449   5.040
 5732WAT     H217439   9.043   7.435   5.089
 5733WAT      O17440   0.280   5.611   5.819
 5733WAT     H117441   0.262   5.660   5.734
 5733WAT     H217442   0.198   5.611   5.876
 5734WAT      O17443   1.877   8.980   1.535
 5734WAT     H117444   1.909   9.039   1.461
 5734WAT     H217445   1.955   8.953   1.592
 5735WAT      O17446   1.530   0.496   2.906
 5735WAT     H117447   1.577   0.504   2.994
 5735WAT     H217448   1.440   0.539   2.912
 5736WAT      O17449   2.526   8.737   7.942
 5736WAT     H117450   2.512   8.731   7.844
 5736WAT     H217451   2.484   8.822   7.976
 5737WAT      O17452   4.404   9.283   3.698
 5737WAT     H117453   4.493   9.323   3.677
 5737WAT     H217454   4.332   9.333   3.650
 5738WAT      O17455   9.668   6.930   7.962
 5738WAT     H117456   9.761   6.965   7.952
 5738WAT     H217457   9.669   6.849   8.021
 5739WAT      O17458   7.230   8.556   5.154
 5739WAT     H117459   7.255   8.634   5.096
 5739WAT     H217460   7.136   8.529   5.135
 5740WAT      O17461   9.671   4.933   9.621
 5740WAT     H117462   9.730   4.917   9.542
 5740WAT     H217463   9.722   4.911   9.705
 5741WAT      O17464   2.773   9.411   4.346
 5741WAT     H117465   2.716   9.337   4.382
 5741WAT     H217466   2.859   9.414   4.398
 5742WAT      O17467   2.397   8.702   1.480
 5742WAT     H117468   2.468   8.722   1.413
 5742WAT     H217469   2.307   8.715   1.439
 5743WAT      O17470   8.828   2.840   4.440
 5743WAT     H117471   8.893   2.789   4.383
 5743WAT     H217472   8.771   2.898   4.383
 5744WAT      O17473   8.142   8.710   7.675
 5744WAT     H117474   8.146   8.632   7.738
 5744WAT     H217475   8.064   8.699   7.613
 5745WAT      O17476   6.007   6.785   5.622
 5745WAT     H117477   6.096   6.830   5.619
 5745WAT     H217478   6.013   6.701   5.676
 5746WAT      O17479   0.372   4.524   6.258
 5746WAT     H117480   0.348   4.563   6.347
 5746WAT     H217481   0.373   4.424   6.263
 5747WAT      O17482   9.362   7.503   4.933
 5747WAT     H117483   9.350   7.434   4.861
 5747WAT     H217484   9.413   7.464   5.009
 5748WAT      O17485   5.513   1.996   6.107
 5748WAT     H117486   5.460   1.974   6.189
 5748WAT     H217487   5.452   1.999   6.027
 5749WAT      O17488   2.656   8.988   7.501
 5749WAT     H117489   2.649   9.006   7.403
 5749WAT     H217490   2.633   8.892   7.519
 5750WAT      O17491   6.733   2.993   3.895
 5750WAT     H117492   6.660   2.928   3.876
 5750WAT     H217493   6.702   3.059   3.964
 5751WAT      O17494   3.489   7.042   0.488
 5751WAT     H117495   3.465   7.074   0.580
 5751WAT     H217496   3.500   6.943   0.489
 5752WAT      O17497   7.223   0.449   9.206
 5752WAT     H117498   7.209   0.507   9.286
 5752WAT     H217499   7.278   0.370   9.231
 5753WAT      O17500   8.951   2.978   1.875
 5753WAT     H117501   9.018   3.020   1.815
 5753WAT     H217502   8.941   3.032   1.959
 5754WAT      O17503   2.904   2.729   5.993
 5754WAT     H117504   2.966   2.791   5.944
 5754WAT     H217505   2.955   2.650   6.025
 5755WAT      O17506   7.926   9.537   7.832
 5755WAT     H117507   8.022   9.552   7.807
 5755WAT     H217508   7.898   9.607   7.898
 5756WAT      O17509   9.530   1.160   3.346
 5756WAT     H117510   9.623   1.148   3.381
 5756WAT     H217511   9.529   1.231   3.276
 5757WAT      O17512   2.107   9.387   0.568
 5757WAT     H117513   2.045   9.323   0.523
 5757WAT     H217514   2.152   9.444   0.500
 5758WAT      O17515   7.719   3.007   2.125
 5758WAT     H117516   7.774   2.923   2.122
 5758WAT     H217517   7.744   3.066   2.048
 5759WAT      O17518   2.874   9.536   9.438
 5759WAT     H117519   2.951   9.576   9.487
 5759WAT     H217520   2.891   9.542   9.339
 5760WAT      O17521   7.339   1.885   3.325
 5760WAT     H117522   7.304   1.792   3.338
 5760WAT     H217523   7.437   1.886   3.344
 5761WAT      O17524   9.142   0.854   9.045
 5761WAT     H117525   9.134   0.952   9.028
 5761WAT     H217526   9.103   0.832   9.135
 5762WAT      O17527   8.729   5.579   8.725
 5762WAT     H117528   8.818   5.554   8.688
 5762WAT     H217529   8.686   5.500   8.768
 5763WAT      O17530   4.471   4.428   0.689
 5763WAT     H117531   4.507   4.342   0.728
 5763WAT     H217532   4.403   4.466   0.751
 5764WAT      O17533   2.254   4.983   1.082
 5764WAT     H117534   2.247   5.082   1.068
 5764WAT     H217535   2.247   4.936   0.994
 5765WAT      O17536   2.877   9.282   8.704
 5765WAT     H117537   2.934   9.321   8.631
 5765WAT     H217538   2.804   9.228   8.663
 5766WAT      O17539   2.454   3.601   3.977
 5766WAT     H117540   2.510   3.518   3.985
 5766WAT     H217541   2.415   3.607   3.886
 5767WAT      O17542   1.999   1.979   8.907
 5767WAT     H117543   2.021   1.892   8.952
 5767WAT     H217544   1.954   2.040   8.973
 5768WAT      O17545   7.573   1.066   4.771
 5768WAT     H117546   7.657   1.114   4.746
 5768WAT     H217547   7.499   1.133   4.783
 5769WAT      O17548   1.924   2.826   9.115
 5769WAT     H117549   1.971   2.851   9.200
 5769WAT     H217550   1.900   2.729   9.116
 5770WAT      O17551   6.984   1.105   4.878
 5770WAT     H117552   6.961   1.193   4.919
 5770WAT     H217553   7.050   1.057   4.936
 5771WAT      O17554   9.004   3.636   5.618
 5771WAT     H117555   9.014   3.661   5.522
 5771WAT     H217556   8.973   3.715   5.671
 5772WAT      O17557   6.422   2.614   9.088
 5772WAT     H117558   6.338   2.560   9.073
 5772WAT     H217559   6.485   2.599   9.012
 5773WAT      O17560   2.956   7.920   9.360
 5773WAT     H117561   2.886   7.882   9.300
 5773WAT     H217562   2.985   7.850   9.426
 5774WAT      O17563   8.219   2.796   0.097
 5774WAT     H117564   8.278   2.740   0.039
 5774WAT     H217565   8.209   2.752   0.187
 5775WAT      O17566   1.051   3.951   9.054
 5775WAT     H117567   1.055   3.881   8.983
 5775WAT     H217568   1.115   3.927   9.127
 5776WAT      O17569   8.980   1.272   9.857
 5776WAT     H117570   9.065   1.220   9.870
 5776WAT     H217571   8.993   1.339   9.784
 5777WAT      O17572   3.209   7.968   2.713
 5777WAT     H117573   3.231   8.048   2.657
 5777WAT     H217574   3.294   7.925   2.744
 5778WAT      O17575   9.555   2.823   8.398
 5778WAT     H117576   9.605   2.769   8.466
 5778WAT     H217577   9.613   2.839   8.319
 5779WAT      O17578   7.230   9.480   7.503
 5779WAT     H117579   7.312   9.536   7.512
 5779WAT     H217580   7.200   9.479   7.407
 5780WAT      O17581   0.778   9.438   3.561
 5780WAT     H117582   0.836   9.510   3.599
 5780WAT     H217583   0.820   9.349   3.580
 5781WAT      O17584   9.452   5.422   1.097
 5781WAT     H117585   9.376   5.487   1.108
 5781WAT     H217586   9.514   5.455   1.026
 5782WAT      O17587   3.970   3.434   2.188
 5782WAT     H117588   4.030   3.460   2.112
 5782WAT     H217589   4.022   3.431   2.273
 5783WAT      O17590   3.199   6.961   9.757
 5783WAT     H117591   3.237   7.039   9.707
 5783WAT     H217592   3.234   6.962   9.851
 5784WAT      O17593   3.141   6.950   9.309
 5784WAT     H117594   3.055   6.920   9.267
 5784WAT     H217595   3.192   6.871   9.341
 5785WAT      O17596   3.578   6.244   4.562
 5785WAT     H117597   3.606   6.311   4.631
 5785WAT     H217598   3.508   6.284   4.503
 5786WAT      O17599   7.101   2.383   9.673
 5786WAT     H117600   7.071   2.478   9.682
 5786WAT     H217601   7.182   2.378   9.616
 5787WAT      O17602   0.679   0.397   4.709
 5787WAT     H117603   0.713   0.481   4.752
 5787WAT     H217604   0.639   0.419   4.620
 5788WAT      O17605   2.258   1.343   0.170
 5788WAT     H117606   2.344   1.301   0.141
 5788WAT     H217607   2.244   1.326   0.267
 5789WAT      O17608   0.145   1.855   8.233
 5789WAT     H117609   0.150   1.828   8.330
 5789WAT     H217610   0.081   1.931   8.223
 5790WAT      O17611   6.681   5.557   0.494
 5790WAT     H117612   6.658   5.630   0.430
 5790WAT     H217613   6.617   5.559   0.571
 5791WAT      O17614   4.904   6.343   8.609
 5791WAT     H117615   4.894   6.259   8.663
 5791WAT     H217616   5.001   6.365   8.599
 5792WAT      O17617   5.654   8.447   5.541
 5792WAT     H117618   5.632   8.423   5.635
 5792WAT     H217619   5.696   8.538   5.539
 5793WAT      O17620   0.536   8.211   1.382
 5793WAT     H117621   0.549   8.249   1.290
 5793WAT     H217622   0.581   8.271   1.449
 5794WAT      O17623   2.393   2.561   9.803
 5794WAT     H117624   2.471   2.546   9.863
 5794WAT     H217625   2.407   2.645   9.750
 5795WAT      O17626   0.999   9.614   0.424
 5795WAT     H117627   1.050   9.549   0.366
 5795WAT     H217628   1.061   9.687   0.452
 5796WAT      O17629   1.139   3.608   2.524
 5796WAT     H117630   1.056   3.570   2.485
 5796WAT     H217631   1.155   3.568   2.615
 5797WAT      O17632   7.122   3.902   5.195
 5797WAT     H117633   7.101   3.983   5.142
 5797WAT     H217634   7.065   3.900   5.277
 5798WAT      O17635   8.966   9.171   6.792
 5798WAT     H117636   8.998   9.077   6.788
 5798WAT     H217637   9.035   9.232   6.755
 5799WAT      O17638   4.158   0.785   6.025
 5799WAT     H117639   4.087   0.748   5.965
 5799WAT     H217640   4.122   0.863   6.076
 5800WAT      O17641   8.002   2.134   6.793
 5800WAT     H117642   8.024   2.155   6.698
 5800WAT     H217643   8.039   2.044   6.816
 5801WAT      O17644   7.554   6.152   9.167
 5801WAT     H117645   7.596   6.149   9.258
 5801WAT     H217646   7.478   6.086   9.163
 5802WAT      O17647   8.260   8.838   4.680
 5802WAT     H117648   8.336   8.785   4.719
 5802WAT     H217649   8.264   8.835   4.580
 5803WAT      O17650   8.398   3.137   9.277
 5803WAT     H117651   8.409   3.064   9.209
 5803WAT     H217652   8.319   3.117   9.334
 5804WAT      O17653   2.521   5.324   3.910
 5804WAT     H117654   2.584   5.400   3.897
 5804WAT     H217655   2.491   5.289   3.821
 5805WAT      O17656   1.591   9.179   8.498
 5805WAT     H117657   1.652   9.160   8.575
 5805WAT     H217658   1.586   9.099   8.439
 5806WAT      O17659   6.800   6.212   9.072
 5806WAT     H117660   6.837   6.138   9.128
 5806WAT     H217661   6.769   6.174   8.984
 5807WAT      O17662   3.503   2.955   3.889
 5807WAT     H117663   3.449   2.928   3.809
 5807WAT     H217664   3.582   3.008   3.860
 5808WAT      O17665   6.191   7.971   1.923
 5808WAT     H117666   6.282   7.928   1.925
 5808WAT     H217667   6.198   8.060   1.878
 5809WAT      O17668   5.872   9.791   1.967
 5809WAT     H117669   5.784   9.753   1.939
 5809WAT     H217670   5.857   9.863   2.035
 5810WAT      O17671   4.053   2.475   8.249
 5810WAT     H117672   4.076   2.558   8.299
 5810WAT     H217673   4.011   2.409   8.312
 5811WAT      O17674   8.019   1.467   7.861
 5811WAT     H117675   8.103   1.414   7.852
 5811WAT     H217676   8.032   1.539   7.930
 5812WAT      O17677   5.170   3.389   4.747
 5812WAT     H117678   5.186   3.314   4.811
 5812WAT     H217679   5.073   3.395   4.725
 5813WAT      O17680   6.592   2.392   3.171
 5813WAT     H117681   6.645   2.418   3.252
 5813WAT     H217682   6.627   2.306   3.135
 5814WAT      O17683   9.033   4.004   3.322
 5814WAT     H117684   8.971   4.029   3.396
 5814WAT     H217685   9.117   4.059   3.327
 5815WAT      O17686   7.428   0.077   7.647
 5815WAT     H117687   7.430   0.105   7.551
 5815WAT     H217688   7.493   0.132   7.699
 5816WAT      O17689   6.145   5.005   4.250
 5816WAT     H117690   6.114   5.014   4.156
 5816WAT     H217691   6.068   4.977   4.308
 5817WAT      O17692   5.280   8.522   9.741
 5817WAT     H117693   5.245   8.428   9.732
 5817WAT     H217694   5.238   8.579   9.671
 5818WAT      O17695   0.508   1.075   7.065
 5818WAT     H117696   0.570   1.126   7.006
 5818WAT     H217697   0.451   1.015   7.010
 5819WAT      O17698   9.738   6.331   4.997
 5819WAT     H117699   9.834   6.312   4.976
 5819WAT     H217700   9.689   6.244   5.008
 5820WAT      O17701   2.322   8.998   7.292
 5820WAT     H117702   2.315   9.086   7.338
 5820WAT     H217703   2.231   8.970   7.261
 5821WAT      O17704   1.898   7.863   3.710
 5821WAT     H117705   1.838   7.942   3.701
 5821WAT     H217706   1.961   7.861   3.633
 5822WAT      O17707   5.424   6.620   0.934
 5822WAT     H117708   5.499   6.659   0.880
 5822WAT     H217709   5.337   6.636   0.888
 5823WAT      O17710   9.355   0.844   4.761
 5823WAT     H117711   9.322   0.923   4.710
 5823WAT     H217712   9.445   0.817   4.727
 5824WAT      O17713   8.735   3.775   3.947
 5824WAT     H117714   8.827   3.766   3.985
 5824WAT     H217715   8.679   3.829   4.009
 5825WAT      O17716   3.058   4.873   6.409
 5825WAT     H117717   3.080   4.923   6.492
 5825WAT     H217718   3.059   4.936   6.331
 5826WAT      O17719   4.379   5.843   5.206
 5826WAT     H117720   4.386   5.911   5.133
 5826WAT     H217721   4.401   5.752   5.170
 5827WAT      O17722   8.717   5.131   8.725
 5827WAT     H117723   8.725   5.044   8.677
 5827WAT     H217724   8.716   5.206   8.658
 5828WAT      O17725   7.456   6.305   7.681
 5828WAT     H117726   7.497   6.361   7.608
 5828WAT     H217727   7.438   6.362   7.761
 5829WAT      O17728   2.924   7.770   8.403
 5829WAT     H117729   2.891   7.695   8.460
 5829WAT     H217730   3.019   7.790   8.427
 5830WAT      O17731   9.852   1.339   6.974
 5830WAT     H117732   9.892   1.290   7.052
 5830WAT     H217733   9.914   1.412   6.946
 5831WAT      O17734   2.892   0.476   1.057
 5831WAT     H117735   2.815   0.530   1.024
 5831WAT     H217736   2.977   0.520   1.028
 5832WAT      O17737   9.542   9.026   2.798
 5832WAT     H117738   9.570   8.990   2.886
 5832WAT     H217739   9.481   9.105   2.812
 5833WAT      O17740   8.964   8.157   4.918
 5833WAT     H117741   8.994   8.063   4.904
 5833WAT     H217742   9.043   8.218   4.911
 5834WAT      O17743   7.706   6.821   9.780
 5834WAT     H117744   7.714   6.920   9.778
 5834WAT     H217745   7.733   6.787   9.870
 5835WAT      O17746   8.996   2.434   4.951
 5835WAT     H117747   8.942   2.349   4.953
 5835WAT     H217748   9.018   2.460   5.045
 5836WAT      O17749   7.448   0.207   3.306
 5836WAT     H117750   7.531   0.259   3.327
 5836WAT     H217751   7.369   0.255   3.344
 5837WAT      O17752   1.446   9.105   0.040
 5837WAT     H117753   1.476   9.200   0.032
 5837WAT     H217754   1.522   9.049   0.072
 5838WAT      O17755   2.459   7.036   3.386
 5838WAT     H117756   2.441   6.973   3.310
 5838WAT     H217757   2.555   7.027   3.414
 5839WAT      O17758   8.847   3.442   7.896
 5839WAT     H117759   8.851   3.343   7.885
 5839WAT     H217760   8.766   3.467   7.950
 5840WAT      O17761   5.189   8.527   6.506
 5840WAT     H117762   5.144   8.608   6.544
 5840WAT     H217763   5.261   8.556   6.443
 5841WAT      O17764   9.269   4.484   7.975
 5841WAT     H117765   9.349   4.500   7.917
 5841WAT     H217766   9.237   4.391   7.963
 5842WAT      O17767   1.909   1.932   7.296
 5842WAT     H117768   1.986   1.930   7.360
 5842WAT     H217769   1.850   1.853   7.312
 5843WAT      O17770   6.823   9.029   5.175
 5843WAT     H117771   6.887   8.954   5.192
 5843WAT     H217772   6.755   9.000   5.107
 5844WAT      O17773   6.911   3.205   3.264
 5844WAT     H117774   6.884   3.205   3.360
 5844WAT     H217775   6.988   3.267   3.251
 5845WAT      O17776   5.507   1.383   6.625
 5845WAT     H117777   5.433   1.375   6.692
 5845WAT     H217778   5.489   1.323   6.548
 5846WAT      O17779   7.970   7.879   8.237
 5846WAT     H117780   8.038   7.856   8.167
 5846WAT     H217781   7.879   7.849   8.207
 5847WAT      O17782   3.367   4.372   7.461
 5847WAT     H117783   3.390   4.454   7.513
 5847WAT     H217784   3.320   4.306   7.520
 5848WAT      O17785   7.845   7.924   2.106
 5848WAT     H117786   7.872   8.020   2.111
 5848WAT     H217787   7.925   7.866   2.122
 5849WAT      O17788   4.585   4.008   2.898
 5849WAT     H117789   4.498   4.043   2.932
 5849WAT     H217790   4.655   4.018   2.969
 5850WAT      O17791   8.583   7.738   7.871
 5850WAT     H117792   8.669   7.767   7.828
 5850WAT     H217793   8.507   7.753   7.807
 5851WAT      O17794   8.708   5.101   9.274
 5851WAT     H117795   8.789   5.139   9.317
 5851WAT     H217796   8.630   5.161   9.291
 5852WAT      O17797   1.590   6.615   8.348
 5852WAT     H117798   1.572   6.641   8.443
 5852WAT     H217799   1.541   6.531   8.326
 5853WAT      O17800   0.072   0.862   4.796
 5853WAT     H117801   0.160   0.819   4.776
 5853WAT     H217802   0.080   0.916   4.880
 5854WAT      O17803   6.975   2.031   0.729
 5854WAT     H117804   7.030   2.066   0.653
 5854WAT     H217805   6.879   2.024   0.700
 5855WAT      O17806   4.973   7.631   6.776
 5855WAT     H117807   4.969   7.531   6.768
 5855WAT     H217808   5.061   7.657   6.817
 5856WAT      O17809   9.677   8.161   0.515
 5856WAT     H117810   9.760   8.125   0.556
 5856WAT     H217811   9.672   8.260   0.528
 5857WAT      O17812   6.071   4.814   1.299
 5857WAT     H117813   6.070   4.883   1.372
 5857WAT     H217814   6.071   4.723   1.340
 5858WAT      O17815   7.031   6.209   9.748
 5858WAT     H117816   7.065   6.123   9.786
 5858WAT     H217817   7.040   6.207   9.648
 5859WAT      O17818   0.598   9.435   7.327
 5859WAT     H117819   0.617   9.470   7.235
 5859WAT     H217820   0.669   9.466   7.390
 5860WAT      O17821   8.544   1.990   4.477
 5860WAT     H117822   8.615   1.929   4.513
 5860WAT     H217823   8.582   2.081   4.465
 5861WAT      O17824   5.142   8.754   7.778
 5861WAT     H117825   5.089   8.669   7.773
 5861WAT     H217826   5.238   8.734   7.756
 5862WAT      O17827   6.588   9.790   1.717
 5862WAT     H117828   6.511   9.854   1.723
 5862WAT     H217829   6.585   9.728   1.796
 5863WAT      O17830   0.525   1.567   7.359
 5863WAT     H117831   0.566   1.479   7.382
 5863WAT     H217832   0.580   1.612   7.288
 5864WAT      O17833   8.948   5.890   8.886
 5864WAT     H117834   9.007   5.838   8.824
 5864WAT     H217835   8.869   5.924   8.836
 5865WAT      O17836   4.553   0.797   8.467
 5865WAT     H117837   4.572   0.842   8.379
 5865WAT     H217838   4.457   0.770   8.470
 5866WAT      O17839   1.374   9.643   4.833
 5866WAT     H117840   1.421   9.622   4.747
 5866WAT     H217841   1.294   9.584   4.842
 5867WAT      O17842   2.105   0.121   8.925
 5867WAT     H117843   2.022   0.169   8.956
 5867WAT     H217844   2.144   0.169   8.847
 5868WAT      O17845   0.009   1.081   4.648
 5868WAT     H117846   0.094   1.133   4.657
 5868WAT     H217847   0.017   0.995   4.698
 5869WAT      O17848   2.006   2.673   4.789
 5869WAT     H117849   2.082   2.631   4.838
 5869WAT     H217850   1.982   2.617   4.709
 5870WAT      O17851   1.690   7.541   1.534
 5870WAT     H117852   1.783   7.545   1.497
 5870WAT     H217853   1.653   7.449   1.521
 5871WAT      O17854   4.340   3.113   6.084
 5871WAT     H117855   4.256   3.128   6.033
 5871WAT     H217856   4.416   3.158   6.037
 5872WAT      O17857   6.085   6.907   2.304
 5872WAT     H117858   5.998   6.905   2.255
 5872WAT     H217859   6.154   6.953   2.247
 5873WAT      O17860   9.046   1.117   9.058
 5873WAT     H117861   9.131   1.151   9.099
 5873WAT     H217862   9.016   1.181   8.987
 5874WAT      O17863   3.374   7.350   1.740
 5874WAT     H117864   3.410   7.267   1.698
 5874WAT     H217865   3.311   7.325   1.813
 5875WAT      O17866   4.584   5.311   3.539
 5875WAT     H117867   4.509   5.339   3.598
 5875WAT     H217868   4.671   5.342   3.578
 5876WAT      O17869   6.622   8.725   7.572
 5876WAT     H117870   6.534   8.739   7.527
 5876WAT     H217871   6.608   8.706   7.669
 5877WAT      O17872   0.456   6.311   5.512
 5877WAT     H117873   0.444   6.404   5.546
 5877WAT     H217874   0.367   6.265   5.508
 5878WAT      O17875   1.052   5.368   3.443
 5878WAT     H117876   1.133   5.375   3.501
 5878WAT     H217877   1.056   5.282   3.391
 5879WAT      O17878   7.215   4.055   9.352
 5879WAT     H117879   7.141   4.040   9.287
 5879WAT     H217880   7.224   3.975   9.412
 5880WAT      O17881   4.764   3.875   5.238
 5880WAT     H117882   4.794   3.909   5.149
 5880WAT     H217883   4.736   3.953   5.295
 5881WAT      O17884   2.206   5.750   9.293
 5881WAT     H117885   2.130   5.772   9.354
 5881WAT     H217886   2.293   5.765   9.340
 5882WAT      O17887   1.768   7.861   4.460
 5882WAT     H117888   1.775   7.828   4.366
 5882WAT     H217889   1.825   7.943   4.471
 5883WAT      O17890   2.664   8.041   2.584
 5883WAT     H117891   2.732   7.986   2.633
 5883WAT     H217892   2.668   8.021   2.487
 5884WAT      O17893   7.936   4.030   3.030
 5884WAT     H117894   7.999   4.055   3.103
 5884WAT     H217895   7.870   3.963   3.065
 5885WAT      O17896   7.893   0.949   5.080
 5885WAT     H117897   7.991   0.955   5.100
 5885WAT     H217898   7.856   0.864   5.119
 5886WAT      O17899   1.436   7.046   1.690
 5886WAT     H117900   1.472   7.056   1.597
 5886WAT     H217901   1.476   7.117   1.748
 5887WAT      O17902   5.057   8.517   0.428
 5887WAT     H117903   5.095   8.609   0.423
 5887WAT     H217904   5.075   8.479   0.519
 5888WAT      O17905   5.367   8.061   1.409
 5888WAT     H117906   5.299   8.065   1.482
 5888WAT     H217907   5.406   8.152   1.395
 5889WAT      O17908   7.292   2.138   2.289
 5889WAT     H117909   7.289   2.205   2.215
 5889WAT     H217910   7.383   2.097   2.294
 5890WAT      O17911   2.595   1.358   1.638
 5890WAT     H117912   2.677   1.300   1.643
 5890WAT     H217913   2.607   1.425   1.565
 5891WAT      O17914   8.333   2.460   6.158
 5891WAT     H117915   8.360   2.405   6.079
 5891WAT     H217916   8.268   2.530   6.130
 5892WAT      O17917   2.804   0.757   9.386
 5892WAT     H117918   2.708   0.775   9.408
 5892WAT     H217919   2.851   0.726   9.469
 5893WAT      O17920   2.788   8.038   7.854
 5893WAT     H117921   2.886   8.019   7.851
 5893WAT     H217922   2.740   7.979   7.789
 5894WAT      O17923   3.765   3.336   5.236
 5894WAT     H117924   3.842   3.381   5.193
 5894WAT     H217925   3.735   3.258   5.180
 5895WAT      O17926   6.510   7.719   7.826
 5895WAT     H117927   6.413   7.744   7.825
 5895WAT     H217928   6.532   7.679   7.915
 5896WAT      O17929   9.702   1.692   2.059
 5896WAT     H117930   9.718   1.786   2.089
 5896WAT     H217931   9.652   1.642   2.130
 5897WAT      O17932   4.851   0.503   0.219
 5897WAT     H117933   4.776   0.438   0.236
 5897WAT     H217934   4.883   0.494   0.125
 5898WAT      O17935   4.345   6.836   5.541
 5898WAT     H117936   4.388   6.859   5.628
 5898WAT     H217937   4.303   6.918   5.502
 5899WAT      O17938   6.314   4.626   6.410
 5899WAT     H117939   6.275   4.659   6.496
 5899WAT     H217940   6.328   4.527   6.415
 5900WAT      O17941   5.151   4.288   4.323
 5900WAT     H117942   5.140   4.224   4.400
 5900WAT     H217943   5.246   4.317   4.318
 5901WAT      O17944   5.574   9.428   6.436
 5901WAT     H117945   5.530   9.499   6.491
 5901WAT     H217946   5.624   9.472   6.361
 5902WAT      O17947   7.593   7.598   1.343
 5902WAT     H117948   7.691   7.612   1.357
 5902WAT     H217949   7.579   7.521   1.281
 5903WAT      O17950   3.788   8.252   1.547
 5903WAT     H117951   3.814   8.261   1.643
 5903WAT     H217952   3.859   8.292   1.489
 5904WAT      O17953   7.494   5.144   8.176
 5904WAT     H117954   7.409   5.105   8.213
 5904WAT     H217955   7.551   5.070   8.140
 5905WAT      O17956   1.630   1.974   2.240
 5905WAT     H117957   1.553   1.994   2.301
 5905WAT     H217958   1.599   1.977   2.145
 5906WAT      O17959   5.081   9.382   0.334
 5906WAT     H117960   5.117   9.308   0.277
 5906WAT     H217961   5.052   9.458   0.275
 5907WAT      O17962   5.204   3.573   9.681
 5907WAT     H117963   5.277   3.632   9.645
 5907WAT     H217964   5.202   3.487   9.630
 5908WAT      O17965   7.541   7.741   3.254
 5908WAT     H117966   7.491   7.760   3.170
 5908WAT     H217967   7.569   7.827   3.296
 5909WAT      O17968   7.821   3.927   5.439
 5909WAT     H117969   7.809   3.829   5.449
 5909WAT     H217970   7.739   3.968   5.400
 5910WAT      O17971   0.664   0.364   5.484
 5910WAT     H117972   0.645   0.413   5.399
 5910WAT     H217973   0.578   0.346   5.532
 5911WAT      O17974   0.363   6.355   0.491
 5911WAT     H117975   0.309   6.279   0.527
 5911WAT     H217976   0.408   6.327   0.406
 5912WAT      O17977   8.780   6.780   0.560
 5912WAT     H117978   8.729   6.754   0.642
 5912WAT     H217979   8.843   6.707   0.534
 5913WAT      O17980   4.001   3.911   3.065
 5913WAT     H117981   4.045   3.901   3.154
 5913WAT     H217982   3.934   3.985   3.070
 5914WAT      O17983   4.621   2.782   5.826
 5914WAT     H117984   4.597   2.860   5.769
 5914WAT     H217985   4.544   2.762   5.887
 5915WAT      O17986   8.154   3.568   1.644
 5915WAT     H117987   8.213   3.642   1.611
 5915WAT     H217988   8.059   3.599   1.645
 5916WAT      O17989   5.148   0.418   7.644
 5916WAT     H117990   5.110   0.457   7.728
 5916WAT     H217991   5.095   0.338   7.618
 5917WAT      O17992   4.557   7.863   1.573
 5917WAT     H117993   4.507   7.776   1.578
 5917WAT     H217994   4.495   7.935   1.541
 5918WAT      O17995   6.776   9.742   9.267
 5918WAT     H117996   6.781   9.711   9.362
 5918WAT     H217997   6.703   9.692   9.220
 5919WAT      O17998   7.050   1.542   2.058
 5919WAT     H117999   7.040   1.580   1.966
 5919WAT     H218000   6.975   1.478   2.076
 5920WAT      O18001   0.442   0.477   9.287
 5920WAT     H118002   0.448   0.533   9.369
 5920WAT     H218003   0.502   0.397   9.297
 5921WAT      O18004   9.203   6.942   4.750
 5921WAT     H118005   9.294   6.982   4.743
 5921WAT     H218006   9.190   6.903   4.841
 5922WAT      O18007   9.676   0.314   9.580
 5922WAT     H118008   9.723   0.242   9.530
 5922WAT     H218009   9.643   0.383   9.516
 5923WAT      O18010   0.952   1.755   8.486
 5923WAT     H118011   0.975   1.829   8.423
 5923WAT     H218012   0.860   1.770   8.523
 5924WAT      O18013   1.392   2.800   8.596
 5924WAT     H118014   1.459   2.796   8.521
 5924WAT     H218015   1.326   2.727   8.585
 5925WAT      O18016   8.745   9.400   4.593
 5925WAT     H118017   8.680   9.462   4.636
 5925WAT     H218018   8.838   9.425   4.621
 5926WAT      O18019   2.758   4.250   2.788
 5926WAT     H118020   2.775   4.221   2.694
 5926WAT     H218021   2.730   4.171   2.842
 5927WAT      O18022   2.363   3.855   1.287
 5927WAT     H118023   2.452   3.899   1.271
 5927WAT     H218024   2.326   3.886   1.374
 5928WAT      O18025   3.383   4.493   1.814
 5928WAT     H118026   3.461   4.434   1.794
 5928WAT     H218027   3.305   4.466   1.758
 5929WAT      O18028   0.900   7.144   2.435
 5929WAT     H118029   0.807   7.181   2.429
 5929WAT     H218030   0.923   7.099   2.349
 5930WAT      O18031   3.159   1.268   3.267
 5930WAT     H118032   3.089   1.322   3.314
 5930WAT     H218033   3.136   1.260   3.170
 5931WAT      O18034   9.008   6.262   9.200
 5931WAT     H118035   8.914   6.230   9.209
 5931WAT     H218036   9.017   6.353   9.239
 5932WAT      O18037   4.756   7.120   8.806
 5932WAT     H118038   4.809   7.083   8.882
 5932WAT     H218039   4.679   7.059   8.786
 5933WAT      O18040   3.950   4.009   7.774
 5933WAT     H118041   4.034   3.955   7.764
 5933WAT     H218042   3.973   4.097   7.816
 5934WAT      O18043   9.036   2.985   5.898
 5934WAT     H118044   8.984   2.909   5.859
 5934WAT     H218045   8.980   3.031   5.967
 5935WAT      O18046   8.733   7.044   0.644
 5935WAT     H118047   8.819   7.073   0.687
 5935WAT     H218048   8.744   6.953   0.604
 5936WAT      O18049   6.074   1.249   0.734
 5936WAT     H118050   6.019   1.307   0.793
 5936WAT     H218051   6.163   1.233   0.778
 5937WAT      O18052   0.353   4.027   4.352
 5937WAT     H118053   0.309   3.939   4.338
 5937WAT     H218054   0.452   4.018   4.340
 5938WAT      O18055   2.345   9.653   4.304
 5938WAT     H118056   2.251   9.683   4.295
 5938WAT     H218057   2.404   9.731   4.324
 5939WAT      O18058   9.865   9.390   8.779
 5939WAT     H118059   9.897   9.313   8.723
 5939WAT     H218060   9.943   9.442   8.812
 5940WAT      O18061   3.714   0.494   1.887
 5940WAT     H118062   3.690   0.452   1.975
 5940WAT     H218063   3.809   0.472   1.865
 5941WAT      O18064   0.535   3.498   2.706
 5941WAT     H118065   0.517   3.533   2.798
 5941WAT     H218066   0.562   3.574   2.647
 5942WAT      O18067   3.101   2.538   8.142
 5942WAT     H118068   3.075   2.624   8.098
 5942WAT     H218069   3.168   2.557   8.213
 5943WAT      O18070   8.803   0.356   1.006
 5943WAT     H118071   8.857   0.436   1.030
 5943WAT     H218072   8.717   0.356   1.057
 5944WAT      O18073   2.040   8.335   9.768
 5944WAT     H118074   2.117   8.379   9.723
 5944WAT     H218075   2.005   8.261   9.712
 5945WAT      O18076   0.933   0.648   2.312
 5945WAT     H118077   0.971   0.632   2.220
 5945WAT     H218078   0.886   0.566   2.343
 5946WAT      O18079   0.338   3.534   6.168
 5946WAT     H118080   0.397   3.459   6.197
 5946WAT     H218081   0.265   3.499   6.109
 5947WAT      O18082   0.064   4.825   0.113
 5947WAT     H118083   0.079   4.924   0.105
 5947WAT     H218084   0.147   4.782   0.148
 5948WAT      O18085   0.183   9.092   1.389
 5948WAT     H118086   0.170   9.020   1.457
 5948WAT     H218087   0.108   9.157   1.395
 5949WAT      O18088   9.278   7.716   8.129
 5949WAT     H118089   9.284   7.794   8.191
 5949WAT     H218090   9.222   7.644   8.171
 5950WAT      O18091   4.453   3.670   7.434
 5950WAT     H118092   4.469   3.758   7.390
 5950WAT     H218093   4.357   3.663   7.461
 5951WAT      O18094   3.899   7.381   4.035
 5951WAT     H118095   3.890   7.428   3.948
 5951WAT     H218096   3.984   7.328   4.036
 5952WAT      O18097   2.333   5.680   1.217
 5952WAT     H118098   2.381   5.630   1.289
 5952WAT     H218099   2.398   5.734   1.164
 5953WAT      O18100   0.386   7.818   5.301
 5953WAT     H118101   0.313   7.763   5.342
 5953WAT     H218102   0.454   7.841   5.372
 5954WAT      O18103   0.165   1.545   5.533
 5954WAT     H118104   0.232   1.498   5.590
 5954WAT     H218105   0.078   1.550   5.582
 5955WAT      O18106   5.403   9.460   0.736
 5955WAT     H118107   5.502   9.459   0.727
 5955WAT     H218108   5.378   9.491   0.827
 5956WAT      O18109   0.982   9.357   5.281
 5956WAT     H118110   1.029   9.422   5.341
 5956WAT     H218111   0.930   9.292   5.336
 5957WAT      O18112   4.057   1.546   0.682
 5957WAT     H118113   4.146   1.505   0.658
 5957WAT     H218114   3.985   1.502   0.629
 5958WAT      O18115   5.798   0.339   6.793
 5958WAT     H118116   5.728   0.333   6.864
 5958WAT     H218117   5.758   0.314   6.705
 5959WAT      O18118   7.554   3.800   1.738
 5959WAT     H118119   7.638   3.762   1.777
 5959WAT     H218120   7.492   3.826   1.811
 5960WAT      O18121   1.501   0.104   8.686
 5960WAT     H118122   1.434   0.038   8.651
 5960WAT     H218123   1.577   0.055   8.730
 5961WAT      O18124   5.625   4.379   1.039
 5961WAT     H118125   5.623   4.364   0.940
 5961WAT     H218126   5.550   4.328   1.082
 5962WAT      O18127   7.509   8.274   0.540
 5962WAT     H118128   7.549   8.183   0.525
 5962WAT     H218129   7.446   8.270   0.617
 5963WAT      O18130   9.745   1.626   0.307
 5963WAT     H118131   9.744   1.615   0.407
 5963WAT     H218132   9.802   1.554   0.267
 5964WAT      O18133   5.825   1.177   6.969
 5964WAT     H118134   5.753   1.108   6.964
 5964WAT     H218135   5.806   1.251   6.905
 5965WAT      O18136   5.709   7.900   8.891
 5965WAT     H118137   5.783   7.834   8.903
 5965WAT     H218138   5.709   7.934   8.797
 5966WAT      O18139   0.637   4.159   6.701
 5966WAT     H118140   0.645   4.094   6.777
 5966WAT     H218141   0.544   4.154   6.664
 5967WAT      O18142   2.037   2.320   1.738
 5967WAT     H118143   1.945   2.316   1.776
 5967WAT     H218144   2.091   2.388   1.787
 5968WAT      O18145   9.468   3.792   1.567
 5968WAT     H118146   9.391   3.850   1.595
 5968WAT     H218147   9.479   3.797   1.468
 5969WAT      O18148   6.702   7.667   3.461
 5969WAT     H118149   6.787   7.614   3.454
 5969WAT     H218150   6.679   7.705   3.371
 5970WAT      O18151   1.099   4.118   8.204
 5970WAT     H118152   1.071   4.147   8.113
 5970WAT     H218153   1.167   4.045   8.197
 5971WAT      O18154   7.492   8.674   7.874
 5971WAT     H118155   7.401   8.688   7.914
 5971WAT     H218156   7.561   8.682   7.946
 5972WAT      O18157   6.772   1.617   0.154
 5972WAT     H118158   6.691   1.559   0.160
 5972WAT     H218159   6.827   1.589   0.075
 5973WAT      O18160   9.338   7.381   1.211
 5973WAT     H118161   9.427   7.423   1.226
 5973WAT     H218162   9.295   7.420   1.130
 5974WAT      O18163   6.446   8.184   9.514
 5974WAT     H118164   6.455   8.281   9.490
 5974WAT     H218165   6.349   8.162   9.527
 5975WAT      O18166   9.140   9.399   0.728
 5975WAT     H118167   9.073   9.469   0.701
 5975WAT     H218168   9.213   9.395   0.660
 5976WAT      O18169   8.838   7.306   1.183
 5976WAT     H118170   8.756   7.347   1.223
 5976WAT     H218171   8.854   7.216   1.224
 5977WAT      O18172   4.217   2.542   6.327
 5977WAT     H118173   4.291   2.607   6.309
 5977WAT     H218174   4.155   2.540   6.248
 5978WAT      O18175   4.596   5.683   1.755
 5978WAT     H118176   4.537   5.660   1.832
 5978WAT     H218177   4.614   5.601   1.701
 5979WAT      O18178   3.415   9.113   2.166
 5979WAT     H118179   3.373   9.135   2.255
 5979WAT     H218180   3.489   9.179   2.148
 5980WAT      O18181   8.939   3.477   3.421
 5980WAT     H118182   8.993   3.475   3.505
 5980WAT     H218183   8.996   3.451   3.344
 5981WAT      O18184   9.625   4.340   0.216
 5981WAT     H118185   9.666   4.252   0.193
 5981WAT     H218186   9.573   4.373   0.137
 5982WAT      O18187   9.423   4.306   3.165
 5982WAT     H118188   9.439   4.250   3.083
 5982WAT     H218189   9.510   4.323   3.210
 5983WAT      O18190   3.600   0.927   0.282
 5983WAT     H118191   3.552   0.998   0.332
 5983WAT     H218192   3.543   0.845   0.275
 5984WAT      O18193   5.380   8.080   4.018
 5984WAT     H118194   5.307   8.036   4.070
 5984WAT     H218195   5.424   8.150   4.075
 5985WAT      O18196   7.110   7.451   3.219
 5985WAT     H118197   7.127   7.419   3.126
 5985WAT     H218198   7.141   7.545   3.229
 5986WAT      O18199   6.121   8.944   0.014
 5986WAT     H118200   6.033   8.991   0.008
 5986WAT     H218201   6.155   8.949   0.108
 5987WAT      O18202   0.921   1.653   3.313
 5987WAT     H118203   0.905   1.741   3.269
 5987WAT     H218204   0.834   1.603   3.320
 5988WAT      O18205   6.173   6.924   9.801
 5988WAT     H118206   6.110   6.861   9.756
 5988WAT     H218207   6.147   6.934   9.897
 5989WAT      O18208   3.369   5.544   3.758
 5989WAT     H118209   3.336   5.484   3.685
 5989WAT     H218210   3.291   5.592   3.799
 5990WAT      O18211   7.709   8.558   8.800
 5990WAT     H118212   7.801   8.550   8.837
 5990WAT     H218213   7.679   8.653   8.804
 5991WAT      O18214   3.801   9.765   6.740
 5991WAT     H118215   3.892   9.764   6.782
 5991WAT     H218216   3.735   9.801   6.806
 5992WAT      O18217   2.384   0.082   7.744
 5992WAT     H118218   2.400   0.162   7.801
 5992WAT     H218219   2.398  -0.001   7.799
 5993WAT      O18220   3.456   4.060   2.698
 5993WAT     H118221   3.424   4.117   2.774
 5993WAT     H218222   3.531   4.001   2.729
 5994WAT      O18223   0.575   0.633   3.535
 5994WAT     H118224   0.575   0.533   3.532
 5994WAT     H218225   0.485   0.665   3.564
 5995WAT      O18226   7.304   9.278   6.097
 5995WAT     H118227   7.354   9.347   6.149
 5995WAT     H218228   7.219   9.318   6.063
 5996WAT      O18229   5.787   5.778   6.771
 5996WAT     H118230   5.688   5.791   6.772
 5996WAT     H218231   5.809   5.690   6.729
 5997WAT      O18232   1.139   8.357   7.420
 5997WAT     H118233   1.111   8.451   7.403
 5997WAT     H218234   1.216   8.357   7.484
 5998WAT      O18235   5.505   0.616   5.553
 5998WAT     H118236   5.455   0.606   5.639
 5998WAT     H218237   5.603   0.625   5.573
 5999WAT      O18238   8.633   3.805   2.609
 5999WAT     H118239   8.648   3.709   2.586
 5999WAT     H218240   8.570   3.846   2.542
 6000WAT      O18241   3.871   6.213   6.867
 6000WAT     H118242   3.949   6.276   6.860
 6000WAT     H218243   3.905   6.121   6.889
 6001WAT      O18244   3.100   0.692   6.582
 6001WAT     H118245   3.177   0.679   6.520
 6001WAT     H218246   3.073   0.789   6.583
 6002WAT      O18247   9.376   7.222   0.473
 6002WAT     H118248   9.325   7.174   0.544
 6002WAT     H218249   9.394   7.161   0.397
 6003WAT      O18250   7.776   9.108   3.252
 6003WAT     H118251   7.864   9.089   3.296
 6003WAT     H218252   7.782   9.083   3.155
 6004WAT      O18253   9.226   1.868   4.788
 6004WAT     H118254   9.191   1.955   4.754
 6004WAT     H218255   9.149   1.807   4.808
 6005WAT      O18256   1.894   0.735   3.389
 6005WAT     H118257   1.818   0.799   3.402
 6005WAT     H218258   1.970   0.762   3.448
 6006WAT      O18259   1.898   5.935   9.261
 6006WAT     H118260   1.928   6.006   9.197
 6006WAT     H218261   1.875   5.852   9.211
 6007WAT      O18262   0.755   1.511   4.216
 6007WAT     H118263   0.738   1.496   4.313
 6007WAT     H218264   0.842   1.471   4.190
 6008WAT      O18265   4.959   0.436   5.254
 6008WAT     H118266   4.974   0.474   5.163
 6008WAT     H218267   4.955   0.510   5.321
 6009WAT      O18268   6.182   9.080   3.906
 6009WAT     H118269   6.160   9.029   3.989
 6009WAT     H218270   6.244   9.155   3.929
 6010WAT      O18271   7.267   2.445   6.967
 6010WAT     H118272   7.299   2.535   6.997
 6010WAT     H218273   7.344   2.391   6.934
 6011WAT      O18274   4.763   4.055   4.628
 6011WAT     H118275   4.701   4.119   4.674
 6011WAT     H218276   4.853   4.059   4.671
 6012WAT      O18277   6.947   6.009   3.993
 6012WAT     H118278   7.010   5.934   3.974
 6012WAT     H218279   6.853   5.977   3.981
 6013WAT      O18280   0.234   5.651   9.812
 6013WAT     H118281   0.261   5.558   9.837
 6013WAT     H218282   0.282   5.717   9.870
 6014WAT      O18283   0.660   2.233   1.692
 6014WAT     H118284   0.655   2.228   1.792
 6014WAT     H218285   0.752   2.208   1.662
 6015WAT      O18286   5.567   5.215   5.745
 6015WAT     H118287   5.656   5.236   5.786
 6015WAT     H218288   5.516   5.154   5.804
 6016WAT      O18289   5.316   2.696   3.305
 6016WAT     H118290   5.361   2.784   3.321
 6016WAT     H218291   5.234   2.711   3.249
 6017WAT      O18292   6.191   7.417   2.131
 6017WAT     H118293   6.110   7.475   2.140
 6017WAT     H218294   6.265   7.470   2.088
 6018WAT      O18295   9.308   3.412   4.807
 6018WAT     H118296   9.329   3.503   4.842
 6018WAT     H218297   9.338   3.343   4.872
 6019WAT      O18298   5.452   0.080   4.829
 6019WAT     H118299   5.368   0.079   4.882
 6019WAT     H218300   5.449   0.155   4.763
 6020WAT      O18301   7.845   9.098   2.343
 6020WAT     H118302   7.930   9.064   2.302
 6020WAT     H218303   7.779   9.120   2.271
 6021WAT      O18304   8.604   8.740   4.649
 6021WAT     H118305   8.570   8.833   4.633
 6021WAT     H218306   8.546   8.694   4.715
 6022WAT      O18307   7.141   9.506   7.250
 6022WAT     H118308   7.184   9.554   7.174
 6022WAT     H218309   7.078   9.437   7.215
 6023WAT      O18310   5.678   6.197   3.246
 6023WAT     H118311   5.698   6.155   3.157
 6023WAT     H218312   5.603   6.262   3.236
 6024WAT      O18313   3.269   2.266   4.367
 6024WAT     H118314   3.174   2.237   4.364
 6024WAT     H218315   3.311   2.254   4.277
 6025WAT      O18316   6.713   4.189   9.874
 6025WAT     H118317   6.675   4.103   9.839
 6025WAT     H218318   6.673   4.209   9.963
 6026WAT      O18319   0.280   6.596   4.035
 6026WAT     H118320   0.287   6.555   4.126
 6026WAT     H218321   0.323   6.537   3.968
 6027WAT      O18322   7.403   0.381   1.834
 6027WAT     H118323   7.403   0.287   1.799
 6027WAT     H218324   7.341   0.388   1.912
 6028WAT      O18325   0.753   1.427   1.828
 6028WAT     H118326   0.817   1.478   1.771
 6028WAT     H218327   0.775   1.329   1.825
 6029WAT      O18328   8.760   8.447   3.038
 6029WAT     H118329   8.670   8.403   3.026
 6029WAT     H218330   8.750   8.527   3.096
 6030WAT      O18331   1.368   2.037   0.493
 6030WAT     H118332   1.336   2.128   0.466
 6030WAT     H218333   1.468   2.037   0.502
 6031WAT      O18334   7.807   9.789   3.949
 6031WAT     H118335   7.799   9.888   3.953
 6031WAT     H218336   7.722   9.750   3.914
 6032WAT      O18337   3.959   2.343   6.385
 6032WAT     H118338   4.018   2.319   6.308
 6032WAT     H218339   4.010   2.401   6.448
 6033WAT      O18340   9.524   1.907   8.284
 6033WAT     H118341   9.607   1.856   8.262
 6033WAT     H218342   9.444   1.852   8.260
 6034WAT      O18343   0.013   5.800   9.481
 6034WAT     H118344   0.084   5.868   9.499
 6034WAT     H218345   0.048   5.709   9.503
 6035WAT      O18346   6.523   0.208   4.953
 6035WAT     H118347   6.449   0.275   4.954
 6035WAT     H218348   6.501   0.134   4.891
 6036WAT      O18349   2.784   8.468   1.324
 6036WAT     H118350   2.758   8.523   1.403
 6036WAT     H218351   2.844   8.521   1.265
 6037WAT      O18352   0.971   4.030   1.676
 6037WAT     H118353   1.042   3.961   1.692
 6037WAT     H218354   0.928   4.014   1.587
 6038WAT      O18355   4.799   1.064   2.578
 6038WAT     H118356   4.722   1.003   2.593
 6038WAT     H218357   4.837   1.049   2.487
 6039WAT      O18358   3.755   9.707   2.601
 6039WAT     H118359   3.845   9.732   2.564
 6039WAT     H218360   3.687   9.774   2.573
 6040WAT      O18361   1.717   3.048   8.020
 6040WAT     H118362   1.670   3.086   8.099
 6040WAT     H218363   1.695   3.102   7.939
 6041WAT      O18364   3.044   1.552   2.977
 6041WAT     H118365   2.951   1.521   2.955
 6041WAT     H218366   3.104   1.473   2.984
 6042WAT      O18367   1.650   2.671   9.008
 6042WAT     H118368   1.610   2.629   9.089
 6042WAT     H218369   1.679   2.764   9.029
 6043WAT      O18370   9.072   0.078   4.909
 6043WAT     H118371   9.002   0.036   4.851
 6043WAT     H218372   9.097   0.167   4.870
 6044WAT      O18373   0.352   4.790   6.523
 6044WAT     H118374   0.388   4.714   6.576
 6044WAT     H218375   0.385   4.877   6.560
 6045WAT      O18376   2.274   3.464   4.791
 6045WAT     H118377   2.270   3.379   4.739
 6045WAT     H218378   2.363   3.472   4.835
 6046WAT      O18379   6.970   5.320   0.852
 6046WAT     H118380   6.958   5.276   0.763
 6046WAT     H218381   6.917   5.405   0.855
 6047WAT      O18382   4.504   2.831   8.612
 6047WAT     H118383   4.590   2.799   8.571
 6047WAT     H218384   4.473   2.765   8.679
 6048WAT      O18385   7.477   4.947   2.926
 6048WAT     H118386   7.427   4.901   3.000
 6048WAT     H218387   7.540   4.882   2.883
 6049WAT      O18388   4.644   6.799   2.530
 6049WAT     H118389   4.644   6.869   2.601
 6049WAT     H218390   4.607   6.838   2.445
 6050WAT      O18391   1.657   7.607   0.426
 6050WAT     H118392   1.590   7.681   0.426
 6050WAT     H218393   1.659   7.563   0.336
 6051WAT      O18394   5.553   7.323   8.943
 6051WAT     H118395   5.520   7.357   8.855
 6051WAT     H218396   5.488   7.255   8.978
 6052WAT      O18397   6.554   7.830   2.914
 6052WAT     H118398   6.597   7.740   2.919
 6052WAT     H218399   6.579   7.884   2.994
 6053WAT      O18400   2.411   9.009   5.683
 6053WAT     H118401   2.403   9.104   5.651
 6053WAT     H218402   2.346   8.951   5.634
 6054WAT      O18403   0.819   2.402   8.397
 6054WAT     H118404   0.855   2.474   8.338
 6054WAT     H218405   0.746   2.354   8.350
 6055WAT      O18406   2.027   5.053   9.432
 6055WAT     H118407   1.984   5.141   9.455
 6055WAT     H218408   2.115   5.070   9.387
 6056WAT      O18409   7.755   0.742   6.491
 6056WAT     H118410   7.662   0.740   6.529
 6056WAT     H218411   7.750   0.734   6.392
 6057WAT      O18412   4.037   0.024   3.226
 6057WAT     H118413   4.011   0.060   3.136
 6057WAT     H218414   3.960   0.035   3.289
 6058WAT      O18415   6.554   2.546   0.773
 6058WAT     H118416   6.594   2.491   0.700
 6058WAT     H218417   6.546   2.641   0.743
 6059WAT      O18418   9.107   9.563   1.262
 6059WAT     H118419   9.089   9.661   1.269
 6059WAT     H218420   9.192   9.549   1.210
 6060WAT      O18421   0.845   0.041   8.523
 6060WAT     H118422   0.910   0.112   8.497
 6060WAT     H218423   0.853  -0.036   8.459
 6061WAT      O18424   4.138   3.730   9.490
 6061WAT     H118425   4.133   3.811   9.432
 6061WAT     H218426   4.229   3.689   9.484
 6062WAT      O18427   6.987   2.817   6.456
 6062WAT     H118428   7.051   2.849   6.526
 6062WAT     H218429   7.033   2.817   6.367
 6063WAT      O18430   1.882   8.275   5.627
 6063WAT     H118431   1.842   8.197   5.676
 6063WAT     H218432   1.950   8.241   5.562
 6064WAT      O18433   0.889   1.183   0.914
 6064WAT     H118434   0.915   1.253   0.846
 6064WAT     H218435   0.878   1.227   1.003
 6065WAT      O18436   6.834   4.658   9.825
 6065WAT     H118437   6.748   4.696   9.790
 6065WAT     H218438   6.894   4.733   9.853
 6066WAT      O18439   6.906   6.477   9.074
 6066WAT     H118440   6.899   6.514   8.981
 6066WAT     H218441   6.874   6.382   9.074
 6067WAT      O18442   5.674   0.846   0.705
 6067WAT     H118443   5.667   0.772   0.772
 6067WAT     H218444   5.765   0.887   0.711
 6068WAT      O18445   3.200   5.070   9.385
 6068WAT     H118446   3.244   5.019   9.459
 6068WAT     H218447   3.125   5.016   9.348
 6069WAT      O18448   9.795   9.756   4.945
 6069WAT     H118449   9.854   9.793   4.872
 6069WAT     H218450   9.778   9.659   4.927
 6070WAT      O18451   9.257   7.729   1.745
 6070WAT     H118452   9.184   7.776   1.795
 6070WAT     H218453   9.344   7.775   1.761
 6071WAT      O18454   9.531   0.674   2.231
 6071WAT     H118455   9.548   0.583   2.268
 6071WAT     H218456   9.433   0.688   2.219
 6072WAT      O18457   8.630   7.905   8.099
 6072WAT     H118458   8.542   7.951   8.103
 6072WAT     H218459   8.635   7.848   8.017
 6073WAT      O18460   9.817   2.139   7.391
 6073WAT     H118461   9.791   2.235   7.402
 6073WAT     H218462   9.817   2.094   7.480
 6074WAT      O18463   0.280   3.678   9.210
 6074WAT     H118464   0.337   3.685   9.128
 6074WAT     H218465   0.302   3.593   9.259
 6075WAT      O18466   2.017   3.051   5.791
 6075WAT     H118467   2.034   3.150   5.796
 6075WAT     H218468   1.935   3.035   5.735
 6076WAT      O18469   9.102   9.544   8.476
 6076WAT     H118470   9.098   9.611   8.402
 6076WAT     H218471   9.057   9.459   8.447
 6077WAT      O18472   7.884   7.520   4.045
 6077WAT     H118473   7.938   7.571   4.112
 6077WAT     H218474   7.821   7.458   4.092
 6078WAT      O18475   1.773   4.175   7.970
 6078WAT     H118476   1.709   4.112   7.926
 6078WAT     H218477   1.762   4.266   7.932
 6079WAT      O18478   7.694   4.447   4.975
 6079WAT     H118479   7.748   4.389   5.036
 6079WAT     H218480   7.749   4.471   4.895
 6080WAT      O18481   9.132   8.010   9.284
 6080WAT     H118482   9.133   7.935   9.350
 6080WAT     H218483   9.170   8.093   9.326
 6081WAT      O18484   2.308   0.449   4.424
 6081WAT     H118485   2.314   0.380   4.353
 6081WAT     H218486   2.290   0.539   4.383
 6082WAT      O18487   7.663   2.546   8.471
 6082WAT     H118488   7.698   2.476   8.533
 6082WAT     H218489   7.666   2.512   8.377
 6083WAT      O18490   4.801   8.530   0.702
 6083WAT     H118491   4.897   8.507   0.688
 6083WAT     H218492   4.786   8.554   0.797
 6084WAT      O18493   2.148   6.488   3.640
 6084WAT     H118494   2.062   6.506   3.593
 6084WAT     H218495   2.218   6.551   3.606
 6085WAT      O18496   8.114   5.467   3.427
 6085WAT     H118497   8.213   5.450   3.430
 6085WAT     H218498   8.065   5.381   3.438
 6086WAT      O18499   6.124   0.133   3.821
 6086WAT     H118500   6.044   0.189   3.840
 6086WAT     H218501   6.100   0.036   3.830
 6087WAT      O18502   0.854   4.846   6.651
 6087WAT     H118503   0.784   4.865   6.582
 6087WAT     H218504   0.937   4.896   6.629
 6088WAT      O18505   7.285   5.425   2.646
 6088WAT     H118506   7.323   5.451   2.735
 6088WAT     H218507   7.185   5.422   2.653
 6089WAT      O18508   9.401   3.161   2.373
 6089WAT     H118509   9.345   3.156   2.455
 6089WAT     H218510   9.349   3.124   2.295
 6090WAT      O18511   1.116   0.328   9.811
 6090WAT     H118512   1.041   0.372   9.860
 6090WAT     H218513   1.203   0.368   9.840
 6091WAT      O18514   0.364   1.172   0.601
 6091WAT     H118515   0.310   1.091   0.625
 6091WAT     H218516   0.302   1.245   0.570
 6092WAT      O18517   9.137   2.865   5.306
 6092WAT     H118518   9.166   2.828   5.395
 6092WAT     H218519   9.104   2.959   5.319
 6093WAT      O18520   4.268   3.630   6.698
 6093WAT     H118521   4.296   3.571   6.774
 6093WAT     H218522   4.257   3.575   6.615
 6094WAT      O18523   9.595   2.020   2.927
 6094WAT     H118524   9.647   2.083   2.984
 6094WAT     H218525   9.630   1.927   2.940
 6095WAT      O18526   6.012   8.324   7.345
 6095WAT     H118527   5.935   8.282   7.299
 6095WAT     H218528   6.082   8.254   7.363
 6096WAT      O18529   6.054   7.485   8.344
 6096WAT     H118530   6.124   7.458   8.410
 6096WAT     H218531   6.097   7.528   8.265
 6097WAT      O18532   8.888   6.442   3.713
 6097WAT     H118533   8.865   6.434   3.809
 6097WAT     H218534   8.949   6.520   3.699
 6098WAT      O18535   0.296   7.598   8.858
 6098WAT     H118536   0.342   7.682   8.886
 6098WAT     H218537   0.364   7.528   8.836
 6099WAT      O18538   8.376   7.636   8.025
 6099WAT     H118539   8.442   7.701   7.988
 6099WAT     H218540   8.405   7.607   8.116
 6100WAT      O18541   6.862   8.116   8.814
 6100WAT     H118542   6.893   8.084   8.724
 6100WAT     H218543   6.921   8.191   8.844
 6101WAT      O18544   2.007   3.497   1.938
 6101WAT     H118545   2.072   3.440   1.887
 6101WAT     H218546   2.007   3.470   2.034
 6102WAT      O18547   7.288   9.125   0.438
 6102WAT     H118548   7.369   9.123   0.379
 6102WAT     H218549   7.222   9.190   0.401
 6103WAT      O18550   8.809   1.159   1.840
 6103WAT     H118551   8.745   1.156   1.764
 6103WAT     H218552   8.865   1.076   1.841
 6104WAT      O18553   3.978   6.695   1.783
 6104WAT     H118554   3.911   6.728   1.849
 6104WAT     H218555   4.009   6.771   1.726
 6105WAT      O18556   4.294   2.491   1.436
 6105WAT     H118557   4.256   2.489   1.529
 6105WAT     H218558   4.393   2.473   1.441
 6106WAT      O18559   6.602   2.209   5.863
 6106WAT     H118560   6.652   2.163   5.790
 6106WAT     H218561   6.541   2.278   5.824
 6107WAT      O18562   4.735   4.268   4.035
 6107WAT     H118563   4.796   4.237   4.108
 6107WAT     H218564   4.783   4.265   3.948
 6108WAT      O18565   9.456   4.576   7.544
 6108WAT     H118566   9.402   4.521   7.608
 6108WAT     H218567   9.421   4.562   7.451
 6109WAT      O18568   3.750   2.004   3.236
 6109WAT     H118569   3.711   1.918   3.204
 6109WAT     H218570   3.834   2.024   3.185
 6110WAT      O18571   6.222   0.114   3.255
 6110WAT     H118572   6.231   0.096   3.353
 6110WAT     H218573   6.265   0.039   3.204
 6111WAT      O18574   5.352   0.091   2.732
 6111WAT     H118575   5.379   0.069   2.638
 6111WAT     H218576   5.434   0.113   2.786
 6112WAT      O18577   0.683   8.327   1.583
 6112WAT     H118578   0.744   8.402   1.557
 6112WAT     H218579   0.726   8.273   1.655
 6113WAT      O18580   7.803   0.698   7.292
 6113WAT     H118581   7.750   0.740   7.218
 6113WAT     H218582   7.869   0.765   7.327
 6114WAT      O18583   8.840   4.915   1.212
 6114WAT     H118584   8.811   4.934   1.306
 6114WAT     H218585   8.815   4.821   1.187
 6115WAT      O18586   2.264   2.843   1.530
 6115WAT     H118587   2.250   2.930   1.577
 6115WAT     H218588   2.223   2.847   1.439
 6116WAT      O18589   8.604   2.230   3.884
 6116WAT     H118590   8.529   2.296   3.873
 6116WAT     H218591   8.589   2.152   3.823
 6117WAT      O18592   2.773   9.709   8.574
 6117WAT     H118593   2.820   9.764   8.644
 6117WAT     H218594   2.796   9.745   8.484
 6118WAT      O18595   0.255   2.894   2.600
 6118WAT     H118596   0.209   2.980   2.621
 6118WAT     H218597   0.187   2.826   2.571
 6119WAT      O18598   1.386   0.722   4.075
 6119WAT     H118599   1.358   0.700   3.982
 6119WAT     H218600   1.406   0.820   4.081
 6120WAT      O18601   6.626   5.017   3.605
 6120WAT     H118602   6.565   5.022   3.525
 6120WAT     H218603   6.572   5.021   3.689
 6121WAT      O18604   5.948   8.755   8.713
 6121WAT     H118605   5.940   8.834   8.652
 6121WAT     H218606   6.012   8.690   8.675
 6122WAT      O18607   4.669   7.267   3.276
 6122WAT     H118608   4.712   7.245   3.364
 6122WAT     H218609   4.587   7.322   3.291
 6123WAT      O18610   1.663   5.187   6.016
 6123WAT     H118611   1.683   5.102   5.968
 6123WAT     H218612   1.594   5.171   6.086
 6124WAT      O18613   1.346   3.354   0.484
 6124WAT     H118614   1.363   3.453   0.485
 6124WAT     H218615   1.432   3.306   0.498
 6125WAT      O18616   8.620   3.540   5.224
 6125WAT     H118617   8.684   3.475   5.184
 6125WAT     H218618   8.526   3.507   5.210
 6126WAT      O18619   4.727   0.386   6.115
 6126WAT     H118620   4.752   0.467   6.062
 6126WAT     H218621   4.747   0.304   6.061
 6127WAT      O18622   9.196   9.543   3.631
 6127WAT     H118623   9.221   9.625   3.683
 6127WAT     H218624   9.255   9.467   3.659
 6128WAT      O18625   8.029   1.313   5.684
 6128WAT     H118626   7.999   1.250   5.756
 6128WAT     H218627   8.086   1.384   5.723
 6129WAT      O18628   3.930   0.951   0.081
 6129WAT     H118629   3.959   1.013   0.008
 6129WAT     H218630   3.855   0.894   0.048
 6130WAT      O18631   1.641   0.389   3.138
 6130WAT     H118632   1.645   0.483   3.172
 6130WAT     H218633   1.731   0.346   3.148
 6131WAT      O18634   3.516   5.105   4.000
 6131WAT     H118635   3.548   5.177   3.938
 6131WAT     H218636   3.586   5.035   4.008
 6132WAT      O18637   4.495   1.674   2.903
 6132WAT     H118638   4.397   1.670   2.924
 6132WAT     H218639   4.526   1.583   2.873
 6133WAT      O18640   6.983   5.567   5.190
 6133WAT     H118641   7.047   5.500   5.227
 6133WAT     H218642   7.032   5.652   5.171
 6134WAT      O18643   5.498   2.982   7.232
 6134WAT     H118644   5.445   2.992   7.316
 6134WAT     H218645   5.560   3.060   7.222
 6135WAT      O18646   7.540   2.336   7.597
 6135WAT     H118647   7.469   2.406   7.603
 6135WAT     H218648   7.627   2.378   7.571
 6136WAT      O18649   9.037   3.727   3.212
 6136WAT     H118650   9.027   3.820   3.248
 6136WAT     H218651   9.115   3.682   3.255
 6137WAT      O18652   0.208   4.366   0.543
 6137WAT     H118653   0.124   4.341   0.495
 6137WAT     H218654   0.213   4.316   0.630
 6138WAT      O18655   9.567   5.130   1.714
 6138WAT     H118656   9.562   5.034   1.743
 6138WAT     H218657   9.495   5.148   1.647
 6139WAT      O18658   5.899   2.823   6.299
 6139WAT     H118659   5.827   2.776   6.248
 6139WAT     H218660   5.903   2.919   6.271
 6140WAT      O18661   2.239   3.051   1.886
 6140WAT     H118662   2.321   2.995   1.898
 6140WAT     H218663   2.160   2.993   1.870
 6141WAT      O18664   5.286   2.710   4.109
 6141WAT     H118665   5.340   2.771   4.166
 6141WAT     H218666   5.235   2.647   4.168
 6142WAT      O18667   5.415   1.893   9.118
 6142WAT     H118668   5.493   1.955   9.126
 6142WAT     H218669   5.441   1.802   9.150
 6143WAT      O18670   9.683   7.612   4.814
 6143WAT     H118671   9.609   7.548   4.829
 6143WAT     H218672   9.665   7.697   4.864
 6144WAT      O18673   4.504   3.465   4.497
 6144WAT     H118674   4.415   3.510   4.487
 6144WAT     H218675   4.522   3.409   4.416
 6145WAT      O18676   8.516   2.641   8.509
 6145WAT     H118677   8.463   2.723   8.489
 6145WAT     H218678   8.610   2.666   8.534
 6146WAT      O18679   5.109   6.261   2.373
 6146WAT     H118680   5.057   6.316   2.439
 6146WAT     H218681   5.104   6.305   2.284
 6147WAT      O18682   6.297   1.640   7.779
 6147WAT     H118683   6.389   1.677   7.761
 6147WAT     H218684   6.249   1.700   7.842
 6148WAT      O18685   3.858   4.203   7.014
 6148WAT     H118686   3.787   4.133   7.017
 6148WAT     H218687   3.907   4.205   7.101
 6149WAT      O18688   3.529   8.472   2.966
 6149WAT     H118689   3.533   8.385   3.014
 6149WAT     H218690   3.621   8.513   2.963
 6150WAT      O18691   2.475   6.794   9.256
 6150WAT     H118692   2.541   6.854   9.300
 6150WAT     H218693   2.439   6.729   9.324
 6151WAT      O18694   6.722   2.004   0.949
 6151WAT     H118695   6.705   2.014   0.851
 6151WAT     H218696   6.717   1.907   0.974
 6152WAT      O18697   6.062   4.564   6.882
 6152WAT     H118698   6.000   4.500   6.927
 6152WAT     H218699   6.110   4.619   6.951
 6153WAT      O18700   3.025   9.542   2.461
 6153WAT     H118701   3.119   9.551   2.494
 6153WAT     H218702   2.976   9.628   2.477
 6154WAT      O18703   9.192   0.418   8.583
 6154WAT     H118704   9.159   0.511   8.599
 6154WAT     H218705   9.287   0.420   8.553
 6155WAT      O18706   1.829   0.187   8.080
 6155WAT     H118707   1.856   0.157   8.171
 6155WAT     H218708   1.888   0.262   8.050
 6156WAT      O18709   6.560   8.033   0.289
 6156WAT     H118710   6.600   7.964   0.229
 6156WAT     H218711   6.542   7.993   0.379
 6157WAT      O18712   0.679   2.516   1.334
 6157WAT     H118713   0.739   2.595   1.346
 6157WAT     H218714   0.706   2.465   1.252
 6158WAT      O18715   0.325   0.427   4.443
 6158WAT     H118716   0.310   0.397   4.538
 6158WAT     H218717   0.309   0.350   4.381
 6159WAT      O18718   3.378   2.354   1.075
 6159WAT     H118719   3.280   2.376   1.076
 6159WAT     H218720   3.391   2.260   1.108
 6160WAT      O18721   0.820   2.228   2.561
 6160WAT     H118722   0.892   2.232   2.492
 6160WAT     H218723   0.760   2.150   2.542
 6161WAT      O18724   5.498   2.681   9.712
 6161WAT     H118725   5.516   2.685   9.614
 6161WAT     H218726   5.532   2.764   9.756
 6162WAT      O18727   5.485   2.084   5.291
 6162WAT     H118728   5.435   2.170   5.285
 6162WAT     H218729   5.489   2.055   5.387
 6163WAT      O18730   3.016   0.113   7.409
 6163WAT     H118731   3.089   0.106   7.476
 6163WAT     H218732   2.958   0.032   7.414
 6164WAT      O18733   2.405   1.639   3.553
 6164WAT     H118734   2.418   1.648   3.454
 6164WAT     H218735   2.470   1.573   3.589
 6165WAT      O18736   7.475   0.444   3.915
 6165WAT     H118737   7.540   0.441   3.991
 6165WAT     H218738   7.415   0.522   3.927
 6166WAT      O18739   1.839   0.801   0.170
 6166WAT     H118740   1.790   0.844   0.094
 6166WAT     H218741   1.794   0.826   0.256
 6167WAT      O18742   5.500   5.749   5.927
 6167WAT     H118743   5.500   5.656   5.965
 6167WAT     H218744   5.557   5.808   5.985
 6168WAT      O18745   1.494   7.439   8.190
 6168WAT     H118746   1.590   7.422   8.166
 6168WAT     H218747   1.478   7.538   8.195
 6169WAT      O18748   1.934   4.514   5.462
 6169WAT     H118749   1.996   4.436   5.453
 6169WAT     H218750   1.987   4.597   5.480
 6170WAT      O18751   7.129   9.834   1.506
 6170WAT     H118752   7.101   9.928   1.524
 6170WAT     H218753   7.058   9.788   1.452
 6171WAT      O18754   4.973   9.420   1.738
 6171WAT     H118755   4.995   9.339   1.683
 6171WAT     H218756   5.018   9.500   1.699
 6172WAT      O18757   1.472   4.264   3.987
 6172WAT     H118758   1.459   4.174   4.029
 6172WAT     H218759   1.453   4.258   3.889
 6173WAT      O18760   6.704   6.576   5.705
 6173WAT     H118761   6.652   6.641   5.761
 6173WAT     H218762   6.667   6.484   5.719
 6174WAT      O18763   8.482   7.770   6.840
 6174WAT     H118764   8.507   7.856   6.884
 6174WAT     H218765   8.390   7.743   6.867
 6175WAT      O18766   8.895   8.439   8.701
 6175WAT     H118767   8.953   8.432   8.782
 6175WAT     H218768   8.816   8.497   8.721
 6176WAT      O18769   8.681   9.811   3.089
 6176WAT     H118770   8.772   9.770   3.081
 6176WAT     H218771   8.647   9.836   2.998
 6177WAT      O18772   6.228   7.787   3.223
 6177WAT     H118773   6.155   7.833   3.173
 6177WAT     H218774   6.209   7.689   3.227
 6178WAT      O18775   6.920   5.769   1.851
 6178WAT     H118776   6.871   5.691   1.811
 6178WAT     H218777   6.886   5.854   1.810
 6179WAT      O18778   2.933   6.158   8.361
 6179WAT     H118779   2.926   6.235   8.424
 6179WAT     H218780   3.018   6.166   8.309
 6180WAT      O18781   5.566   0.263   3.313
 6180WAT     H118782   5.586   0.295   3.405
 6180WAT     H218783   5.577   0.163   3.309
 6181WAT      O18784   4.118   7.527   1.352
 6181WAT     H118785   4.084   7.574   1.270
 6181WAT     H218786   4.181   7.454   1.324
 6182WAT      O18787   1.076   3.403   4.023
 6182WAT     H118788   1.151   3.433   4.083
 6182WAT     H218789   1.027   3.327   4.067
 6183WAT      O18790   3.750   5.720   3.031
 6183WAT     H118791   3.683   5.663   2.985
 6183WAT     H218792   3.704   5.793   3.081
 6184WAT      O18793   2.879   8.259   0.965
 6184WAT     H118794   2.788   8.301   0.964
 6184WAT     H218795   2.926   8.283   1.050
 6185WAT      O18796   6.052   2.211   3.964
 6185WAT     H118797   6.148   2.190   3.943
 6185WAT     H218798   6.048   2.288   4.027
 6186WAT      O18799   1.316   5.554   8.640
 6186WAT     H118800   1.291   5.468   8.595
 6186WAT     H218801   1.312   5.629   8.574
 6187WAT      O18802   7.082   9.469   3.119
 6187WAT     H118803   7.151   9.422   3.174
 6187WAT     H218804   7.108   9.564   3.106
 6188WAT      O18805   2.299   3.754   4.145
 6188WAT     H118806   2.357   3.710   4.076
 6188WAT     H218807   2.327   3.723   4.236
 6189WAT      O18808   4.426   4.286   1.773
 6189WAT     H118809   4.479   4.203   1.756
 6189WAT     H218810   4.484   4.353   1.819
 6190WAT      O18811   3.226   7.951   8.685
 6190WAT     H118812   3.323   7.936   8.707
 6190WAT     H218813   3.208   7.919   8.592
 6191WAT      O18814   1.704   6.419   8.561
 6191WAT     H118815   1.728   6.359   8.485
 6191WAT     H218816   1.714   6.370   8.647
 6192WAT      O18817   9.417   5.477   3.513
 6192WAT     H118818   9.401   5.576   3.508
 6192WAT     H218819   9.432   5.441   3.421
 6193WAT      O18820   1.992   7.244   5.436
 6193WAT     H118821   2.054   7.298   5.380
 6193WAT     H218822   1.897   7.271   5.417
 6194WAT      O18823   3.023   1.448   0.077
 6194WAT     H118824   2.927   1.421   0.078
 6194WAT     H218825   3.053   1.460  -0.017
 6195WAT      O18826   1.712   4.864   8.681
 6195WAT     H118827   1.715   4.849   8.779
 6195WAT     H218828   1.620   4.895   8.654
 6196WAT      O18829   7.858   0.380   5.102
 6196WAT     H118830   7.853   0.366   5.201
 6196WAT     H218831   7.765   0.392   5.066
 6197WAT      O18832   8.789   7.556   4.342
 6197WAT     H118833   8.812   7.557   4.440
 6197WAT     H218834   8.854   7.499   4.293
 6198WAT      O18835   1.341   9.420   6.207
 6198WAT     H118836   1.387   9.333   6.192
 6198WAT     H218837   1.359   9.452   6.300
 6199WAT      O18838   1.570   1.341   0.827
 6199WAT     H118839   1.584   1.437   0.853
 6199WAT     H218840   1.650   1.308   0.778
 6200WAT      O18841   4.358   8.299   5.634
 6200WAT     H118842   4.292   8.262   5.699
 6200WAT     H218843   4.360   8.399   5.642
 6201WAT      O18844   3.702   4.319   3.143
 6201WAT     H118845   3.639   4.308   3.220
 6201WAT     H218846   3.728   4.415   3.134
 6202WAT      O18847   9.415   7.567   6.617
 6202WAT     H118848   9.491   7.562   6.682
 6202WAT     H218849   9.437   7.512   6.536
 6203WAT      O18850   7.992   2.451   1.469
 6203WAT     H118851   8.083   2.492   1.456
 6203WAT     H218852   7.966   2.402   1.387
 6204WAT      O18853   6.623   8.053   0.737
 6204WAT     H118854   6.640   8.134   0.792
 6204WAT     H218855   6.589   7.979   0.796
 6205WAT      O18856   1.394   7.200   7.547
 6205WAT     H118857   1.335   7.146   7.487
 6205WAT     H218858   1.420   7.285   7.500
 6206WAT      O18859   0.106   0.210   2.042
 6206WAT     H118860   0.156   0.137   1.996
 6206WAT     H218861   0.158   0.240   2.122
 6207WAT      O18862   9.743   1.654   3.439
 6207WAT     H118863   9.666   1.614   3.389
 6207WAT     H218864   9.726   1.647   3.537
 6208WAT      O18865   1.207   4.464   9.105
 6208WAT     H118866   1.219   4.440   9.008
 6208WAT     H218867   1.222   4.563   9.116
 6209WAT      O18868   3.759   7.541   1.154
 6209WAT     H118869   3.841   7.598   1.146
 6209WAT     H218870   3.767   7.463   1.091
 6210WAT      O18871   1.170   5.329   6.787
 6210WAT     H118872   1.267   5.313   6.802
 6210WAT     H218873   1.116   5.257   6.830
 6211WAT      O18874   7.864   2.783   8.082
 6211WAT     H118875   7.768   2.757   8.085
 6211WAT     H218876   7.912   2.725   8.017
 6212WAT      O18877   2.844   7.752   0.517
 6212WAT     H118878   2.938   7.717   0.519
 6212WAT     H218879   2.815   7.776   0.610
 6213WAT      O18880   1.258   2.826   5.420
 6213WAT     H118881   1.172   2.859   5.381
 6213WAT     H218882   1.310   2.778   5.349
 6214WAT      O18883   6.886   8.461   6.682
 6214WAT     H118884   6.927   8.552   6.690
 6214WAT     H218885   6.895   8.412   6.768
 6215WAT      O18886   7.139   0.821   9.002
 6215WAT     H118887   7.186   0.734   8.992
 6215WAT     H218888   7.080   0.837   8.924
 6216WAT      O18889   4.310   1.455   9.339
 6216WAT     H118890   4.230   1.424   9.391
 6216WAT     H218891   4.377   1.494   9.403
 6217WAT      O18892   2.064   0.909   0.310
 6217WAT     H118893   2.065   0.989   0.250
 6217WAT     H218894   2.008   0.837   0.268
 6218WAT      O18895   0.946   4.820   2.190
 6218WAT     H118896   0.913   4.727   2.176
 6218WAT     H218897   1.044   4.823   2.168
 6219WAT      O18898   0.946   5.979   8.912
 6219WAT     H118899   0.866   5.972   8.852
 6219WAT     H218900   1.004   6.054   8.881
 6220WAT      O18901   2.927   2.105   7.494
 6220WAT     H118902   2.922   2.204   7.504
 6220WAT     H218903   3.001   2.082   7.430
 6221WAT      O18904   7.359   8.799   0.628
 6221WAT     H118905   7.426   8.873   0.620
 6221WAT     H218906   7.340   8.781   0.724
 6222WAT      O18907   7.977   4.127   6.206
 6222WAT     H118908   7.970   4.210   6.151
 6222WAT     H218909   8.074   4.105   6.220
 6223WAT      O18910   5.297   3.401   5.188
 6223WAT     H118911   5.293   3.436   5.281
 6223WAT     H218912   5.338   3.310   5.188
 6224WAT      O18913   3.942   1.235   2.219
 6224WAT     H118914   3.901   1.276   2.301
 6224WAT     H218915   3.952   1.137   2.233
 6225WAT      O18916   5.958   8.019   7.238
 6225WAT     H118917   5.899   8.016   7.318
 6225WAT     H218918   5.902   8.025   7.155
 6226WAT      O18919   0.329   6.307   6.733
 6226WAT     H118920   0.325   6.343   6.826
 6226WAT     H218921   0.418   6.264   6.717
 6227WAT      O18922   4.545   5.877   7.953
 6227WAT     H118923   4.563   5.961   8.004
 6227WAT     H218924   4.621   5.814   7.965
 6228WAT      O18925   6.430   0.201   6.707
 6228WAT     H118926   6.491   0.121   6.703
 6228WAT     H218927   6.435   0.242   6.798
 6229WAT      O18928   1.207   0.094   5.011
 6229WAT     H118929   1.274   0.112   5.084
 6229WAT     H218930   1.129   0.044   5.049
 6230WAT      O18931   2.934   1.234   2.067
 6230WAT     H118932   3.033   1.228   2.072
 6230WAT     H218933   2.895   1.234   2.159
 6231WAT      O18934   7.667   9.666   0.919
 6231WAT     H118935   7.681   9.663   0.820
 6231WAT     H218936   7.755   9.670   0.965
 6232WAT      O18937   4.431   7.489   8.783
 6232WAT     H118938   4.479   7.402   8.783
 6232WAT     H218939   4.435   7.530   8.874
 6233WAT      O18940   0.969   8.701   0.963
 6233WAT     H118941   0.979   8.667   0.870
 6233WAT     H218942   0.913   8.637   1.016
 6234WAT      O18943   5.526   5.569   9.451
 6234WAT     H118944   5.482   5.658   9.466
 6234WAT     H218945   5.573   5.570   9.363
 6235WAT      O18946   8.785   9.728   8.047
 6235WAT     H118947   8.821   9.808   8.094
 6235WAT     H218948   8.824   9.645   8.087
 6236WAT      O18949   2.992   2.848   3.743
 6236WAT     H118950   3.036   2.767   3.703
 6236WAT     H218951   2.973   2.915   3.671
 6237WAT      O18952   3.962   8.810   2.929
 6237WAT     H118953   4.054   8.785   2.900
 6237WAT     H218954   3.905   8.827   2.849
 6238WAT      O18955   6.754   4.090   7.296
 6238WAT     H118956   6.826   4.043   7.245
 6238WAT     H218957   6.779   4.094   7.393
 6239WAT      O18958   8.639   0.691   0.347
 6239WAT     H118959   8.718   0.647   0.304
 6239WAT     H218960   8.611   0.639   0.428
 6240WAT      O18961   8.715   1.529   0.440
 6240WAT     H118962   8.732   1.469   0.519
 6240WAT     H218963   8.751   1.486   0.357
 6241WAT      O18964   6.458   1.064   2.210
 6241WAT     H118965   6.502   1.013   2.284
 6241WAT     H218966   6.525   1.087   2.139
 6242WAT      O18967   8.264   1.282   2.033
 6242WAT     H118968   8.348   1.324   2.065
 6242WAT     H218969   8.188   1.347   2.043
 6243WAT      O18970   9.060   9.829   1.292
 6243WAT     H118971   9.055   9.895   1.366
 6243WAT     H218972   9.063   9.877   1.204
 6244WAT      O18973   1.083   7.451   1.275
 6244WAT     H118974   0.988   7.462   1.244
 6244WAT     H218975   1.101   7.354   1.291
 6245WAT      O18976   9.296   8.519   1.849
 6245WAT     H118977   9.362   8.451   1.881
 6245WAT     H218978   9.220   8.472   1.804
 6246WAT      O18979   1.699   3.452   0.365
 6246WAT     H118980   1.714   3.439   0.267
 6246WAT     H218981   1.665   3.367   0.405
 6247WAT      O18982   2.932   6.709   5.341
 6247WAT     H118983   2.982   6.681   5.423
 6247WAT     H218984   2.994   6.758   5.279
 6248WAT      O18985   9.218   0.534   4.849
 6248WAT     H118986   9.258   0.599   4.914
 6248WAT     H218987   9.150   0.581   4.793
 6249WAT      O18988   7.977   7.743   4.972
 6249WAT     H118989   7.911   7.798   5.024
 6249WAT     H218990   8.029   7.686   5.036
 6250WAT      O18991   7.058   4.505   9.586
 6250WAT     H118992   7.081   4.415   9.547
 6250WAT     H218993   6.992   4.492   9.660
 6251WAT      O18994   4.588   0.355   1.306
 6251WAT     H118995   4.518   0.324   1.242
 6251WAT     H218996   4.649   0.420   1.260
 6252WAT      O18997   4.467   1.878   3.966
 6252WAT     H118998   4.445   1.785   3.995
 6252WAT     H218999   4.486   1.934   4.047
 6253WAT      O19000   4.576   6.107   8.088
 6253WAT     H119001   4.656   6.165   8.104
 6253WAT     H219002   4.493   6.160   8.109
 6254WAT      O19003   3.980   8.003   9.850
 6254WAT     H119004   4.036   8.083   9.868
 6254WAT     H219005   3.951   8.003   9.754
 6255WAT      O19006   4.395   0.149   7.808
 6255WAT     H119007   4.388   0.063   7.859
 6255WAT     H219008   4.455   0.135   7.729
 6256WAT      O19009   0.485   5.732   1.226
 6256WAT     H119010   0.477   5.640   1.263
 6256WAT     H219011   0.429   5.795   1.281
 6257WAT      O19012   1.561   9.660   1.444
 6257WAT     H119013   1.505   9.585   1.410
 6257WAT     H219014   1.502   9.737   1.468
 6258WAT      O19015   0.531   5.649   2.646
 6258WAT     H119016   0.446   5.628   2.694
 6258WAT     H219017   0.576   5.564   2.619
 6259WAT      O19018   0.747   7.509   3.886
 6259WAT     H119019   0.759   7.505   3.787
 6259WAT     H219020   0.717   7.420   3.920
 6260WAT      O19021   2.982   1.671   2.463
 6260WAT     H119022   3.028   1.582   2.460
 6260WAT     H219023   2.974   1.707   2.371
 6261WAT      O19024   0.619   1.775   9.273
 6261WAT     H119025   0.525   1.791   9.243
 6261WAT     H219026   0.683   1.814   9.206
 6262WAT      O19027   7.088   9.131   9.706
 6262WAT     H119028   7.129   9.040   9.703
 6262WAT     H219029   7.029   9.138   9.787
 6263WAT      O19030   7.220   5.917   8.806
 6263WAT     H119031   7.225   6.000   8.860
 6263WAT     H219032   7.283   5.923   8.728
 6264WAT      O19033   8.927   2.786   0.919
 6264WAT     H119034   8.955   2.772   1.014
 6264WAT     H219035   9.004   2.824   0.867
 6265WAT      O19036   8.221   3.269   7.035
 6265WAT     H119037   8.257   3.190   7.086
 6265WAT     H219038   8.131   3.293   7.069
 6266WAT      O19039   4.238   6.510   9.669
 6266WAT     H119040   4.323   6.537   9.715
 6266WAT     H219041   4.253   6.424   9.621
 6267WAT      O19042   6.634   3.805   8.922
 6267WAT     H119043   6.573   3.746   8.869
 6267WAT     H219044   6.696   3.854   8.861
 6268WAT      O19045   3.012   7.685   1.546
 6268WAT     H119046   3.092   7.647   1.593
 6268WAT     H219047   2.931   7.675   1.605
 6269WAT      O19048   2.286   8.153   1.734
 6269WAT     H119049   2.307   8.249   1.751
 6269WAT     H219050   2.351   8.115   1.668
 6270WAT      O19051   1.672   0.450   6.675
 6270WAT     H119052   1.585   0.433   6.720
 6270WAT     H219053   1.746   0.451   6.742
 6271WAT      O19054   4.910   6.832   5.031
 6271WAT     H119055   4.845   6.761   5.007
 6271WAT     H219056   4.867   6.898   5.093
 6272WAT      O19057   6.552   7.301   1.536
 6272WAT     H119058   6.501   7.370   1.484
 6272WAT     H219059   6.644   7.292   1.498
 6273WAT      O19060   1.936   3.984   6.405
 6273WAT     H119061   1.895   4.075   6.397
 6273WAT     H219062   1.871   3.921   6.446
 6274WAT      O19063   1.971   4.292   8.829
 6274WAT     H119064   2.026   4.212   8.802
 6274WAT     H219065   1.900   4.308   8.760
 6275WAT      O19066   2.326   5.598   7.674
 6275WAT     H119067   2.403   5.638   7.625
 6275WAT     H219068   2.280   5.532   7.615
 6276WAT      O19069   2.286   4.854   0.849
 6276WAT     H119070   2.357   4.923   0.833
 6276WAT     H219071   2.271   4.802   0.765
 6277WAT      O19072   4.359   6.256   6.575
 6277WAT     H119073   4.338   6.225   6.667
 6277WAT     H219074   4.275   6.285   6.529
 6278WAT      O19075   8.709   4.405   6.222
 6278WAT     H119076   8.803   4.370   6.224
 6278WAT     H219077   8.646   4.328   6.213
 6279WAT      O19078   2.141   0.469   5.733
 6279WAT     H119079   2.106   0.536   5.668
 6279WAT     H219080   2.149   0.380   5.688
 6280WAT      O19081   1.724   4.302   8.695
 6280WAT     H119082   1.649   4.285   8.759
 6280WAT     H219083   1.707   4.252   8.610
 6281WAT      O19084   6.844   5.754   4.520
 6281WAT     H119085   6.906   5.794   4.587
 6281WAT     H219086   6.885   5.760   4.429
 6282WAT      O19087   8.764   0.637   7.240
 6282WAT     H119088   8.670   0.661   7.264
 6282WAT     H219089   8.815   0.719   7.214
 6283WAT      O19090   7.534   1.900   7.004
 6283WAT     H119091   7.595   1.891   6.925
 6283WAT     H219092   7.548   1.989   7.047
 6284WAT      O19093   8.937   6.869   8.417
 6284WAT     H119094   8.885   6.817   8.485
 6284WAT     H219095   9.031   6.881   8.448
 6285WAT      O19096   0.911   8.113   2.393
 6285WAT     H119097   0.940   8.111   2.488
 6285WAT     H219098   0.991   8.111   2.333
 6286WAT      O19099   5.198   5.643   8.971
 6286WAT     H119100   5.216   5.618   9.066
 6286WAT     H219101   5.209   5.741   8.960
 6287WAT      O19102   3.554   9.538   8.039
 6287WAT     H119103   3.551   9.439   8.023
 6287WAT     H219104   3.568   9.585   7.952
 6288WAT      O19105   8.450   8.323   5.012
 6288WAT     H119106   8.540   8.333   4.970
 6288WAT     H219107   8.460   8.319   5.112
 6289WAT      O19108   5.635   9.277   5.030
 6289WAT     H119109   5.688   9.193   5.025
 6289WAT     H219110   5.640   9.325   4.942
 6290WAT      O19111   4.440   2.398   3.442
 6290WAT     H119112   4.342   2.377   3.431
 6290WAT     H219113   4.467   2.466   3.374
 6291WAT      O19114   1.134   0.824   8.742
 6291WAT     H119115   1.177   0.733   8.747
 6291WAT     H219116   1.039   0.814   8.713
 6292WAT      O19117   1.719   8.316   0.070
 6292WAT     H119118   1.765   8.391   0.022
 6292WAT     H219119   1.735   8.324   0.168
 6293WAT      O19120   7.827   5.583   3.443
 6293WAT     H119121   7.745   5.526   3.448
 6293WAT     H219122   7.903   5.529   3.406
 6294WAT      O19123   0.287   0.405   5.261
 6294WAT     H119124   0.383   0.432   5.272
 6294WAT     H219125   0.272   0.315   5.302
 6295WAT      O19126   3.962   5.080   0.481
 6295WAT     H119127   4.024   5.147   0.522
 6295WAT     H219128   3.938   5.109   0.388
 6296WAT      O19129   9.682   1.526   1.023
 6296WAT     H119130   9.746   1.570   0.959
 6296WAT     H219131   9.589   1.558   1.004
 6297WAT      O19132   0.809   5.713   8.847
 6297WAT     H119133   0.734   5.648   8.855
 6297WAT     H219134   0.777   5.796   8.802
 6298WAT      O19135   6.876   1.337   2.082
 6298WAT     H119136   6.812   1.357   2.156
 6298WAT     H219137   6.946   1.273   2.114
 6299WAT      O19138   6.393   2.143   1.096
 6299WAT     H119139   6.413   2.052   1.059
 6299WAT     H219140   6.472   2.177   1.146
 6300WAT      O19141   5.460   5.530   1.594
 6300WAT     H119142   5.509   5.551   1.509
 6300WAT     H219143   5.381   5.471   1.574
 6301WAT      O19144   6.920   6.012   7.754
 6301WAT     H119145   6.913   5.927   7.701
 6301WAT     H219146   6.914   5.991   7.852
 6302WAT      O19147   0.393   6.622   9.811
 6302WAT     H119148   0.467   6.641   9.746
 6302WAT     H219149   0.317   6.684   9.794
 6303WAT      O19150   4.574   9.049   3.090
 6303WAT     H119151   4.651   8.986   3.077
 6303WAT     H219152   4.495   9.015   3.040
 6304WAT      O19153   6.539   1.001   4.640
 6304WAT     H119154   6.634   0.997   4.673
 6304WAT     H219155   6.484   0.933   4.688
 6305WAT      O19156   6.211   0.642   4.269
 6305WAT     H119157   6.183   0.719   4.211
 6305WAT     H219158   6.208   0.557   4.215
 6306WAT      O19159   9.253   3.802   6.694
 6306WAT     H119160   9.312   3.723   6.709
 6306WAT     H219161   9.173   3.775   6.642
 6307WAT      O19162   0.759   2.238   8.992
 6307WAT     H119163   0.800   2.240   9.084
 6307WAT     H219164   0.771   2.147   8.953
 6308WAT      O19165   3.925   7.256   5.725
 6308WAT     H119166   3.952   7.211   5.640
 6308WAT     H219167   3.908   7.187   5.796
 6309WAT      O19168   0.635   0.100   9.065
 6309WAT     H119169   0.671   0.183   9.022
 6309WAT     H219170   0.539   0.088   9.038
 6310WAT      O19171   8.804   6.046   3.491
 6310WAT     H119172   8.861   5.967   3.511
 6310WAT     H219173   8.776   6.090   3.577
 6311WAT      O19174   7.977   0.451   4.872
 6311WAT     H119175   7.950   0.547   4.858
 6311WAT     H219176   7.931   0.416   4.954
 6312WAT      O19177   1.636   2.955   9.115
 6312WAT     H119178   1.623   3.046   9.076
 6312WAT     H219179   1.718   2.954   9.173
 6313WAT      O19180   1.219   7.319   0.591
 6313WAT     H119181   1.283   7.353   0.660
 6313WAT     H219182   1.265   7.312   0.503
 6314WAT      O19183   2.621   5.829   0.769
 6314WAT     H119184   2.715   5.847   0.739
 6314WAT     H219185   2.564   5.908   0.749
 6315WAT      O19186   9.738   4.103   3.506
 6315WAT     H119187   9.678   4.036   3.549
 6315WAT     H219188   9.833   4.086   3.534
 6316WAT      O19189   9.574   7.623   0.975
 6316WAT     H119190   9.594   7.548   1.037
 6316WAT     H219191   9.655   7.645   0.921
 6317WAT      O19192   8.514   3.946   3.356
 6317WAT     H119193   8.484   3.981   3.445
 6317WAT     H219194   8.533   4.022   3.295
 6318WAT      O19195   0.307   1.081   4.184
 6318WAT     H119196   0.208   1.070   4.174
 6318WAT     H219197   0.335   1.170   4.147
 6319WAT      O19198   0.054   2.214   3.001
 6319WAT     H119199   0.154   2.204   2.993
 6319WAT     H219200   0.023   2.290   2.944
 6320WAT      O19201   2.001   0.922   2.060
 6320WAT     H119202   1.975   0.847   1.999
 6320WAT     H219203   2.099   0.939   2.052
 6321WAT      O19204   9.705   8.748   8.517
 6321WAT     H119205   9.645   8.726   8.593
 6321WAT     H219206   9.662   8.818   8.459
 6322WAT      O19207   2.533   4.908   7.407
 6322WAT     H119208   2.576   4.924   7.318
 6322WAT     H219209   2.603   4.879   7.473
 6323WAT      O19210   2.398   9.417   9.546
 6323WAT     H119211   2.474   9.480   9.560
 6323WAT     H219212   2.434   9.326   9.527
 6324WAT      O19213   7.188   9.759   3.084
 6324WAT     H119214   7.268   9.803   3.042
 6324WAT     H219215   7.206   9.742   3.181
 6325WAT      O19216   3.092   6.143   5.639
 6325WAT     H119217   3.029   6.080   5.685
 6325WAT     H219218   3.096   6.122   5.542
 6326WAT      O19219   0.480   2.221   3.651
 6326WAT     H119220   0.523   2.212   3.562
 6326WAT     H219221   0.494   2.313   3.686
 6327WAT      O19222   9.784   1.421   7.544
 6327WAT     H119223   9.841   1.503   7.542
 6327WAT     H219224   9.807   1.367   7.625
 6328WAT      O19225   4.007   1.986   2.518
 6328WAT     H119226   4.028   2.040   2.599
 6328WAT     H219227   4.092   1.962   2.471
 6329WAT      O19228   0.875   6.137   1.047
 6329WAT     H119229   0.829   6.074   0.986
 6329WAT     H219230   0.970   6.110   1.058
 6330WAT      O19231   5.379   7.452   6.660
 6330WAT     H119232   5.401   7.450   6.757
 6330WAT     H219233   5.432   7.524   6.615
 6331WAT      O19234   6.257   8.635   0.117
 6331WAT     H119235   6.186   8.646   0.187
 6331WAT     H219236   6.223   8.575   0.044
 6332WAT      O19237   5.760   5.531   7.076
 6332WAT     H119238   5.804   5.620   7.093
 6332WAT     H219239   5.689   5.516   7.143
 6333WAT      O19240   6.746   1.860   6.376
 6333WAT     H119241   6.795   1.774   6.392
 6333WAT     H219242   6.812   1.932   6.356
 6334WAT      O19243   5.231   9.157   0.750
 6334WAT     H119244   5.330   9.146   0.740
 6334WAT     H219245   5.202   9.243   0.707
 6335WAT      O19246   8.771   4.705   0.401
 6335WAT     H119247   8.725   4.683   0.315
 6335WAT     H219248   8.779   4.804   0.410
 6336WAT      O19249   0.811   3.210   5.830
 6336WAT     H119250   0.834   3.263   5.911
 6336WAT     H219251   0.891   3.159   5.799
 6337WAT      O19252   2.458   7.213   5.494
 6337WAT     H119253   2.530   7.282   5.492
 6337WAT     H219254   2.396   7.232   5.570
 6338WAT      O19255   0.742   7.252   1.049
 6338WAT     H119256   0.659   7.197   1.043
 6338WAT     H219257   0.821   7.196   1.029
 6339WAT      O19258   0.489   0.912   9.573
 6339WAT     H119259   0.565   0.942   9.516
 6339WAT     H219260   0.473   0.815   9.557
 6340WAT      O19261   2.104   1.221   7.429
 6340WAT     H119262   2.011   1.218   7.466
 6340WAT     H219263   2.104   1.266   7.340
 6341WAT      O19264   6.579   3.345   5.650
 6341WAT     H119265   6.668   3.351   5.605
 6341WAT     H219266   6.510   3.315   5.584
 6342WAT      O19267   6.452   4.693   6.902
 6342WAT     H119268   6.414   4.617   6.848
 6342WAT     H219269   6.434   4.676   6.999
 6343WAT      O19270   8.980   1.845   2.895
 6343WAT     H119271   8.962   1.940   2.921
 6343WAT     H219272   8.947   1.784   2.967
 6344WAT      O19273   8.340   2.131   1.060
 6344WAT     H119274   8.292   2.059   1.110
 6344WAT     H219275   8.438   2.125   1.079
 6345WAT      O19276   9.701   8.046   6.358
 6345WAT     H119277   9.612   8.049   6.313
 6345WAT     H219278   9.688   8.050   6.457
 6346WAT      O19279   6.733   6.218   3.304
 6346WAT     H119280   6.717   6.258   3.214
 6346WAT     H219281   6.659   6.243   3.366
 6347WAT      O19282   7.502   0.777   0.591
 6347WAT     H119283   7.527   0.711   0.520
 6347WAT     H219284   7.413   0.752   0.629
 6348WAT      O19285   9.834   5.604   9.837
 6348WAT     H119286   9.932   5.622   9.839
 6348WAT     H219287   9.790   5.647   9.916
 6349WAT      O19288   9.873   7.394   8.563
 6349WAT     H119289   9.950   7.398   8.499
 6349WAT     H219290   9.802   7.458   8.534
 6350WAT      O19291   6.954   4.480   5.434
 6350WAT     H119292   6.928   4.544   5.361
 6350WAT     H219293   7.039   4.512   5.477
 6351WAT      O19294   0.458   8.345   1.746
 6351WAT     H119295   0.529   8.327   1.678
 6351WAT     H219296   0.369   8.342   1.702
 6352WAT      O19297   5.713   1.429   8.642
 6352WAT     H119298   5.644   1.475   8.586
 6352WAT     H219299   5.679   1.340   8.671
 6353WAT      O19300   5.698   9.331   0.846
 6353WAT     H119301   5.738   9.301   0.932
 6353WAT     H219302   5.690   9.431   0.846
 6354WAT      O19303   0.560   9.769   5.725
 6354WAT     H119304   0.497   9.712   5.671
 6354WAT     H219305   0.654   9.740   5.708
 6355WAT      O19306   4.287   9.387   3.001
 6355WAT     H119307   4.255   9.298   3.035
 6355WAT     H219308   4.216   9.428   2.943
 6356WAT      O19309   8.316   4.124   9.262
 6356WAT     H119310   8.308   4.147   9.359
 6356WAT     H219311   8.356   4.201   9.213
 6357WAT      O19312   4.454   5.264   9.855
 6357WAT     H119313   4.373   5.219   9.893
 6357WAT     H219314   4.457   5.359   9.886
 6358WAT      O19315   8.271   4.295   8.953
 6358WAT     H119316   8.245   4.298   8.857
 6358WAT     H219317   8.370   4.311   8.961
 6359WAT      O19318   8.972   9.635   4.407
 6359WAT     H119319   8.904   9.565   4.386
 6359WAT     H219320   8.959   9.667   4.500
 6360WAT      O19321   0.386   2.525   1.334
 6360WAT     H119322   0.485   2.520   1.322
 6360WAT     H219323   0.343   2.546   1.246
 6361WAT      O19324   9.276   4.047   2.923
 6361WAT     H119325   9.346   3.983   2.952
 6361WAT     H219326   9.202   4.049   2.990
 6362WAT      O19327   8.467   4.560   9.162
 6362WAT     H119328   8.507   4.492   9.101
 6362WAT     H219329   8.375   4.584   9.130
 6363WAT      O19330   2.090   8.618   1.617
 6363WAT     H119331   2.097   8.649   1.522
 6363WAT     H219332   1.994   8.609   1.642
 6364WAT      O19333   1.390   5.630   4.202
 6364WAT     H119334   1.480   5.604   4.238
 6364WAT     H219335   1.398   5.719   4.156
 6365WAT      O19336   8.406   6.455   3.034
 6365WAT     H119337   8.333   6.390   3.012
 6365WAT     H219338   8.367   6.547   3.043
 6366WAT      O19339   2.488   2.905   1.252
 6366WAT     H119340   2.397   2.918   1.291
 6366WAT     H219341   2.513   2.986   1.199
 6367WAT      O19342   5.900   7.717   4.675
 6367WAT     H119343   5.976   7.721   4.609
 6367WAT     H219344   5.935   7.685   4.763
 6368WAT      O19345   5.695   5.702   3.418
 6368WAT     H119346   5.657   5.754   3.494
 6368WAT     H219347   5.726   5.612   3.450
 6369WAT      O19348   8.013   5.278   7.757
 6369WAT     H119349   8.038   5.334   7.678
 6369WAT     H219350   7.917   5.292   7.779
 6370WAT      O19351   2.310   3.504   0.393
 6370WAT     H119352   2.211   3.487   0.400
 6370WAT     H219353   2.353   3.425   0.349
 6371WAT      O19354   6.347   3.514   5.534
 6371WAT     H119355   6.389   3.534   5.623
 6371WAT     H219356   6.252   3.543   5.535
 6372WAT      O19357   1.137   2.572   9.625
 6372WAT     H119358   1.083   2.641   9.576
 6372WAT     H219359   1.176   2.613   9.708
 6373WAT      O19360   8.093   0.282   6.827
 6373WAT     H119361   8.088   0.364   6.769
 6373WAT     H219362   8.069   0.307   6.921
 6374WAT      O19363   1.873   2.084   2.370
 6374WAT     H119364   1.791   2.039   2.333
 6374WAT     H219365   1.885   2.057   2.465
 6375WAT      O19366   3.924   4.201   5.792
 6375WAT     H119367   3.872   4.185   5.876
 6375WAT     H219368   4.008   4.148   5.795
 6376WAT      O19369   6.080   3.374   0.943
 6376WAT     H119370   6.045   3.384   0.850
 6376WAT     H219371   6.176   3.350   0.940
 6377WAT      O19372   1.076   4.607   0.631
 6377WAT     H119373   1.039   4.574   0.718
 6377WAT     H219374   1.126   4.692   0.646
 6378WAT      O19375   8.234   4.988   1.621
 6378WAT     H119376   8.173   4.913   1.596
 6378WAT     H219377   8.192   5.075   1.597
 6379WAT      O19378   5.540   6.120   1.086
 6379WAT     H119379   5.639   6.128   1.077
 6379WAT     H219380   5.498   6.209   1.071
 6380WAT      O19381   3.328   7.798   3.853
 6380WAT     H119382   3.343   7.791   3.754
 6380WAT     H219383   3.231   7.788   3.873
 6381WAT      O19384   7.941   8.632   0.834
 6381WAT     H119385   7.922   8.605   0.739
 6381WAT     H219386   7.896   8.719   0.853
 6382WAT      O19387   7.345   1.498   7.862
 6382WAT     H119388   7.317   1.420   7.807
 6382WAT     H219389   7.303   1.492   7.953
 6383WAT      O19390   3.630   8.588   9.115
 6383WAT     H119391   3.563   8.558   9.047
 6383WAT     H219392   3.722   8.562   9.085
 6384WAT      O19393   0.992   6.043   6.466
 6384WAT     H119394   1.054   6.100   6.520
 6384WAT     H219395   0.936   6.101   6.407
 6385WAT      O19396   1.641   7.527   6.298
 6385WAT     H119397   1.694   7.443   6.310
 6385WAT     H219398   1.667   7.594   6.368
 6386WAT      O19399   3.497   3.005   9.255
 6386WAT     H119400   3.421   2.985   9.193
 6386WAT     H219401   3.523   3.101   9.247
 6387WAT      O19402   1.710   3.751   2.026
 6387WAT     H119403   1.778   3.753   1.952
 6387WAT     H219404   1.722   3.832   2.084
 6388WAT      O19405   2.536   6.102   4.968
 6388WAT     H119406   2.454   6.049   4.988
 6388WAT     H219407   2.513   6.199   4.965
 6389WAT      O19408   0.334   2.921   8.688
 6389WAT     H119409   0.412   2.967   8.728
 6389WAT     H219410   0.254   2.981   8.691
 6390WAT      O19411   5.512   2.843   3.481
 6390WAT     H119412   5.581   2.771   3.475
 6390WAT     H219413   5.555   2.927   3.516
 6391WAT      O19414   3.952   5.745   5.947
 6391WAT     H119415   3.907   5.673   6.000
 6391WAT     H219416   4.043   5.713   5.919
 6392WAT      O19417   8.577   7.819   3.002
 6392WAT     H119418   8.617   7.798   2.913
 6392WAT     H219419   8.492   7.768   3.013
 6393WAT      O19420   5.482   1.802   2.194
 6393WAT     H119421   5.451   1.894   2.171
 6393WAT     H219422   5.582   1.801   2.203
 6394WAT      O19423   5.742   3.922   0.166
 6394WAT     H119424   5.656   3.947   0.208
 6394WAT     H219425   5.737   3.828   0.132
 6395WAT      O19426   1.540   6.850   4.575
 6395WAT     H119427   1.486   6.884   4.652
 6395WAT     H219428   1.559   6.752   4.589
 6396WAT      O19429   4.440   1.951   3.525
 6396WAT     H119430   4.521   1.923   3.576
 6396WAT     H219431   4.467   2.005   3.446
 6397WAT      O19432   9.070   0.102   2.100
 6397WAT     H119433   9.099   0.196   2.115
 6397WAT     H219434   9.135   0.056   2.040
 6398WAT      O19435   4.505   9.126   0.592
 6398WAT     H119436   4.566   9.104   0.668
 6398WAT     H219437   4.411   9.132   0.626
 6399WAT      O19438   0.209   0.409   0.776
 6399WAT     H119439   0.189   0.328   0.832
 6399WAT     H219440   0.231   0.486   0.835
 6400WAT      O19441   5.433   2.781   7.024
 6400WAT     H119442   5.461   2.859   7.080
 6400WAT     H219443   5.333   2.772   7.028
 6401WAT      O19444   7.124   6.690   6.453
 6401WAT     H119445   7.032   6.721   6.474
 6401WAT     H219446   7.165   6.651   6.535
 6402WAT      O19447   1.490   6.572   5.227
 6402WAT     H119448   1.513   6.518   5.308
 6402WAT     H219449   1.517   6.667   5.242
 6403WAT      O19450   2.842   1.459   0.603
 6403WAT     H119451   2.824   1.555   0.627
 6403WAT     H219452   2.778   1.400   0.651
 6404WAT      O19453   1.305   9.211   3.163
 6404WAT     H119454   1.275   9.275   3.234
 6404WAT     H219455   1.227   9.155   3.134
 6405WAT      O19456   1.954   2.766   5.537
 6405WAT     H119457   1.897   2.758   5.619
 6405WAT     H219458   2.018   2.842   5.549
 6406WAT      O19459   1.757   6.794   8.257
 6406WAT     H119460   1.849   6.756   8.247
 6406WAT     H219461   1.695   6.723   8.291
 6407WAT      O19462   6.710   1.717   6.048
 6407WAT     H119463   6.705   1.664   5.963
 6407WAT     H219464   6.655   1.673   6.119
 6408WAT      O19465   7.043   4.459   5.984
 6408WAT     H119466   6.982   4.514   6.041
 6408WAT     H219467   7.025   4.479   5.888
 6409WAT      O19468   9.558   4.235   6.508
 6409WAT     H119469   9.544   4.197   6.600
 6409WAT     H219470   9.469   4.248   6.464
 6410WAT      O19471   4.693   5.572   0.472
 6410WAT     H119472   4.714   5.669   0.463
 6410WAT     H219473   4.778   5.520   0.480
 6411WAT      O19474   3.935   3.011   3.143
 6411WAT     H119475   3.841   3.012   3.108
 6411WAT     H219476   3.948   2.930   3.200
 6412WAT      O19477   5.071   9.660   5.346
 6412WAT     H119478   5.013   9.704   5.278
 6412WAT     H219479   5.145   9.722   5.373
 6413WAT      O19480   5.762   3.190   1.044
 6413WAT     H119481   5.721   3.102   1.065
 6413WAT     H219482   5.784   3.194   0.946
 6414WAT      O19483   0.602   0.731   3.045
 6414WAT     H119484   0.660   0.758   2.968
 6414WAT     H219485   0.532   0.667   3.012
 6415WAT      O19486   8.047   9.386   9.257
 6415WAT     H119487   8.091   9.400   9.168
 6415WAT     H219488   8.117   9.380   9.328
 6416WAT      O19489   8.685   6.341   6.587
 6416WAT     H119490   8.666   6.376   6.495
 6416WAT     H219491   8.628   6.388   6.654
 6417WAT      O19492   3.881   3.906   9.592
 6417WAT     H119493   3.799   3.909   9.536
 6417WAT     H219494   3.933   3.823   9.573
 6418WAT      O19495   5.126   8.491   1.890
 6418WAT     H119496   5.137   8.524   1.984
 6418WAT     H219497   5.031   8.463   1.876
 6419WAT      O19498   3.645   9.034   1.642
 6419WAT     H119499   3.616   8.941   1.662
 6419WAT     H219500   3.684   9.076   1.725
 6420WAT      O19501   0.661   3.684   4.333
 6420WAT     H119502   0.615   3.597   4.353
 6420WAT     H219503   0.734   3.668   4.266
 6421WAT      O19504   7.453   5.376   5.592
 6421WAT     H119505   7.529   5.402   5.652
 6421WAT     H219506   7.431   5.279   5.606
 6422WAT      O19507   4.772   8.302   5.915
 6422WAT     H119508   4.836   8.229   5.937
 6422WAT     H219509   4.816   8.369   5.856
 6423WAT      O19510   6.992   2.191   0.990
 6423WAT     H119511   7.088   2.164   0.978
 6423WAT     H219512   6.933   2.124   0.946
 6424WAT      O19513   5.888   2.238   8.713
 6424WAT     H119514   5.868   2.277   8.802
 6424WAT     H219515   5.803   2.230   8.660
 6425WAT      O19516   2.817   4.395   5.443
 6425WAT     H119517   2.910   4.371   5.469
 6425WAT     H219518   2.818   4.444   5.355
 6426WAT      O19519   1.309   2.330   5.822
 6426WAT     H119520   1.293   2.429   5.829
 6426WAT     H219521   1.393   2.307   5.871
 6427WAT      O19522   2.804   9.475   0.189
 6427WAT     H119523   2.798   9.383   0.225
 6427WAT     H219524   2.823   9.471   0.090
 6428WAT      O19525   8.871   2.978   4.667
 6428WAT     H119526   8.820   3.063   4.681
 6428WAT     H219527   8.849   2.940   4.577
 6429WAT      O19528   6.412   9.274   7.618
 6429WAT     H119529   6.483   9.297   7.551
 6429WAT     H219530   6.420   9.178   7.644
 6430WAT      O19531   0.073   9.110   2.324
 6430WAT     H119532   0.157   9.163   2.310
 6430WAT     H219533   0.014   9.119   2.244
 6431WAT      O19534   0.492   3.332   6.280
 6431WAT     H119535   0.476   3.236   6.260
 6431WAT     H219536   0.588   3.347   6.303
 6432WAT      O19537   6.990   0.557   5.385
 6432WAT     H119538   6.978   0.474   5.330
 6432WAT     H219539   7.017   0.531   5.478
 6433WAT      O19540   6.795   5.238   5.055
 6433WAT     H119541   6.865   5.245   4.983
 6433WAT     H219542   6.712   5.199   5.017
 6434WAT      O19543   2.160   6.079   0.167
 6434WAT     H119544   2.125   6.169   0.140
 6434WAT     H219545   2.087   6.011   0.160
 6435WAT      O19546   3.072   0.918   3.146
 6435WAT     H119547   3.145   0.933   3.214
 6435WAT     H219548   3.102   0.952   3.057
 6436WAT      O19549   5.323   3.577   1.630
 6436WAT     H119550   5.371   3.575   1.717
 6436WAT     H219551   5.381   3.538   1.558
 6437WAT      O19552   4.803   5.033   5.252
 6437WAT     H119553   4.820   5.120   5.207
 6437WAT     H219554   4.710   5.002   5.231
 6438WAT      O19555   6.907   5.242   3.774
 6438WAT     H119556   6.824   5.269   3.725
 6438WAT     H219557   6.882   5.188   3.854
 6439WAT      O19558   1.147   9.124   5.550
 6439WAT     H119559   1.148   9.024   5.544
 6439WAT     H219560   1.056   9.155   5.577
 6440WAT      O19561   3.289   1.895   1.468
 6440WAT     H119562   3.306   1.951   1.550
 6440WAT     H219563   3.266   1.955   1.391
 6441WAT      O19564   2.738   2.314   8.748
 6441WAT     H119565   2.775   2.282   8.661
 6441WAT     H219566   2.702   2.407   8.738
 6442WAT      O19567   1.207   5.499   1.306
 6442WAT     H119568   1.232   5.405   1.283
 6442WAT     H219569   1.122   5.499   1.359
 6443WAT      O19570   6.254   3.372   0.392
 6443WAT     H119571   6.339   3.328   0.361
 6443WAT     H219572   6.187   3.302   0.417
 6444WAT      O19573   6.497   3.515   4.224
 6444WAT     H119574   6.522   3.452   4.150
 6444WAT     H219575   6.520   3.474   4.312
 6445WAT      O19576   0.801   5.462   3.386
 6445WAT     H119577   0.756   5.392   3.330
 6445WAT     H219578   0.882   5.423   3.430
 6446WAT      O19579   8.658   2.243   4.582
 6446WAT     H119580   8.757   2.236   4.592
 6446WAT     H219581   8.637   2.321   4.522
 6447WAT      O19582   5.544   0.880   4.758
 6447WAT     H119583   5.635   0.917   4.739
 6447WAT     H219584   5.536   0.790   4.716
 6448WAT      O19585   6.184   8.199   2.655
 6448WAT     H119586   6.195   8.218   2.557
 6448WAT     H219587   6.223   8.109   2.676
 6449WAT      O19588   9.172   2.528   3.797
 6449WAT     H119589   9.182   2.482   3.710
 6449WAT     H219590   9.103   2.600   3.789
 6450WAT      O19591   6.482   7.953   8.972
 6450WAT     H119592   6.535   8.033   8.944
 6450WAT     H219593   6.421   7.978   9.047
 6451WAT      O19594   1.130   5.832   9.562
 6451WAT     H119595   1.173   5.769   9.497
 6451WAT     H219596   1.190   5.845   9.641
 6452WAT      O19597   2.677   8.277   3.536
 6452WAT     H119598   2.620   8.280   3.453
 6452WAT     H219599   2.634   8.218   3.604
 6453WAT      O19600   9.775   3.843   9.448
 6453WAT     H119601   9.825   3.888   9.374
 6453WAT     H219602   9.758   3.908   9.521
 6454WAT      O19603   5.537   9.845   9.012
 6454WAT     H119604   5.636   9.836   9.022
 6454WAT     H219605   5.497   9.755   8.998
 6455WAT      O19606   8.593   5.311   4.526
 6455WAT     H119607   8.614   5.289   4.621
 6455WAT     H219608   8.617   5.406   4.507
 6456WAT      O19609   2.795   9.287   5.148
 6456WAT     H119610   2.841   9.205   5.183
 6456WAT     H219611   2.748   9.265   5.063
 6457WAT      O19612   7.964   2.946   6.457
 6457WAT     H119613   7.933   2.852   6.466
 6457WAT     H219614   7.985   2.984   6.547
 6458WAT      O19615   5.539   9.831   6.959
 6458WAT     H119616   5.541   9.864   6.865
 6458WAT     H219617   5.603   9.884   7.015
 6459WAT      O19618   2.977   6.655   4.722
 6459WAT     H119619   3.052   6.652   4.787
 6459WAT     H219620   2.917   6.576   4.736
 6460WAT      O19621   5.940   7.425   4.879
 6460WAT     H119622   5.895   7.473   4.954
 6460WAT     H219623   6.038   7.446   4.878
 6461WAT      O19624   6.485   2.345   7.420
 6461WAT     H119625   6.456   2.250   7.405
 6461WAT     H219626   6.430   2.386   7.492
 6462WAT      O19627   0.300   3.172   3.051
 6462WAT     H119628   0.301   3.072   3.050
 6462WAT     H219629   0.334   3.207   2.963
 6463WAT      O19630   2.558   0.578   1.951
 6463WAT     H119631   2.575   0.635   1.870
 6463WAT     H219632   2.460   0.563   1.961
 6464WAT      O19633   3.675   5.546   7.254
 6464WAT     H119634   3.656   5.452   7.281
 6464WAT     H219635   3.636   5.609   7.321
 6465WAT      O19636   5.526   8.799   6.766
 6465WAT     H119637   5.526   8.896   6.787
 6465WAT     H219638   5.533   8.746   6.851
 6466WAT      O19639   6.031   5.827   5.300
 6466WAT     H119640   6.050   5.901   5.235
 6466WAT     H219641   6.090   5.749   5.280
 6467WAT      O19642   3.446   4.803   4.734
 6467WAT     H119643   3.481   4.856   4.657
 6467WAT     H219644   3.437   4.707   4.707
 6468WAT      O19645   0.488   7.929   1.773
 6468WAT     H119646   0.533   7.948   1.685
 6468WAT     H219647   0.491   8.011   1.830
 6469WAT      O19648   6.558   9.176   4.840
 6469WAT     H119649   6.551   9.081   4.811
 6469WAT     H219650   6.502   9.233   4.780
 6470WAT      O19651   8.971   1.046   6.849
 6470WAT     H119652   8.876   1.036   6.880
 6470WAT     H219653   8.992   0.975   6.782
 6471WAT      O19654   4.532   8.229   5.274
 6471WAT     H119655   4.552   8.144   5.321
 6471WAT     H219656   4.443   8.223   5.229
 6472WAT      O19657   2.476   2.904   6.130
 6472WAT     H119658   2.485   2.880   6.033
 6472WAT     H219659   2.380   2.919   6.152
 6473WAT      O19660   4.331   9.564   9.311
 6473WAT     H119661   4.280   9.625   9.250
 6473WAT     H219662   4.349   9.612   9.397
 6474WAT      O19663   0.090   2.279   0.362
 6474WAT     H119664   0.069   2.279   0.460
 6474WAT     H219665   0.038   2.207   0.317
 6475WAT      O19666   8.669   0.615   9.774
 6475WAT     H119667   8.635   0.647   9.862
 6475WAT     H219668   8.769   0.619   9.773
 6476WAT      O19669   5.407   5.446   5.771
 6476WAT     H119670   5.454   5.363   5.740
 6476WAT     H219671   5.419   5.455   5.870
 6477WAT      O19672   5.605   5.781   9.798
 6477WAT     H119673   5.661   5.717   9.851
 6477WAT     H219674   5.570   5.853   9.857
 6478WAT      O19675   6.183   4.375   3.344
 6478WAT     H119676   6.102   4.359   3.288
 6478WAT     H219677   6.262   4.390   3.285
 6479WAT      O19678   1.560   4.692   3.064
 6479WAT     H119679   1.564   4.786   3.097
 6479WAT     H219680   1.641   4.643   3.093
 6480WAT      O19681   9.195   0.924   7.779
 6480WAT     H119682   9.229   0.963   7.864
 6480WAT     H219683   9.253   0.847   7.752
 6481WAT      O19684   8.824   5.780   7.598
 6481WAT     H119685   8.897   5.804   7.533
 6481WAT     H219686   8.782   5.694   7.569
 6482WAT      O19687   7.681   1.357   2.040
 6482WAT     H119688   7.658   1.357   2.138
 6482WAT     H219689   7.656   1.269   2.000
 6483WAT      O19690   6.843   1.294   1.795
 6483WAT     H119691   6.812   1.200   1.779
 6483WAT     H219692   6.845   1.312   1.894
 6484WAT      O19693   9.649   6.726   6.395
 6484WAT     H119694   9.716   6.651   6.399
 6484WAT     H219695   9.569   6.696   6.344
 6485WAT      O19696   4.805   2.991   8.482
 6485WAT     H119697   4.723   3.022   8.433
 6485WAT     H219698   4.860   3.071   8.509
 6486WAT      O19699   6.837   9.757   4.836
 6486WAT     H119700   6.750   9.737   4.882
 6486WAT     H219701   6.856   9.685   4.769
 6487WAT      O19702   7.398   5.975   8.580
 6487WAT     H119703   7.350   6.003   8.497
 6487WAT     H219704   7.452   6.052   8.615
 6488WAT      O19705   7.650   1.277   7.223
 6488WAT     H119706   7.631   1.298   7.318
 6488WAT     H219707   7.567   1.244   7.178
 6489WAT      O19708   8.622   3.164   7.938
 6489WAT     H119709   8.525   3.177   7.921
 6489WAT     H219710   8.651   3.220   8.016
 6490WAT      O19711   9.426   1.706   5.240
 6490WAT     H119712   9.465   1.783   5.190
 6490WAT     H219713   9.449   1.621   5.193
 6491WAT      O19714   9.031   1.776   6.172
 6491WAT     H119715   9.006   1.728   6.089
 6491WAT     H219716   8.950   1.822   6.210
 6492WAT      O19717   8.527   8.927   6.106
 6492WAT     H119718   8.621   8.913   6.139
 6492WAT     H219719   8.487   8.839   6.081
 6493WAT      O19720   4.873   0.163   0.024
 6493WAT     H119721   4.932   0.239  -0.002
 6493WAT     H219722   4.915   0.077  -0.008
 6494WAT      O19723   4.921   1.550   6.390
 6494WAT     H119724   4.983   1.573   6.466
 6494WAT     H219725   4.836   1.601   6.400
 6495WAT      O19726   8.699   1.796   6.534
 6495WAT     H119727   8.729   1.884   6.571
 6495WAT     H219728   8.622   1.810   6.472
 6496WAT      O19729   9.412   4.011   4.480
 6496WAT     H119730   9.437   4.085   4.542
 6496WAT     H219731   9.481   4.002   4.409
 6497WAT      O19732   7.590   6.720   0.626
 6497WAT     H119733   7.525   6.671   0.685
 6497WAT     H219734   7.567   6.817   0.623
 6498WAT      O19735   5.116   4.151   4.548
 6498WAT     H119736   5.170   4.220   4.597
 6498WAT     H219737   5.044   4.117   4.609
 6499WAT      O19738   4.862   8.416   6.165
 6499WAT     H119739   4.815   8.504   6.179
 6499WAT     H219740   4.832   8.376   6.079
 6500WAT      O19741   7.176   4.218   5.265
 6500WAT     H119742   7.102   4.221   5.332
 6500WAT     H219743   7.141   4.187   5.177
 6501WAT      O19744   1.662   8.998   0.149
 6501WAT     H119745   1.754   9.017   0.184
 6501WAT     H219746   1.623   8.922   0.200
 6502WAT      O19747   3.877   1.322   3.064
 6502WAT     H119748   3.888   1.419   3.039
 6502WAT     H219749   3.937   1.266   3.006
 6503WAT      O19750   1.774   1.824   4.240
 6503WAT     H119751   1.773   1.730   4.205
 6503WAT     H219752   1.721   1.883   4.180
 6504WAT      O19753   3.039   3.028   8.144
 6504WAT     H119754   2.950   3.064   8.115
 6504WAT     H219755   3.111   3.088   8.109
 6505WAT      O19756   3.862   2.067   8.894
 6505WAT     H119757   3.841   1.969   8.896
 6505WAT     H219758   3.779   2.119   8.911
 6506WAT      O19759   9.356   3.777   8.454
 6506WAT     H119760   9.445   3.823   8.454
 6506WAT     H219761   9.344   3.727   8.539
 6507WAT      O19762   1.627   2.311   6.490
 6507WAT     H119763   1.681   2.386   6.527
 6507WAT     H219764   1.531   2.323   6.517
 6508WAT      O19765   3.356   9.298   7.359
 6508WAT     H119766   3.384   9.394   7.357
 6508WAT     H219767   3.260   9.291   7.332
 6509WAT      O19768   1.840   7.695   3.018
 6509WAT     H119769   1.872   7.698   3.112
 6509WAT     H219770   1.870   7.777   2.969
 6510WAT      O19771   5.927   4.853   6.478
 6510WAT     H119772   5.836   4.822   6.451
 6510WAT     H219773   5.978   4.882   6.397
 6511WAT      O19774   7.542   0.821   7.945
 6511WAT     H119775   7.601   0.743   7.967
 6511WAT     H219776   7.510   0.813   7.850
 6512WAT      O19777   1.654   5.440   1.618
 6512WAT     H119778   1.708   5.365   1.656
 6512WAT     H219779   1.637   5.424   1.521
 6513WAT      O19780   8.187   3.455   1.898
 6513WAT     H119781   8.181   3.511   1.981
 6513WAT     H219782   8.203   3.514   1.819
 6514WAT      O19783   0.868   2.061   7.572
 6514WAT     H119784   0.951   2.008   7.554
 6514WAT     H219785   0.794   1.999   7.598
 6515WAT      O19786   2.867   9.761   2.506
 6515WAT     H119787   2.809   9.767   2.425
 6515WAT     H219788   2.876   9.852   2.546
 6516WAT      O19789   0.516   0.185   4.261
 6516WAT     H119790   0.565   0.261   4.219
 6516WAT     H219791   0.568   0.151   4.339
 6517WAT      O19792   9.236   5.807   0.863
 6517WAT     H119793   9.316   5.753   0.893
 6517WAT     H219794   9.265   5.873   0.794
 6518WAT      O19795   5.362   8.942   7.512
 6518WAT     H119796   5.371   8.842   7.513
 6518WAT     H219797   5.298   8.971   7.582
 6519WAT      O19798   8.347   8.177   1.860
 6519WAT     H119799   8.340   8.089   1.812
 6519WAT     H219800   8.430   8.224   1.830
 6520WAT      O19801   0.526   7.414   0.186
 6520WAT     H119802   0.560   7.492   0.133
 6520WAT     H219803   0.480   7.349   0.125
 6521WAT      O19804   6.551   4.467   9.822
 6521WAT     H119805   6.542   4.566   9.833
 6521WAT     H219806   6.639   4.437   9.859
 6522WAT      O19807   8.109   3.984   6.469
 6522WAT     H119808   8.191   3.943   6.509
 6522WAT     H219809   8.062   3.917   6.413
 6523WAT      O19810   9.869   5.467   0.718
 6523WAT     H119811   9.870   5.567   0.713
 6523WAT     H219812   9.845   5.429   0.629
 6524WAT      O19813   9.079   4.522   2.632
 6524WAT     H119814   9.056   4.470   2.715
 6524WAT     H219815   9.170   4.561   2.643
 6525WAT      O19816   6.645   3.945   7.904
 6525WAT     H119817   6.680   4.038   7.910
 6525WAT     H219818   6.600   3.932   7.815
 6526WAT      O19819   5.672   3.615   3.696
 6526WAT     H119820   5.655   3.711   3.717
 6526WAT     H219821   5.770   3.595   3.705
 6527WAT      O19822   1.126   3.926   5.203
 6527WAT     H119823   1.068   3.864   5.150
 6527WAT     H219824   1.151   4.004   5.146
 6528WAT      O19825   7.524   5.921   7.959
 6528WAT     H119826   7.537   5.905   7.861
 6528WAT     H219827   7.578   5.855   8.012
 6529WAT      O19828   3.100   9.055   7.016
 6529WAT     H119829   3.117   9.015   7.106
 6529WAT     H219830   3.020   9.012   6.975
 6530WAT      O19831   4.649   5.301   4.960
 6530WAT     H119832   4.631   5.256   4.873
 6530WAT     H219833   4.600   5.387   4.965
 6531WAT      O19834   3.453   6.625   9.294
 6531WAT     H119835   3.423   6.534   9.325
 6531WAT     H219836   3.438   6.691   9.368
 6532WAT      O19837   5.597   1.793   4.404
 6532WAT     H119838   5.599   1.892   4.393
 6532WAT     H219839   5.596   1.770   4.501
 6533WAT      O19840   7.734   0.430   5.460
 6533WAT     H119841   7.789   0.359   5.416
 6533WAT     H219842   7.750   0.427   5.559
 6534WAT      O19843   1.286   4.741   4.595
 6534WAT     H119844   1.318   4.832   4.622
 6534WAT     H219845   1.356   4.673   4.617
 6535WAT      O19846   1.120   0.760   8.195
 6535WAT     H119847   1.083   0.757   8.288
 6535WAT     H219848   1.203   0.704   8.190
 6536WAT      O19849   3.632   5.853   3.482
 6536WAT     H119850   3.583   5.817   3.562
 6536WAT     H219851   3.596   5.944   3.459
 6537WAT      O19852   7.877   5.897   9.134
 6537WAT     H119853   7.862   5.942   9.222
 6537WAT     H219854   7.879   5.798   9.146
 6538WAT      O19855   0.603   0.294   8.126
 6538WAT     H119856   0.628   0.375   8.180
 6538WAT     H219857   0.686   0.240   8.106
 6539WAT      O19858   1.540   5.859   3.709
 6539WAT     H119859   1.507   5.938   3.656
 6539WAT     H219860   1.480   5.781   3.691
 6540WAT      O19861   7.221   8.197   0.133
 6540WAT     H119862   7.141   8.249   0.162
 6540WAT     H219863   7.234   8.119   0.193
 6541WAT      O19864   3.601   2.937   0.382
 6541WAT     H119865   3.581   2.949   0.479
 6541WAT     H219866   3.550   3.004   0.328
 6542WAT      O19867   3.919   3.624   3.024
 6542WAT     H119868   3.945   3.718   3.049
 6542WAT     H219869   3.987   3.586   2.961
 6543WAT      O19870   3.868   2.295   5.268
 6543WAT     H119871   3.782   2.329   5.307
 6543WAT     H219872   3.858   2.198   5.247
 6544WAT      O19873   7.149   7.227   0.723
 6544WAT     H119874   7.178   7.142   0.767
 6544WAT     H219875   7.075   7.209   0.658
 6545WAT      O19876   6.648   5.460   6.730
 6545WAT     H119877   6.586   5.386   6.702
 6545WAT     H219878   6.681   5.508   6.649
 6546WAT      O19879   6.166   4.884   1.047
 6546WAT     H119880   6.124   4.852   1.132
 6546WAT     H219881   6.256   4.841   1.037
 6547WAT      O19882   5.749   1.265   3.044
 6547WAT     H119883   5.809   1.308   2.976
 6547WAT     H219884   5.774   1.296   3.135
 6548WAT      O19885   0.958   2.194   1.916
 6548WAT     H119886   0.871   2.155   1.946
 6548WAT     H219887   1.001   2.134   1.849
 6549WAT      O19888   1.603   6.531   0.507
 6549WAT     H119889   1.620   6.629   0.508
 6549WAT     H219890   1.678   6.483   0.554
 6550WAT      O19891   7.487   9.046   1.502
 6550WAT     H119892   7.564   9.022   1.444
 6550WAT     H219893   7.514   9.043   1.598
 6551WAT      O19894   4.677   8.773   0.565
 6551WAT     H119895   4.716   8.858   0.601
 6551WAT     H219896   4.668   8.706   0.639
 6552WAT      O19897   2.849   1.824   3.845
 6552WAT     H119898   2.813   1.916   3.864
 6552WAT     H219899   2.914   1.829   3.770
 6553WAT      O19900   1.820   1.784   8.016
 6553WAT     H119901   1.900   1.726   8.004
 6553WAT     H219902   1.746   1.732   8.059
 6554WAT      O19903   1.026   7.206   7.271
 6554WAT     H119904   0.970   7.273   7.222
 6554WAT     H219905   1.122   7.221   7.249
 6555WAT      O19906   0.787   9.588   4.328
 6555WAT     H119907   0.786   9.494   4.292
 6555WAT     H219908   0.693   9.619   4.342
 6556WAT      O19909   7.523   3.460   1.758
 6556WAT     H119910   7.533   3.373   1.709
 6556WAT     H219911   7.539   3.535   1.694
 6557WAT      O19912   0.124   8.811   7.985
 6557WAT     H119913   0.189   8.842   7.916
 6557WAT     H219914   0.031   8.839   7.958
 6558WAT      O19915   1.114   3.383   1.652
 6558WAT     H119916   1.180   3.457   1.652
 6558WAT     H219917   1.139   3.315   1.583
 6559WAT      O19918   3.387   7.843   5.230
 6559WAT     H119919   3.314   7.896   5.187
 6559WAT     H219920   3.396   7.869   5.326
 6560WAT      O19921   4.979   6.702   3.866
 6560WAT     H119922   4.949   6.714   3.771
 6560WAT     H219923   5.002   6.606   3.882
 6561WAT      O19924   1.593   9.641   7.110
 6561WAT     H119925   1.618   9.686   7.024
 6561WAT     H219926   1.513   9.583   7.095
 6562WAT      O19927   9.505   2.611   4.956
 6562WAT     H119928   9.483   2.683   4.890
 6562WAT     H219929   9.578   2.643   5.017
 6563WAT      O19930   3.775   8.836   1.938
 6563WAT     H119931   3.713   8.863   2.012
 6563WAT     H219932   3.739   8.753   1.895
 6564WAT      O19933   5.174   7.777   4.002
 6564WAT     H119934   5.161   7.818   4.092
 6564WAT     H219935   5.173   7.848   3.932
 6565WAT      O19936   4.518   9.102   6.453
 6565WAT     H119937   4.616   9.103   6.436
 6565WAT     H219938   4.492   9.184   6.504
 6566WAT      O19939   6.017   5.432   0.917
 6566WAT     H119940   5.924   5.404   0.893
 6566WAT     H219941   6.064   5.357   0.962
 6567WAT      O19942   0.965   8.657   6.230
 6567WAT     H119943   1.046   8.598   6.225
 6567WAT     H219944   0.939   8.671   6.326
 6568WAT      O19945   8.364   4.987   6.909
 6568WAT     H119946   8.338   4.958   6.817
 6568WAT     H219947   8.442   5.050   6.904
 6569WAT      O19948   6.244   3.159   4.893
 6569WAT     H119949   6.167   3.180   4.953
 6569WAT     H219950   6.232   3.208   4.806
 6570WAT      O19951   3.098   0.962   6.526
 6570WAT     H119952   3.069   1.029   6.458
 6570WAT     H219953   3.109   1.007   6.615
 6571WAT      O19954   1.353   9.320   4.621
 6571WAT     H119955   1.438   9.335   4.570
 6571WAT     H219956   1.288   9.392   4.597
 6572WAT      O19957   6.526   9.065   8.238
 6572WAT     H119958   6.447   9.065   8.177
 6572WAT     H219959   6.536   9.155   8.280
 6573WAT      O19960   5.629   6.709   2.558
 6573WAT     H119961   5.569   6.789   2.561
 6573WAT     H219962   5.627   6.669   2.466
 6574WAT      O19963   4.500   1.032   1.790
 6574WAT     H119964   4.411   0.987   1.780
 6574WAT     H219965   4.487   1.124   1.827
 6575WAT      O19966   5.007   7.717   8.796
 6575WAT     H119967   4.996   7.710   8.895
 6575WAT     H219968   4.947   7.790   8.761
 6576WAT      O19969   0.946   3.414   9.548
 6576WAT     H119970   0.978   3.413   9.454
 6576WAT     H219971   0.977   3.497   9.594
 6577WAT      O19972   3.793   8.927   4.433
 6577WAT     H119973   3.800   8.957   4.528
 6577WAT     H219974   3.847   8.988   4.374
 6578WAT      O19975   7.373   4.398   3.315
 6578WAT     H119976   7.319   4.314   3.319
 6578WAT     H219977   7.322   4.473   3.357
 6579WAT      O19978   4.970   8.323   9.118
 6579WAT     H119979   5.038   8.263   9.158
 6579WAT     H219980   4.938   8.388   9.187
 6580WAT      O19981   3.211   1.387   5.917
 6580WAT     H119982   3.156   1.428   5.845
 6580WAT     H219983   3.244   1.459   5.978
 6581WAT      O19984   2.025   8.031   9.348
 6581WAT     H119985   2.091   8.023   9.273
 6581WAT     H219986   1.951   7.965   9.335
 6582WAT      O19987   4.545   5.062   4.484
 6582WAT     H119988   4.482   4.985   4.472
 6582WAT     H219989   4.507   5.143   4.440
 6583WAT      O19990   9.613   4.919   7.774
 6583WAT     H119991   9.654   5.010   7.782
 6583WAT     H219992   9.685   4.850   7.773
 6584WAT      O19993   9.495   4.654   9.038
 6584WAT     H119994   9.473   4.586   9.108
 6584WAT     H219995   9.427   4.728   9.041
 6585WAT      O19996   7.992   9.566   1.904
 6585WAT     H119997   8.028   9.493   1.963
 6585WAT     H219998   7.916   9.530   1.850
 6586WAT      O19999   1.640   2.143   6.918
 6586WAT     H120000   1.699   2.215   6.955
 6586WAT     H220001   1.656   2.058   6.968
 6587WAT      O20002   1.709   5.166   2.683
 6587WAT     H120003   1.723   5.218   2.598
 6587WAT     H220004   1.681   5.073   2.660
 6588WAT      O20005   0.096   6.893   2.475
 6588WAT     H120006   0.191   6.924   2.474
 6588WAT     H220007   0.035   6.973   2.478
 6589WAT      O20008   3.506   6.407   5.419
 6589WAT     H120009   3.555   6.493   5.437
 6589WAT     H220010   3.536   6.338   5.484
 6590WAT      O20011   7.297   5.302   8.375
 6590WAT     H120012   7.279   5.397   8.398
 6590WAT     H220013   7.237   5.274   8.300
 6591WAT      O20014   6.716   6.448   5.226
 6591WAT     H120015   6.792   6.384   5.213
 6591WAT     H220016   6.746   6.527   5.279
 6592WAT      O20017   1.207   4.654   3.638
 6592WAT     H120018   1.177   4.601   3.559
 6592WAT     H220019   1.274   4.601   3.690
 6593WAT      O20020   1.885   1.196   5.423
 6593WAT     H120021   1.811   1.128   5.421
 6593WAT     H220022   1.944   1.184   5.343
 6594WAT      O20023   8.434   9.032   7.765
 6594WAT     H120024   8.442   8.974   7.846
 6594WAT     H220025   8.495   8.996   7.693
 6595WAT      O20026   1.491   0.997   7.682
 6595WAT     H120027   1.554   1.072   7.660
 6595WAT     H220028   1.544   0.916   7.709
 6596WAT      O20029   6.987   0.815   1.782
 6596WAT     H120030   7.057   0.822   1.711
 6596WAT     H220031   6.931   0.733   1.767
 6597WAT      O20032   7.279   1.370   0.216
 6597WAT     H120033   7.368   1.328   0.235
 6597WAT     H220034   7.291   1.441   0.146
 6598WAT      O20035   1.909   4.643   2.853
 6598WAT     H120036   1.951   4.566   2.805
 6598WAT     H220037   1.820   4.663   2.812
 6599WAT      O20038   7.257   3.266   4.355
 6599WAT     H120039   7.207   3.188   4.317
 6599WAT     H220040   7.319   3.303   4.286
 6600WAT      O20041   0.536   8.184   6.353
 6600WAT     H120042   0.438   8.180   6.372
 6600WAT     H220043   0.552   8.243   6.274
 6601WAT      O20044   6.317   3.680   5.005
 6601WAT     H120045   6.391   3.713   5.063
 6601WAT     H220046   6.284   3.755   4.948
 6602WAT      O20047   3.386   1.122   4.232
 6602WAT     H120048   3.426   1.197   4.178
 6602WAT     H220049   3.335   1.159   4.309
 6603WAT      O20050   4.638   1.112   4.098
 6603WAT     H120051   4.651   1.013   4.090
 6603WAT     H220052   4.682   1.145   4.181
 6604WAT      O20053   6.702   4.452   0.267
 6604WAT     H120054   6.751   4.434   0.352
 6604WAT     H220055   6.631   4.382   0.254
 6605WAT      O20056   7.642   8.081   1.738
 6605WAT     H120057   7.687   8.146   1.677
 6605WAT     H220058   7.639   7.990   1.695
 6606WAT      O20059   5.867   6.160   9.135
 6606WAT     H120060   5.771   6.165   9.107
 6606WAT     H220061   5.877   6.097   9.212
 6607WAT      O20062   6.379   0.828   0.206
 6607WAT     H120063   6.438   0.748   0.223
 6607WAT     H220064   6.290   0.796   0.173
 6608WAT      O20065   5.787   1.260   3.559
 6608WAT     H120066   5.718   1.333   3.560
 6608WAT     H220067   5.798   1.224   3.651
 6609WAT      O20068   7.492   8.612   9.097
 6609WAT     H120069   7.428   8.678   9.136
 6609WAT     H220070   7.449   8.562   9.022
 6610WAT      O20071   5.524   0.219   7.229
 6610WAT     H120072   5.463   0.243   7.305
 6610WAT     H220073   5.606   0.176   7.264
 6611WAT      O20074   6.021   6.562   5.116
 6611WAT     H120075   6.053   6.638   5.060
 6611WAT     H220076   6.050   6.575   5.211
 6612WAT      O20077   0.311   3.498   1.347
 6612WAT     H120078   0.275   3.433   1.281
 6612WAT     H220079   0.239   3.523   1.412
 6613WAT      O20080   1.071   3.354   0.759
 6613WAT     H120081   1.025   3.269   0.733
 6613WAT     H220082   1.152   3.332   0.814
 6614WAT      O20083   4.515   2.580   4.522
 6614WAT     H120084   4.545   2.660   4.574
 6614WAT     H220085   4.531   2.596   4.425
 6615WAT      O20086   1.953   4.779   2.047
 6615WAT     H120087   1.873   4.808   1.993
 6615WAT     H220088   1.948   4.681   2.063
 6616WAT      O20089   2.759   2.785   2.135
 6616WAT     H120090   2.746   2.713   2.202
 6616WAT     H220091   2.741   2.749   2.043
 6617WAT      O20092   9.049   0.449   7.399
 6617WAT     H120093   8.972   0.414   7.346
 6617WAT     H220094   9.134   0.431   7.350
 6618WAT      O20095   0.207   2.511   3.006
 6618WAT     H120096   0.243   2.598   2.972
 6618WAT     H220097   0.148   2.470   2.936
 6619WAT      O20098   4.401   7.019   4.817
 6619WAT     H120099   4.422   7.108   4.857
 6619WAT     H220100   4.363   7.033   4.725
 6620WAT      O20101   3.354   3.014   2.625
 6620WAT     H120102   3.389   2.952   2.695
 6620WAT     H220103   3.275   3.064   2.661
 6621WAT      O20104   4.941   3.905   4.175
 6621WAT     H120105   4.842   3.905   4.189
 6621WAT     H220106   4.987   3.900   4.263
 6622WAT      O20107   3.327   5.688   9.221
 6622WAT     H120108   3.306   5.762   9.158
 6622WAT     H220109   3.357   5.726   9.309
 6623WAT      O20110   8.094   4.160   3.252
 6623WAT     H120111   8.086   4.233   3.183
 6623WAT     H220112   8.158   4.188   3.323
 6624WAT      O20113   1.100   5.480   1.726
 6624WAT     H120114   1.086   5.565   1.777
 6624WAT     H220115   1.090   5.402   1.787
 6625WAT      O20116   5.363   3.155   8.839
 6625WAT     H120117   5.411   3.077   8.799
 6625WAT     H220118   5.306   3.124   8.915
 6626WAT      O20119   9.044   5.402   4.242
 6626WAT     H120120   8.953   5.438   4.262
 6626WAT     H220121   9.101   5.408   4.325
 6627WAT      O20122   1.015   9.807   5.180
 6627WAT     H120123   1.095   9.758   5.214
 6627WAT     H220124   0.984   9.871   5.250
 6628WAT      O20125   2.651   5.698   7.925
 6628WAT     H120126   2.702   5.626   7.876
 6628WAT     H220127   2.608   5.759   7.859
 6629WAT      O20128   1.213   2.218   8.593
 6629WAT     H120129   1.164   2.210   8.679
 6629WAT     H220130   1.257   2.308   8.587
 6630WAT      O20131   4.124   5.594   1.447
 6630WAT     H120132   4.160   5.663   1.385
 6630WAT     H220133   4.200   5.554   1.499
 6631WAT      O20134   6.000   6.408   8.555
 6631WAT     H120135   5.997   6.313   8.587
 6631WAT     H220136   5.908   6.442   8.540
 6632WAT      O20137   1.825   3.501   9.169
 6632WAT     H120138   1.781   3.428   9.222
 6632WAT     H220139   1.808   3.487   9.072
 6633WAT      O20140   7.225   1.589   0.809
 6633WAT     H120141   7.177   1.676   0.799
 6633WAT     H220142   7.305   1.588   0.748
 6634WAT      O20143   0.393   6.594   3.611
 6634WAT     H120144   0.324   6.664   3.596
 6634WAT     H220145   0.414   6.549   3.524
 6635WAT      O20146   8.507   2.607   3.049
 6635WAT     H120147   8.580   2.672   3.028
 6635WAT     H220148   8.418   2.653   3.042
 6636WAT      O20149   3.644   4.785   7.223
 6636WAT     H120150   3.614   4.805   7.316
 6636WAT     H220151   3.609   4.695   7.196
 6637WAT      O20152   7.634   3.562   5.262
 6637WAT     H120153   7.694   3.540   5.185
 6637WAT     H220154   7.689   3.593   5.339
 6638WAT      O20155   8.672   8.493   0.600
 6638WAT     H120156   8.650   8.423   0.667
 6638WAT     H220157   8.684   8.581   0.647
 6639WAT      O20158   7.461   5.097   2.184
 6639WAT     H120159   7.394   5.119   2.113
 6639WAT     H220160   7.469   4.998   2.191
 6640WAT      O20161   8.926   0.690   6.172
 6640WAT     H120162   8.849   0.715   6.113
 6640WAT     H220163   8.897   0.620   6.237
 6641WAT      O20164   2.551   6.748   3.952
 6641WAT     H120165   2.457   6.779   3.964
 6641WAT     H220166   2.562   6.711   3.860
 6642WAT      O20167   0.407   2.742   5.554
 6642WAT     H120168   0.391   2.654   5.600
 6642WAT     H220169   0.355   2.744   5.469
 6643WAT      O20170   2.451   5.263   6.991
 6643WAT     H120171   2.484   5.199   6.922
 6643WAT     H220172   2.453   5.356   6.955
 6644WAT      O20173   5.992   9.599   5.298
 6644WAT     H120174   5.985   9.579   5.200
 6644WAT     H220175   5.966   9.518   5.350
 6645WAT      O20176   7.829   6.010   1.117
 6645WAT     H120177   7.892   5.934   1.100
 6645WAT     H220178   7.838   6.078   1.045
 6646WAT      O20179   3.060   3.142   6.677
 6646WAT     H120180   2.980   3.169   6.623
 6646WAT     H220181   3.043   3.054   6.721
 6647WAT      O20182   5.295   4.429   5.748
 6647WAT     H120183   5.385   4.468   5.728
 6647WAT     H220184   5.289   4.337   5.708
 6648WAT      O20185   0.089   3.871   3.081
 6648WAT     H120186   0.160   3.837   3.021
 6648WAT     H220187   0.130   3.920   3.158
 6649WAT      O20188   4.788   2.545   3.892
 6649WAT     H120189   4.786   2.645   3.885
 6649WAT     H220190   4.815   2.518   3.984
 6650WAT      O20191   3.885   3.077   7.567
 6650WAT     H120192   3.935   3.029   7.640
 6650WAT     H220193   3.950   3.115   7.502
 6651WAT      O20194   1.572   1.306   8.782
 6651WAT     H120195   1.614   1.397   8.779
 6651WAT     H220196   1.630   1.241   8.731
 6652WAT      O20197   2.524   0.882   6.315
 6652WAT     H120198   2.491   0.880   6.409
 6652WAT     H220199   2.446   0.882   6.252
 6653WAT      O20200   6.797   8.378   8.674
 6653WAT     H120201   6.886   8.358   8.715
 6653WAT     H220202   6.725   8.336   8.729
 6654WAT      O20203   6.230   5.118   5.491
 6654WAT     H120204   6.268   5.150   5.578
 6654WAT     H220205   6.130   5.125   5.493
 6655WAT      O20206   5.981   7.011   3.814
 6655WAT     H120207   5.990   6.971   3.723
 6655WAT     H220208   6.013   7.106   3.813
 6656WAT      O20209   9.191   8.849   7.775
 6656WAT     H120210   9.161   8.776   7.837
 6656WAT     H220211   9.232   8.809   7.693
 6657WAT      O20212   3.623   5.207   7.504
 6657WAT     H120213   3.680   5.268   7.558
 6657WAT     H220214   3.527   5.236   7.511
 6658WAT      O20215   3.765   3.299   6.893
 6658WAT     H120216   3.831   3.366   6.858
 6658WAT     H220217   3.811   3.240   6.960
 6659WAT      O20218   4.641   6.188   8.984
 6659WAT     H120219   4.650   6.142   9.072
 6659WAT     H220220   4.640   6.287   8.998
 6660WAT      O20221   6.516   0.417   0.037
 6660WAT     H120222   6.432   0.374   0.070
 6660WAT     H220223   6.586   0.411   0.108
 6661WAT      O20224   4.179   5.978   1.871
 6661WAT     H120225   4.193   5.955   1.774
 6661WAT     H220226   4.221   5.908   1.928
 6662WAT      O20227   0.977   2.319   9.368
 6662WAT     H120228   1.073   2.295   9.385
 6662WAT     H220229   0.953   2.399   9.422
 6663WAT      O20230   6.815   8.406   5.720
 6663WAT     H120231   6.761   8.416   5.635
 6663WAT     H220232   6.898   8.461   5.713
 6664WAT      O20233   7.213   7.561   7.980
 6664WAT     H120234   7.126   7.599   8.011
 6664WAT     H220235   7.201   7.463   7.961
 6665WAT      O20236   7.114   8.748   4.133
 6665WAT     H120237   7.038   8.762   4.196
 6665WAT     H220238   7.181   8.821   4.145
 6666WAT      O20239   1.413   2.747   1.891
 6666WAT     H120240   1.328   2.797   1.875
 6666WAT     H220241   1.393   2.656   1.926
 6667WAT      O20242   0.874   2.037   4.125
 6667WAT     H120243   0.842   1.944   4.107
 6667WAT     H220244   0.799   2.091   4.163
 6668WAT      O20245   9.491   0.423   8.485
 6668WAT     H120246   9.523   0.405   8.392
 6668WAT     H220247   9.498   0.340   8.540
 6669WAT      O20248   5.280   5.005   0.579
 6669WAT     H120249   5.189   4.964   0.587
 6669WAT     H220250   5.335   4.952   0.514
 6670WAT      O20251   7.572   8.948   0.929
 6670WAT     H120252   7.542   9.020   0.867
 6670WAT     H220253   7.501   8.932   0.998
 6671WAT      O20254   8.768   2.446   3.687
 6671WAT     H120255   8.685   2.502   3.683
 6671WAT     H220256   8.745   2.351   3.665
 6672WAT      O20257   4.098   3.292   6.944
 6672WAT     H120258   4.130   3.305   6.850
 6672WAT     H220259   4.074   3.196   6.957
 6673WAT      O20260   6.155   6.220   0.750
 6673WAT     H120261   6.187   6.274   0.828
 6673WAT     H220262   6.090   6.274   0.696
 6674WAT      O20263   1.788   8.548   6.135
 6674WAT     H120264   1.803   8.562   6.038
 6674WAT     H220265   1.694   8.517   6.151
 6675WAT      O20266   5.575   6.061   8.802
 6675WAT     H120267   5.487   6.014   8.801
 6675WAT     H220268   5.598   6.086   8.896
 6676WAT      O20269   6.724   2.698   6.834
 6676WAT     H120270   6.810   2.745   6.818
 6676WAT     H220271   6.707   2.691   6.933
 6677WAT      O20272   2.399   2.353   1.216
 6677WAT     H120273   2.436   2.342   1.308
 6677WAT     H220274   2.299   2.350   1.220
 6678WAT      O20275   6.138   7.132   5.466
 6678WAT     H120276   6.098   7.046   5.433
 6678WAT     H220277   6.078   7.172   5.535
 6679WAT      O20278   1.681   3.594   3.537
 6679WAT     H120279   1.700   3.676   3.484
 6679WAT     H220280   1.756   3.529   3.527
 6680WAT      O20281   5.603   6.360   2.978
 6680WAT     H120282   5.618   6.261   2.981
 6680WAT     H220283   5.631   6.395   2.889
 6681WAT      O20284   2.365   5.556   2.310
 6681WAT     H120285   2.430   5.512   2.248
 6681WAT     H220286   2.272   5.544   2.276
 6682WAT      O20287   8.047   4.692   4.480
 6682WAT     H120288   8.044   4.693   4.380
 6682WAT     H220289   8.017   4.780   4.516
 6683WAT      O20290   5.736   1.477   0.780
 6683WAT     H120291   5.763   1.512   0.870
 6683WAT     H220292   5.733   1.377   0.783
 6684WAT      O20293   1.208   8.305   5.856
 6684WAT     H120294   1.122   8.273   5.894
 6684WAT     H220295   1.224   8.400   5.884
 6685WAT      O20296   6.902   8.586   8.231
 6685WAT     H120297   6.952   8.522   8.173
 6685WAT     H220298   6.888   8.545   8.321
 6686WAT      O20299   7.696   6.394   7.109
 6686WAT     H120300   7.722   6.469   7.049
 6686WAT     H220301   7.600   6.405   7.136
 6687WAT      O20302   7.704   9.325   7.460
 6687WAT     H120303   7.734   9.294   7.369
 6687WAT     H220304   7.605   9.315   7.467
 6688WAT      O20305   4.946   8.973   7.923
 6688WAT     H120306   5.011   8.974   7.999
 6688WAT     H220307   4.915   8.879   7.907
 6689WAT      O20308   9.148   3.279   6.053
 6689WAT     H120309   9.225   3.335   6.081
 6689WAT     H220310   9.126   3.297   5.957
 6690WAT      O20311   1.858   2.529   7.002
 6690WAT     H120312   1.880   2.441   7.043
 6690WAT     H220313   1.913   2.600   7.046
 6691WAT      O20314   5.364   6.590   5.269
 6691WAT     H120315   5.367   6.506   5.216
 6691WAT     H220316   5.399   6.666   5.213
 6692WAT      O20317   6.720   3.040   1.370
 6692WAT     H120318   6.683   3.131   1.392
 6692WAT     H220319   6.747   3.038   1.273
 6693WAT      O20320   2.181   3.632   5.547
 6693WAT     H120321   2.107   3.656   5.485
 6693WAT     H220322   2.259   3.692   5.530
 6694WAT      O20323   5.280   5.444   2.546
 6694WAT     H120324   5.287   5.428   2.448
 6694WAT     H220325   5.294   5.358   2.595
 6695WAT      O20326   5.545   1.773   9.615
 6695WAT     H120327   5.628   1.719   9.602
 6695WAT     H220328   5.496   1.738   9.695
 6696WAT      O20329   3.353   5.912   3.927
 6696WAT     H120330   3.313   5.835   3.977
 6696WAT     H220331   3.425   5.954   3.983
 6697WAT      O20332   0.680   0.155   6.222
 6697WAT     H120333   0.779   0.142   6.229
 6697WAT     H220334   0.635   0.066   6.218
 6698WAT      O20335   0.282   6.781   6.814
 6698WAT     H120336   0.378   6.759   6.796
 6698WAT     H220337   0.241   6.824   6.734
 6699WAT      O20338   3.026   5.362   5.039
 6699WAT     H120339   3.002   5.406   4.952
 6699WAT     H220340   2.979   5.409   5.114
 6700WAT      O20341   6.716   7.587   2.925
 6700WAT     H120342   6.706   7.581   3.025
 6700WAT     H220343   6.718   7.494   2.887
 6701WAT      O20344   7.211   4.458   6.350
 6701WAT     H120345   7.116   4.482   6.368
 6701WAT     H220346   7.215   4.365   6.313
 6702WAT      O20347   8.556   9.564   1.816
 6702WAT     H120348   8.594   9.474   1.794
 6702WAT     H220349   8.533   9.569   1.913
 6703WAT      O20350   9.641   8.489   5.206
 6703WAT     H120351   9.584   8.413   5.238
 6703WAT     H220352   9.600   8.528   5.123
 6704WAT      O20353   7.315   1.776   7.129
 6704WAT     H120354   7.397   1.805   7.080
 6704WAT     H220355   7.270   1.855   7.170
 6705WAT      O20356   6.516   7.936   8.106
 6705WAT     H120357   6.488   7.913   8.199
 6705WAT     H220358   6.605   7.983   8.109
 6706WAT      O20359   0.842   7.054   8.436
 6706WAT     H120360   0.765   6.993   8.418
 6706WAT     H220361   0.887   7.026   8.521
 6707WAT      O20362   5.630   7.816   3.104
 6707WAT     H120363   5.606   7.744   3.040
 6707WAT     H220364   5.581   7.900   3.079
 6708WAT      O20365   4.296   6.562   3.962
 6708WAT     H120366   4.197   6.557   3.969
 6708WAT     H220367   4.336   6.477   3.995
 6709WAT      O20368   0.077   7.675   3.741
 6709WAT     H120369   0.114   7.602   3.683
 6709WAT     H220370   0.047   7.751   3.683
 6710WAT      O20371   5.905   3.203   4.649
 6710WAT     H120372   5.829   3.267   4.638
 6710WAT     H220373   5.991   3.249   4.630
 6711WAT      O20374   6.455   4.544   8.201
 6711WAT     H120375   6.521   4.589   8.140
 6711WAT     H220376   6.412   4.467   8.153
 6712WAT      O20377   6.687   9.641   8.167
 6712WAT     H120378   6.650   9.719   8.217
 6712WAT     H220379   6.765   9.603   8.215
 6713WAT      O20380   8.609   8.355   5.976
 6713WAT     H120381   8.709   8.355   5.972
 6713WAT     H220382   8.580   8.329   6.068
 6714WAT      O20383   1.200   0.371   2.154
 6714WAT     H120384   1.107   0.344   2.179
 6714WAT     H220385   1.265   0.319   2.210
 6715WAT      O20386   1.127   1.191   3.748
 6715WAT     H120387   1.166   1.108   3.788
 6715WAT     H220388   1.059   1.166   3.679
 6716WAT      O20389   6.230   1.904   2.790
 6716WAT     H120390   6.157   1.840   2.814
 6716WAT     H220391   6.260   1.886   2.696
 6717WAT      O20392   2.312   4.427   8.110
 6717WAT     H120393   2.266   4.497   8.164
 6717WAT     H220394   2.401   4.462   8.079
 6718WAT      O20395   6.806   7.062   0.895
 6718WAT     H120396   6.736   7.120   0.853
 6718WAT     H220397   6.869   7.120   0.948
 6719WAT      O20398   9.418   8.060   6.037
 6719WAT     H120399   9.375   8.087   6.124
 6719WAT     H220400   9.495   8.000   6.055
 6720WAT      O20401   2.757   5.651   9.785
 6720WAT     H120402   2.731   5.623   9.878
 6720WAT     H220403   2.851   5.621   9.767
 6721WAT      O20404   2.825   5.081   4.943
 6721WAT     H120405   2.920   5.104   4.923
 6721WAT     H220406   2.785   5.153   5.000
 6722WAT      O20407   6.943   3.049   3.748
 6722WAT     H120408   6.864   3.015   3.800
 6722WAT     H220409   7.015   2.980   3.748
 6723WAT      O20410   8.304   5.351   0.110
 6723WAT     H120411   8.241   5.275   0.124
 6723WAT     H220412   8.398   5.318   0.112
 6724WAT      O20413   9.103   5.876   2.237
 6724WAT     H120414   9.143   5.812   2.170
 6724WAT     H220415   9.170   5.946   2.260
 6725WAT      O20416   6.893   1.038   6.695
 6725WAT     H120417   6.951   1.089   6.631
 6725WAT     H220418   6.945   1.019   6.778
 6726WAT      O20419   9.584   3.405   9.461
 6726WAT     H120420   9.643   3.325   9.474
 6726WAT     H220421   9.611   3.452   9.377
 6727WAT      O20422   3.600   4.832   0.772
 6727WAT     H120423   3.650   4.879   0.700
 6727WAT     H220424   3.502   4.851   0.763
 6728WAT      O20425   5.032   2.952   1.790
 6728WAT     H120426   5.055   3.041   1.751
 6728WAT     H220427   5.016   2.961   1.888
 6729WAT      O20428   7.207   0.089   9.369
 6729WAT     H120429   7.120   0.134   9.351
 6729WAT     H220430   7.253   0.135   9.445
 6730WAT      O20431   6.385   2.970   6.275
 6730WAT     H120432   6.339   2.884   6.255
 6730WAT     H220433   6.483   2.960   6.260
 6731WAT      O20434   9.099   9.645   5.883
 6731WAT     H120435   9.011   9.693   5.883
 6731WAT     H220436   9.102   9.582   5.805
 6732WAT      O20437   0.518   2.832   9.240
 6732WAT     H120438   0.473   2.839   9.329
 6732WAT     H220439   0.458   2.784   9.176
 6733WAT      O20440   3.284   5.364   2.169
 6733WAT     H120441   3.373   5.376   2.213
 6733WAT     H220442   3.214   5.348   2.239
 6734WAT      O20443   6.065   9.136   5.740
 6734WAT     H120444   6.099   9.062   5.798
 6734WAT     H220445   6.141   9.195   5.713
 6735WAT      O20446   6.626   4.073   4.672
 6735WAT     H120447   6.719   4.038   4.659
 6735WAT     H220448   6.630   4.161   4.720
 6736WAT      O20449   9.409   2.677   8.065
 6736WAT     H120450   9.363   2.715   7.985
 6736WAT     H220451   9.499   2.643   8.038
 6737WAT      O20452   7.778   4.588   0.568
 6737WAT     H120453   7.765   4.673   0.620
 6737WAT     H220454   7.860   4.541   0.602
 6738WAT      O20455   3.214   1.101   0.583
 6738WAT     H120456   3.307   1.092   0.548
 6738WAT     H220457   3.185   1.197   0.577
 6739WAT      O20458   9.106   0.552   3.920
 6739WAT     H120459   9.179   0.527   3.983
 6739WAT     H220460   9.115   0.648   3.895
 6740WAT      O20461   9.770   2.790   0.765
 6740WAT     H120462   9.844   2.765   0.827
 6740WAT     H220463   9.806   2.844   0.690
 6741WAT      O20464   5.653   0.585   1.449
 6741WAT     H120465   5.663   0.538   1.537
 6741WAT     H220466   5.734   0.569   1.393
 6742WAT      O20467   2.375   7.983   6.779
 6742WAT     H120468   2.457   7.928   6.769
 6742WAT     H220469   2.393   8.060   6.840
 6743WAT      O20470   7.423   1.090   8.278
 6743WAT     H120471   7.458   1.115   8.368
 6743WAT     H220472   7.487   1.123   8.208
 6744WAT      O20473   0.992   2.672   5.150
 6744WAT     H120474   0.990   2.772   5.149
 6744WAT     H220475   1.085   2.640   5.164
 6745WAT      O20476   4.168   4.303   3.756
 6745WAT     H120477   4.147   4.325   3.660
 6745WAT     H220478   4.125   4.216   3.780
 6746WAT      O20479   5.790   4.251   5.132
 6746WAT     H120480   5.692   4.246   5.116
 6746WAT     H220481   5.839   4.221   5.050
 6747WAT      O20482   4.990   8.757   5.702
 6747WAT     H120483   5.057   8.815   5.748
 6747WAT     H220484   5.009   8.755   5.604
 6748WAT      O20485   9.879   9.243   2.077
 6748WAT     H120486   9.809   9.311   2.056
 6748WAT     H220487   9.850   9.154   2.041
 6749WAT      O20488   4.874   8.319   9.503
 6749WAT     H120489   4.881   8.323   9.403
 6749WAT     H220490   4.878   8.412   9.540
 6750WAT      O20491   4.945   1.872   6.231
 6750WAT     H120492   4.910   1.820   6.310
 6750WAT     H220493   4.996   1.951   6.264
 6751WAT      O20494   4.432   2.426   8.414
 6751WAT     H120495   4.475   2.336   8.411
 6751WAT     H220496   4.352   2.423   8.475
 6752WAT      O20497   9.411   1.829   5.744
 6752WAT     H120498   9.446   1.845   5.652
 6752WAT     H220499   9.395   1.916   5.790
 6753WAT      O20500   3.950   0.811   8.291
 6753WAT     H120501   3.934   0.902   8.253
 6753WAT     H220502   4.049   0.796   8.300
 6754WAT      O20503   1.908   1.130   0.380
 6754WAT     H120504   1.985   1.068   0.370
 6754WAT     H220505   1.845   1.117   0.303
 6755WAT      O20506   3.522   9.439   8.556
 6755WAT     H120507   3.441   9.433   8.614
 6755WAT     H220508   3.536   9.534   8.528
 6756WAT      O20509   5.887   6.388   1.547
 6756WAT     H120510   5.882   6.343   1.458
 6756WAT     H220511   5.802   6.371   1.598
 6757WAT      O20512   9.841   8.684   4.379
 6757WAT     H120513   9.919   8.656   4.323
 6757WAT     H220514   9.777   8.735   4.323
 6758WAT      O20515   2.524   7.110   7.140
 6758WAT     H120516   2.425   7.124   7.147
 6758WAT     H220517   2.542   7.034   7.076
 6759WAT      O20518   6.487   9.212   8.549
 6759WAT     H120519   6.525   9.259   8.469
 6759WAT     H220520   6.399   9.253   8.573
 6760WAT      O20521   8.300   2.526   4.692
 6760WAT     H120522   8.361   2.582   4.636
 6760WAT     H220523   8.355   2.469   4.754
 6761WAT      O20524   4.845   8.040   8.141
 6761WAT     H120525   4.834   7.959   8.082
 6761WAT     H220526   4.935   8.080   8.125
 6762WAT      O20527   3.670   1.733   0.756
 6762WAT     H120528   3.697   1.814   0.704
 6762WAT     H220529   3.751   1.683   0.785
 6763WAT      O20530   6.396   9.179   7.291
 6763WAT     H120531   6.354   9.258   7.247
 6763WAT     H220532   6.495   9.186   7.286
 6764WAT      O20533   6.586   3.896   5.084
 6764WAT     H120534   6.673   3.944   5.095
 6764WAT     H220535   6.512   3.963   5.073
 6765WAT      O20536   4.907   2.493   6.285
 6765WAT     H120537   4.945   2.447   6.204
 6765WAT     H220538   4.807   2.499   6.276
 6766WAT      O20539   8.804   4.071   4.203
 6766WAT     H120540   8.732   4.023   4.153
 6766WAT     H220541   8.855   4.130   4.141
 6767WAT      O20542   6.551   1.990   1.573
 6767WAT     H120543   6.514   1.958   1.660
 6767WAT     H220544   6.641   2.030   1.588
 6768WAT      O20545   2.352   1.034   9.442
 6768WAT     H120546   2.285   1.045   9.515
 6768WAT     H220547   2.307   1.039   9.353
 6769WAT      O20548   1.312   0.651   1.548
 6769WAT     H120549   1.264   0.708   1.614
 6769WAT     H220550   1.390   0.701   1.511
 6770WAT      O20551   6.972   3.442   5.914
 6770WAT     H120552   7.026   3.367   5.951
 6770WAT     H220553   7.030   3.496   5.852
 6771WAT      O20554   8.241   4.887   2.930
 6771WAT     H120555   8.179   4.869   3.006
 6771WAT     H220556   8.306   4.812   2.921
 6772WAT      O20557   3.613   1.608   9.204
 6772WAT     H120558   3.630   1.686   9.264
 6772WAT     H220559   3.678   1.536   9.225
 6773WAT      O20560   4.917   3.245   8.560
 6773WAT     H120561   5.001   3.286   8.596
 6773WAT     H220562   4.840   3.305   8.578
 6774WAT      O20563   2.080   8.336   4.413
 6774WAT     H120564   2.129   8.375   4.491
 6774WAT     H220565   2.126   8.364   4.328
 6775WAT      O20566   3.853   5.792   6.454
 6775WAT     H120567   3.937   5.814   6.404
 6775WAT     H220568   3.875   5.776   6.550
 6776WAT      O20569   2.897   5.700   2.797
 6776WAT     H120570   2.976   5.701   2.736
 6776WAT     H220571   2.813   5.716   2.745
 6777WAT      O20572   8.948   6.858   9.622
 6777WAT     H120573   9.044   6.884   9.624
 6777WAT     H220574   8.915   6.859   9.527
 6778WAT      O20575   5.945   1.463   8.037
 6778WAT     H120576   6.016   1.397   8.011
 6778WAT     H220577   5.953   1.482   8.135
 6779WAT      O20578   0.028   7.599   0.604
 6779WAT     H120579   0.121   7.615   0.637
 6779WAT     H220580   0.023   7.511   0.557
 6780WAT      O20581   8.540   7.367   4.804
 6780WAT     H120582   8.458   7.422   4.793
 6780WAT     H220583   8.523   7.274   4.771
 6781WAT      O20584   1.258   5.594   3.133
 6781WAT     H120585   1.294   5.665   3.072
 6781WAT     H220586   1.160   5.605   3.143
 6782WAT      O20587   4.516   3.685   5.437
 6782WAT     H120588   4.549   3.764   5.488
 6782WAT     H220589   4.421   3.667   5.461
 6783WAT      O20590   8.913   2.512   2.078
 6783WAT     H120591   8.890   2.580   2.008
 6783WAT     H220592   8.997   2.539   2.123
 6784WAT      O20593   3.162   7.383   3.172
 6784WAT     H120594   3.225   7.313   3.207
 6784WAT     H220595   3.150   7.369   3.074
 6785WAT      O20596   3.218   6.533   3.956
 6785WAT     H120597   3.295   6.482   3.995
 6785WAT     H220598   3.157   6.562   4.030
 6786WAT      O20599   6.818   1.952   8.962
 6786WAT     H120600   6.916   1.941   8.948
 6786WAT     H220601   6.802   2.006   9.046
 6787WAT      O20602   6.230   5.718   7.091
 6787WAT     H120603   6.183   5.634   7.117
 6787WAT     H220604   6.325   5.714   7.121
 6788WAT      O20605   5.885   1.907   7.456
 6788WAT     H120606   5.881   1.905   7.357
 6788WAT     H220607   5.979   1.929   7.485
 6789WAT      O20608   0.830   5.739   1.545
 6789WAT     H120609   0.785   5.771   1.462
 6789WAT     H220610   0.785   5.656   1.577
 6790WAT      O20611   1.958   4.730   1.610
 6790WAT     H120612   2.024   4.732   1.685
 6790WAT     H220613   2.000   4.686   1.530
 6791WAT      O20614   0.342   6.675   7.864
 6791WAT     H120615   0.442   6.679   7.865
 6791WAT     H220616   0.311   6.653   7.771
 6792WAT      O20617   4.362   2.726   6.758
 6792WAT     H120618   4.402   2.673   6.683
 6792WAT     H220619   4.365   2.823   6.734
 6793WAT      O20620   9.577   9.563   9.451
 6793WAT     H120621   9.634   9.516   9.384
 6793WAT     H220622   9.503   9.611   9.404
 6794WAT      O20623   1.489   9.815   3.717
 6794WAT     H120624   1.411   9.803   3.779
 6794WAT     H220625   1.503   9.732   3.664
 6795WAT      O20626   7.432   2.006   9.381
 6795WAT     H120627   7.402   2.051   9.465
 6795WAT     H220628   7.458   1.912   9.401
 6796WAT      O20629   4.807   5.539   1.591
 6796WAT     H120630   4.715   5.554   1.554
 6796WAT     H220631   4.875   5.568   1.524
 6797WAT      O20632   0.112   3.011   9.319
 6797WAT     H120633   0.207   2.992   9.295
 6797WAT     H220634   0.061   3.035   9.236
 6798WAT      O20635   3.241   3.137   7.793
 6798WAT     H120636   3.333   3.112   7.821
 6798WAT     H220637   3.243   3.176   7.701
 6799WAT      O20638   1.910   3.560   1.537
 6799WAT     H120639   2.009   3.566   1.532
 6799WAT     H220640   1.870   3.588   1.450
 6800WAT      O20641   0.898   0.383   0.424
 6800WAT     H120642   0.902   0.310   0.492
 6800WAT     H220643   0.815   0.374   0.370
 6801WAT      O20644   8.372   6.865   4.514
 6801WAT     H120645   8.302   6.852   4.443
 6801WAT     H220646   8.452   6.909   4.475
 6802WAT      O20647   6.867   0.176   6.560
 6802WAT     H120648   6.829   0.088   6.531
 6802WAT     H220649   6.852   0.244   6.488
 6803WAT      O20650   3.090   0.197   3.104
 6803WAT     H120651   3.149   0.141   3.046
 6803WAT     H220652   3.122   0.292   3.104
 6804WAT      O20653   1.682   7.300   4.694
 6804WAT     H120654   1.764   7.250   4.667
 6804WAT     H220655   1.688   7.325   4.791
 6805WAT      O20656   9.141   7.891   5.205
 6805WAT     H120657   9.086   7.839   5.271
 6805WAT     H220658   9.122   7.989   5.215
 6806WAT      O20659   2.499   1.932   7.461
 6806WAT     H120660   2.489   2.021   7.505
 6806WAT     H220661   2.593   1.921   7.430
 6807WAT      O20662   5.661   8.775   8.661
 6807WAT     H120663   5.629   8.867   8.684
 6807WAT     H220664   5.753   8.761   8.697
 6808WAT      O20665   4.621   0.804   4.248
 6808WAT     H120666   4.606   0.740   4.172
 6808WAT     H220667   4.548   0.872   4.248
 6809WAT      O20668   9.066   6.268   7.751
 6809WAT     H120669   9.134   6.328   7.708
 6809WAT     H220670   9.045   6.302   7.843
 6810WAT      O20671   6.162   2.410   6.273
 6810WAT     H120672   6.130   2.478   6.206
 6810WAT     H220673   6.085   2.353   6.302
 6811WAT      O20674   4.789   2.379   5.906
 6811WAT     H120675   4.724   2.384   5.981
 6811WAT     H220676   4.794   2.468   5.861
 6812WAT      O20677   9.116   8.320   2.524
 6812WAT     H120678   9.122   8.235   2.471
 6812WAT     H220679   9.068   8.389   2.470
 6813WAT      O20680   2.836   4.691   0.304
 6813WAT     H120681   2.835   4.686   0.404
 6813WAT     H220682   2.884   4.612   0.267
 6814WAT      O20683   5.850   8.578   0.045
 6814WAT     H120684   5.948   8.564   0.029
 6814WAT     H220685   5.804   8.490   0.053
 6815WAT      O20686   7.796   2.442   7.043
 6815WAT     H120687   7.842   2.500   6.975
 6815WAT     H220688   7.836   2.350   7.040
 6816WAT      O20689   7.779   7.926   4.209
 6816WAT     H120690   7.772   7.922   4.309
 6816WAT     H220691   7.688   7.920   4.169
 6817WAT      O20692   5.999   4.910   0.158
 6817WAT     H120693   6.031   4.850   0.231
 6817WAT     H220694   5.936   4.859   0.098
 6818WAT      O20695   8.837   3.164   0.599
 6818WAT     H120696   8.767   3.159   0.670
 6818WAT     H220697   8.795   3.155   0.509
 6819WAT      O20698   9.827   0.675   7.175
 6819WAT     H120699   9.758   0.606   7.155
 6819WAT     H220700   9.795   0.733   7.250
 6820WAT      O20701   9.022   4.996   5.534
 6820WAT     H120702   8.981   4.984   5.443
 6820WAT     H220703   9.037   5.093   5.551
 6821WAT      O20704   2.450   7.519   0.045
 6821WAT     H120705   2.434   7.536   0.143
 6821WAT     H220706   2.456   7.421   0.029
 6822WAT      O20707   6.005   7.801   5.096
 6822WAT     H120708   5.924   7.853   5.071
 6822WAT     H220709   6.087   7.858   5.084
 6823WAT      O20710   9.572   6.235   8.624
 6823WAT     H120711   9.525   6.161   8.576
 6823WAT     H220712   9.506   6.303   8.654
 6824WAT      O20713   5.435   0.835   2.670
 6824WAT     H120714   5.359   0.770   2.670
 6824WAT     H220715   5.445   0.874   2.762
 6825WAT      O20716   6.727   6.636   9.756
 6825WAT     H120717   6.777   6.720   9.777
 6825WAT     H220718   6.631   6.658   9.741
 6826WAT      O20719   3.196   2.688   2.466
 6826WAT     H120720   3.262   2.614   2.456
 6826WAT     H220721   3.119   2.672   2.403
 6827WAT      O20722   7.237   4.968   4.218
 6827WAT     H120723   7.197   4.949   4.307
 6827WAT     H220724   7.254   4.881   4.171
 6828WAT      O20725   5.961   3.982   1.161
 6828WAT     H120726   6.033   3.929   1.116
 6828WAT     H220727   5.995   4.015   1.249
 6829WAT      O20728   1.805   5.434   9.179
 6829WAT     H120729   1.715   5.459   9.212
 6829WAT     H220730   1.801   5.418   9.080
 6830WAT      O20731   5.600   8.724   0.250
 6830WAT     H120732   5.594   8.678   0.338
 6830WAT     H220733   5.691   8.764   0.239
 6831WAT      O20734   9.081   3.070   4.095
 6831WAT     H120735   9.121   3.110   4.012
 6831WAT     H220736   8.989   3.109   4.109
 6832WAT      O20737   2.492   9.762   6.600
 6832WAT     H120738   2.488   9.728   6.506
 6832WAT     H220739   2.586   9.757   6.634
 6833WAT      O20740   8.135   9.669   3.445
 6833WAT     H120741   8.184   9.651   3.530
 6833WAT     H220742   8.071   9.594   3.426
 6834WAT      O20743   5.534   8.353   7.325
 6834WAT     H120744   5.455   8.353   7.263
 6834WAT     H220745   5.502   8.364   7.419
 6835WAT      O20746   3.878   2.112   7.921
 6835WAT     H120747   3.841   2.037   7.866
 6835WAT     H220748   3.806   2.148   7.981
 6836WAT      O20749   6.341   5.715   7.404
 6836WAT     H120750   6.408   5.694   7.334
 6836WAT     H220751   6.376   5.787   7.463
 6837WAT      O20752   6.797   7.379   7.621
 6837WAT     H120753   6.861   7.439   7.574
 6837WAT     H220754   6.847   7.311   7.675
 6838WAT      O20755   6.167   7.391   1.234
 6838WAT     H120756   6.120   7.306   1.257
 6838WAT     H220757   6.109   7.447   1.176
 6839WAT      O20758   0.437   8.518   9.348
 6839WAT     H120759   0.522   8.557   9.312
 6839WAT     H220760   0.359   8.566   9.309
 6840WAT      O20761   8.036   0.623   2.091
 6840WAT     H120762   7.962   0.578   2.139
 6840WAT     H220763   7.999   0.697   2.034
 6841WAT      O20764   3.404   0.180   4.436
 6841WAT     H120765   3.369   0.122   4.362
 6841WAT     H220766   3.444   0.263   4.397
 6842WAT      O20767   5.005   2.074   0.811
 6842WAT     H120768   4.936   2.082   0.740
 6842WAT     H220769   5.084   2.025   0.776
 6843WAT      O20770   1.422   4.900   6.837
 6843WAT     H120771   1.479   4.980   6.858
 6843WAT     H220772   1.326   4.925   6.843
 6844WAT      O20773   4.304   0.185   8.378
 6844WAT     H120774   4.364   0.120   8.329
 6844WAT     H220775   4.212   0.180   8.339
 6845WAT      O20776   0.276   3.404   5.695
 6845WAT     H120777   0.211   3.432   5.765
 6845WAT     H220778   0.365   3.386   5.738
 6846WAT      O20779   1.734   4.422   0.565
 6846WAT     H120780   1.769   4.495   0.622
 6846WAT     H220781   1.783   4.337   0.585
 6847WAT      O20782   0.702   0.776   1.034
 6847WAT     H120783   0.698   0.788   1.134
 6847WAT     H220784   0.651   0.850   0.990
 6848WAT      O20785   8.154   6.313   7.729
 6848WAT     H120786   8.098   6.388   7.765
 6848WAT     H220787   8.246   6.347   7.709
 6849WAT      O20788   8.683   2.996   1.221
 6849WAT     H120789   8.594   3.042   1.218
 6849WAT     H220790   8.727   3.003   1.131
 6850WAT      O20791   4.664   1.937   3.229
 6850WAT     H120792   4.760   1.908   3.235
 6850WAT     H220793   4.631   1.925   3.135
 6851WAT      O20794   8.586   4.841   6.492
 6851WAT     H120795   8.685   4.853   6.482
 6851WAT     H220796   8.539   4.906   6.433
 6852WAT      O20797   3.034   4.972   7.376
 6852WAT     H120798   3.007   5.056   7.422
 6852WAT     H220799   2.983   4.895   7.415
 6853WAT      O20800   2.033   6.899   5.065
 6853WAT     H120801   2.049   6.879   5.161
 6853WAT     H220802   2.042   6.997   5.048
 6854WAT      O20803   0.087   4.521   2.741
 6854WAT     H120804   0.097   4.473   2.653
 6854WAT     H220805   0.094   4.620   2.726
 6855WAT      O20806   8.248   5.200   9.101
 6855WAT     H120807   8.209   5.290   9.081
 6855WAT     H220808   8.175   5.138   9.131
 6856WAT      O20809   0.367   8.880   9.481
 6856WAT     H120810   0.450   8.825   9.473
 6856WAT     H220811   0.389   8.966   9.528
 6857WAT      O20812   0.358   5.264   4.032
 6857WAT     H120813   0.326   5.353   4.064
 6857WAT     H220814   0.367   5.267   3.932
 6858WAT      O20815   0.646   7.683   1.818
 6858WAT     H120816   0.667   7.653   1.910
 6858WAT     H220817   0.588   7.764   1.822
 6859WAT      O20818   6.480   5.470   1.591
 6859WAT     H120819   6.508   5.377   1.569
 6859WAT     H220820   6.547   5.535   1.556
 6860WAT      O20821   0.948   0.326   7.827
 6860WAT     H120822   1.032   0.379   7.814
 6860WAT     H220823   0.878   0.385   7.867
 6861WAT      O20824   5.638   2.574   1.067
 6861WAT     H120825   5.618   2.629   0.987
 6861WAT     H220826   5.561   2.514   1.087
 6862WAT      O20827   3.690   1.856   9.361
 6862WAT     H120828   3.761   1.918   9.396
 6862WAT     H220829   3.602   1.882   9.401
 6863WAT      O20830   5.117   7.178   5.824
 6863WAT     H120831   5.114   7.107   5.754
 6863WAT     H220832   5.024   7.200   5.853
 6864WAT      O20833   9.635   7.726   4.354
 6864WAT     H120834   9.563   7.796   4.354
 6864WAT     H220835   9.688   7.734   4.438
 6865WAT      O20836   3.840   9.514   2.791
 6865WAT     H120837   3.790   9.496   2.876
 6865WAT     H220838   3.785   9.573   2.732
 6866WAT      O20839   4.038   1.391   5.065
 6866WAT     H120840   4.091   1.466   5.106
 6866WAT     H220841   4.025   1.409   4.967
 6867WAT      O20842   2.193   0.230   8.699
 6867WAT     H120843   2.228   0.164   8.632
 6867WAT     H220844   2.117   0.281   8.659
 6868WAT      O20845   7.559   0.801   4.975
 6868WAT     H120846   7.561   0.886   4.924
 6868WAT     H220847   7.481   0.801   5.037
 6869WAT      O20848   2.044   9.587   6.117
 6869WAT     H120849   2.114   9.650   6.152
 6869WAT     H220850   1.954   9.624   6.138
 6870WAT      O20851   9.611   5.716   7.145
 6870WAT     H120852   9.674   5.644   7.173
 6870WAT     H220853   9.576   5.764   7.226
 6871WAT      O20854   1.988   1.030   1.468
 6871WAT     H120855   1.963   0.940   1.431
 6871WAT     H220856   2.026   1.019   1.560
 6872WAT      O20857   3.820   7.135   7.831
 6872WAT     H120858   3.874   7.082   7.766
 6872WAT     H220859   3.738   7.083   7.856
 6873WAT      O20860   9.454   2.684   9.296
 6873WAT     H120861   9.551   2.698   9.278
 6873WAT     H220862   9.429   2.590   9.273
 6874WAT      O20863   1.337   4.215   6.299
 6874WAT     H120864   1.418   4.198   6.243
 6874WAT     H220865   1.344   4.306   6.340
 6875WAT      O20866   7.881   1.797   3.300
 6875WAT     H120867   7.806   1.756   3.249
 6875WAT     H220868   7.964   1.743   3.287
 6876WAT      O20869   9.005   1.464   8.708
 6876WAT     H120870   8.986   1.562   8.696
 6876WAT     H220871   9.045   1.448   8.798
 6877WAT      O20872   4.050   8.792   5.154
 6877WAT     H120873   3.979   8.813   5.088
 6877WAT     H220874   4.090   8.877   5.188
 6878WAT      O20875   9.728   4.012   1.282
 6878WAT     H120876   9.826   4.022   1.294
 6878WAT     H220877   9.699   4.064   1.202
 6879WAT      O20878   2.328   1.624   2.242
 6879WAT     H120879   2.312   1.656   2.149
 6879WAT     H220880   2.252   1.651   2.301
 6880WAT      O20881   9.257   5.762   5.724
 6880WAT     H120882   9.333   5.697   5.716
 6880WAT     H220883   9.282   5.848   5.681
 6881WAT      O20884   7.971   9.791   9.733
 6881WAT     H120885   7.950   9.697   9.704
 6881WAT     H220886   8.067   9.810   9.717
 6882WAT      O20887   2.110   8.884   6.919
 6882WAT     H120888   2.139   8.882   6.823
 6882WAT     H220889   2.126   8.975   6.957
 6883WAT      O20890   7.435   8.240   3.705
 6883WAT     H120891   7.358   8.301   3.687
 6883WAT     H220892   7.431   8.163   3.641
 6884WAT      O20893   1.427   4.361   1.284
 6884WAT     H120894   1.442   4.267   1.317
 6884WAT     H220895   1.334   4.389   1.305
 6885WAT      O20896   3.555   9.700   8.493
 6885WAT     H120897   3.476   9.751   8.458
 6885WAT     H220898   3.576   9.731   8.585
 6886WAT      O20899   6.043   1.177   0.189
 6886WAT     H120900   5.955   1.208   0.154
 6886WAT     H220901   6.037   1.168   0.289
 6887WAT      O20902   4.583   1.949   2.968
 6887WAT     H120903   4.497   1.991   2.938
 6887WAT     H220904   4.592   1.858   2.927
 6888WAT      O20905   4.302   2.047   0.191
 6888WAT     H120906   4.304   1.955   0.231
 6888WAT     H220907   4.290   2.114   0.264
 6889WAT      O20908   1.011   2.006   5.172
 6889WAT     H120909   0.998   1.967   5.263
 6889WAT     H220910   0.959   2.092   5.165
 6890WAT      O20911   8.959   2.152   4.596
 6890WAT     H120912   8.986   2.155   4.500
 6890WAT     H220913   9.026   2.200   4.652
 6891WAT      O20914   1.528   1.622   3.869
 6891WAT     H120915   1.569   1.708   3.841
 6891WAT     H220916   1.446   1.640   3.924
 6892WAT      O20917   5.875   2.740   1.341
 6892WAT     H120918   5.823   2.774   1.420
 6892WAT     H220919   5.962   2.789   1.335
 6893WAT      O20920   7.676   3.630   7.968
 6893WAT     H120921   7.730   3.632   8.052
 6893WAT     H220922   7.648   3.723   7.944
 6894WAT      O20923   7.616   2.541   5.819
 6894WAT     H120924   7.601   2.465   5.756
 6894WAT     H220925   7.596   2.628   5.773
 6895WAT      O20926   4.743   6.441   9.680
 6895WAT     H120927   4.663   6.444   9.620
 6895WAT     H220928   4.827   6.446   9.625
 6896WAT      O20929   8.934   9.082   2.495
 6896WAT     H120930   8.943   9.085   2.594
 6896WAT     H220931   9.014   9.036   2.455
 6897WAT      O20932   3.715   2.587   9.410
 6897WAT     H120933   3.743   2.500   9.451
 6897WAT     H220934   3.618   2.603   9.428
 6898WAT      O20935   6.514   3.837   0.706
 6898WAT     H120936   6.520   3.932   0.673
 6898WAT     H220937   6.436   3.792   0.663
 6899WAT      O20938   5.367   8.983   1.175
 6899WAT     H120939   5.441   9.014   1.116
 6899WAT     H220940   5.366   8.883   1.178
 6900WAT      O20941   5.611   3.102   3.249
 6900WAT     H120942   5.586   3.020   3.197
 6900WAT     H220943   5.650   3.170   3.187
 6901WAT      O20944   0.537   9.433   4.132
 6901WAT     H120945   0.489   9.411   4.217
 6901WAT     H220946   0.633   9.410   4.141
 6902WAT      O20947   7.830   6.564   5.945
 6902WAT     H120948   7.735   6.564   5.976
 6902WAT     H220949   7.873   6.650   5.971
 6903WAT      O20950   5.834   1.806   2.649
 6903WAT     H120951   5.735   1.796   2.658
 6903WAT     H220952   5.861   1.899   2.676
 6904WAT      O20953   5.433   0.711   0.053
 6904WAT     H120954   5.474   0.749   0.136
 6904WAT     H220955   5.361   0.647   0.077
 6905WAT      O20956   8.954   5.116   4.475
 6905WAT     H120957   8.961   5.038   4.537
 6905WAT     H220958   9.046   5.149   4.452
 6906WAT      O20959   1.358   4.394   0.054
 6906WAT     H120960   1.258   4.397   0.059
 6906WAT     H220961   1.390   4.306   0.088
 6907WAT      O20962   8.586   4.067   5.553
 6907WAT     H120963   8.642   3.984   5.550
 6907WAT     H220964   8.504   4.054   5.498
 6908WAT      O20965   6.445   3.375   5.044
 6908WAT     H120966   6.434   3.423   5.131
 6908WAT     H220967   6.355   3.344   5.012
 6909WAT      O20968   8.472   8.795   3.700
 6909WAT     H120969   8.441   8.710   3.744
 6909WAT     H220970   8.558   8.777   3.651
 6910WAT      O20971   8.619   8.312   0.791
 6910WAT     H120972   8.531   8.270   0.814
 6910WAT     H220973   8.684   8.295   0.866
 6911WAT      O20974   4.263   9.716   6.180
 6911WAT     H120975   4.178   9.700   6.230
 6911WAT     H220976   4.257   9.673   6.090
 6912WAT      O20977   6.630   4.894   7.003
 6912WAT     H120978   6.718   4.930   6.973
 6912WAT     H220979   6.616   4.804   6.961
 6913WAT      O20980   5.239   7.771   1.196
 6913WAT     H120981   5.290   7.747   1.279
 6913WAT     H220982   5.192   7.691   1.161
 6914WAT      O20983   0.567   1.138   5.428
 6914WAT     H120984   0.551   1.160   5.524
 6914WAT     H220985   0.491   1.171   5.373
 6915WAT      O20986   7.274   2.144   0.948
 6915WAT     H120987   7.313   2.097   0.869
 6915WAT     H220988   7.279   2.084   1.028
 6916WAT      O20989   3.557   0.783   8.561
 6916WAT     H120990   3.598   0.812   8.648
 6916WAT     H220991   3.626   0.734   8.507
 6917WAT      O20992   8.059   5.529   8.703
 6917WAT     H120993   8.032   5.620   8.672
 6917WAT     H220994   7.985   5.487   8.755
 6918WAT      O20995   8.912   8.777   4.982
 6918WAT     H120996   8.855   8.714   4.929
 6918WAT     H220997   8.878   8.871   4.969
 6919WAT      O20998   3.196   8.475   5.936
 6919WAT     H120999   3.145   8.468   6.022
 6919WAT     H221000   3.294   8.466   5.955
 6920WAT      O21001   0.852   9.774   1.997
 6920WAT     H121002   0.885   9.715   1.924
 6920WAT     H221003   0.769   9.733   2.037
 6921WAT      O21004   3.124   9.699   5.572
 6921WAT     H121005   3.039   9.730   5.615
 6921WAT     H221006   3.116   9.603   5.547
 6922WAT      O21007   5.491   4.020   9.255
 6922WAT     H121008   5.397   3.994   9.234
 6922WAT     H221009   5.524   4.086   9.187
 6923WAT      O21010   9.544   7.216   5.394
 6923WAT     H121011   9.550   7.241   5.490
 6923WAT     H221012   9.452   7.183   5.373
 6924WAT      O21013   5.877   9.791   0.910
 6924WAT     H121014   5.869   9.890   0.916
 6924WAT     H221015   5.893   9.753   1.002
 6925WAT      O21016   7.104   4.828   3.135
 6925WAT     H121017   7.063   4.870   3.215
 6925WAT     H221018   7.202   4.816   3.149
 6926WAT      O21019   6.755   3.992   9.322
 6926WAT     H121020   6.693   4.061   9.361
 6926WAT     H221021   6.705   3.933   9.260
 6927WAT      O21022   5.497   6.599   3.068
 6927WAT     H121023   5.456   6.610   3.158
 6927WAT     H221024   5.538   6.509   3.060
 6928WAT      O21025   5.549   8.047   4.431
 6928WAT     H121026   5.471   8.010   4.481
 6928WAT     H221027   5.541   8.023   4.334
 6929WAT      O21028   8.854   4.301   0.654
 6929WAT     H121029   8.788   4.231   0.681
 6929WAT     H221030   8.915   4.264   0.584
 6930WAT      O21031   8.132   5.802   4.825
 6930WAT     H121032   8.122   5.839   4.917
 6930WAT     H221033   8.109   5.704   4.826
 6931WAT      O21034   5.619   4.028   7.743
 6931WAT     H121035   5.708   3.993   7.716
 6931WAT     H221036   5.589   4.098   7.679
 6932WAT      O21037   6.070   4.047   1.397
 6932WAT     H121038   6.167   4.032   1.377
 6932WAT     H221039   6.059   4.072   1.493
 6933WAT      O21040   0.653   9.803   1.038
 6933WAT     H121041   0.587   9.737   1.074
 6933WAT     H221042   0.739   9.795   1.088
 6934WAT      O21043   1.047   1.364   0.217
 6934WAT     H121044   1.056   1.265   0.223
 6934WAT     H221045   1.032   1.391   0.121
 6935WAT      O21046   8.331   4.797   6.573
 6935WAT     H121047   8.292   4.741   6.499
 6935WAT     H221048   8.413   4.752   6.609
 6936WAT      O21049   2.219   3.811   7.072
 6936WAT     H121050   2.246   3.752   7.148
 6936WAT     H221051   2.231   3.907   7.098
 6937WAT      O21052   7.382   7.498   5.755
 6937WAT     H121053   7.367   7.493   5.656
 6937WAT     H221054   7.322   7.568   5.793
 6938WAT      O21055   5.839   0.375   5.767
 6938WAT     H121056   5.885   0.289   5.745
 6938WAT     H221057   5.743   0.356   5.787
 6939WAT      O21058   8.028   4.205   5.401
 6939WAT     H121059   8.102   4.247   5.452
 6939WAT     H221060   8.026   4.107   5.419
 6940WAT      O21061   5.664   8.804   4.841
 6940WAT     H121062   5.737   8.760   4.894
 6940WAT     H221063   5.701   8.881   4.789
 6941WAT      O21064   9.318   5.457   7.306
 6941WAT     H121065   9.404   5.450   7.255
 6941WAT     H221066   9.242   5.427   7.247
 6942WAT      O21067   2.294   4.182   2.176
 6942WAT     H121068   2.228   4.205   2.105
 6942WAT     H221069   2.306   4.082   2.180
 6943WAT      O21070   5.364   3.844   0.549
 6943WAT     H121071   5.288   3.793   0.509
 6943WAT     H221072   5.422   3.880   0.476
 6944WAT      O21073   2.042   3.628   3.919
 6944WAT     H121074   2.067   3.553   3.980
 6944WAT     H221075   1.952   3.610   3.879
 6945WAT      O21076   8.743   7.437   0.686
 6945WAT     H121077   8.644   7.453   0.682
 6945WAT     H221078   8.760   7.340   0.699
 6946WAT      O21079   7.390   6.078   9.474
 6946WAT     H121080   7.411   6.160   9.526
 6946WAT     H221081   7.309   6.094   9.418
 6947WAT      O21082   5.439   4.142   3.630
 6947WAT     H121083   5.490   4.175   3.550
 6947WAT     H221084   5.345   4.175   3.625
 6948WAT      O21085   1.553   2.367   5.960
 6948WAT     H121086   1.561   2.375   6.060
 6948WAT     H221087   1.542   2.458   5.921
 6949WAT      O21088   1.662   2.398   8.202
 6949WAT     H121089   1.639   2.448   8.286
 6949WAT     H221090   1.582   2.350   8.168
 6950WAT      O21091   4.025   8.401   7.698
 6950WAT     H121092   3.971   8.328   7.655
 6950WAT     H221093   4.077   8.449   7.628
 6951WAT      O21094   8.475   4.721   2.973
 6951WAT     H121095   8.411   4.652   2.940
 6951WAT     H221096   8.561   4.712   2.923
 6952WAT      O21097   8.627   8.938   5.261
 6952WAT     H121098   8.702   9.004   5.259
 6952WAT     H221099   8.540   8.986   5.274
 6953WAT      O21100   4.921   8.395   2.860
 6953WAT     H121101   4.981   8.372   2.784
 6953WAT     H221102   4.848   8.456   2.829
 6954WAT      O21103   7.261   6.033   1.460
 6954WAT     H121104   7.170   6.066   1.434
 6954WAT     H221105   7.304   6.098   1.522
 6955WAT      O21106   3.458   5.626   3.173
 6955WAT     H121107   3.386   5.633   3.241
 6955WAT     H221108   3.518   5.706   3.179
 6956WAT      O21109   0.567   7.162   0.355
 6956WAT     H121110   0.656   7.130   0.389
 6956WAT     H221111   0.577   7.252   0.314
 6957WAT      O21112   2.146   5.437   9.203
 6957WAT     H121113   2.073   5.385   9.248
 6957WAT     H221114   2.153   5.528   9.243
 6958WAT      O21115   9.437   2.514   3.817
 6958WAT     H121116   9.453   2.594   3.875
 6958WAT     H221117   9.341   2.513   3.788
 6959WAT      O21118   0.497   9.387   5.104
 6959WAT     H121119   0.595   9.375   5.119
 6959WAT     H221120   0.481   9.467   5.046
 6960WAT      O21121   1.321   7.917   3.605
 6960WAT     H121122   1.325   7.922   3.505
 6960WAT     H221123   1.225   7.917   3.634
 6961WAT      O21124   9.320   3.299   3.147
 6961WAT     H121125   9.390   3.370   3.160
 6961WAT     H221126   9.356   3.228   3.086
 6962WAT      O21127   8.874   7.719   8.738
 6962WAT     H121128   8.801   7.739   8.672
 6962WAT     H221129   8.919   7.804   8.765
 6963WAT      O21130   2.786   1.578   4.207
 6963WAT     H121131   2.871   1.613   4.168
 6963WAT     H221132   2.714   1.647   4.196
 6964WAT      O21133   1.353   1.834   9.732
 6964WAT     H121134   1.263   1.870   9.707
 6964WAT     H221135   1.389   1.779   9.656
 6965WAT      O21136   6.596   2.805   5.553
 6965WAT     H121137   6.687   2.837   5.581
 6965WAT     H221138   6.588   2.810   5.453
 6966WAT      O21139   0.749   4.760   8.131
 6966WAT     H121140   0.761   4.673   8.180
 6966WAT     H221141   0.772   4.836   8.192
 6967WAT      O21142   6.355   8.160   0.716
 6967WAT     H121143   6.378   8.100   0.792
 6967WAT     H221144   6.297   8.111   0.651
 6968WAT      O21145   3.841   2.820   0.325
 6968WAT     H121146   3.850   2.732   0.373
 6968WAT     H221147   3.747   2.853   0.334
 6969WAT      O21148   9.019   8.372   1.429
 6969WAT     H121149   8.986   8.277   1.436
 6969WAT     H221150   8.941   8.432   1.410
 6970WAT      O21151   9.526   9.247   9.082
 6970WAT     H121152   9.581   9.179   9.131
 6970WAT     H221153   9.429   9.234   9.104
 6971WAT      O21154   4.844   6.871   1.864
 6971WAT     H121155   4.874   6.957   1.903
 6971WAT     H221156   4.854   6.798   1.932
 6972WAT      O21157   0.362   0.973   6.857
 6972WAT     H121158   0.377   0.915   6.777
 6972WAT     H221159   0.264   0.979   6.876
 6973WAT      O21160   8.618   3.102   5.237
 6973WAT     H121161   8.629   3.075   5.142
 6973WAT     H221162   8.695   3.160   5.264
 6974WAT      O21163   4.168   3.318   4.676
 6974WAT     H121164   4.222   3.399   4.697
 6974WAT     H221165   4.222   3.236   4.695
 6975WAT      O21166   2.146   7.903   0.379
 6975WAT     H121167   2.210   7.865   0.312
 6975WAT     H221168   2.119   7.995   0.350
 6976WAT      O21169   1.055   6.187   8.757
 6976WAT     H121170   1.079   6.284   8.764
 6976WAT     H221171   1.005   6.171   8.672
 6977WAT      O21172   8.222   4.969   8.437
 6977WAT     H121173   8.221   4.899   8.366
 6977WAT     H221174   8.310   5.017   8.435
 6978WAT      O21175   0.238   5.097   8.822
 6978WAT     H121176   0.286   5.178   8.857
 6978WAT     H221177   0.170   5.067   8.889
 6979WAT      O21178   0.051   6.833   9.284
 6979WAT     H121179   0.021   6.927   9.302
 6979WAT     H221180   0.134   6.815   9.337
 6980WAT      O21181   0.116   9.002   4.672
 6980WAT     H121182   0.189   9.069   4.654
 6980WAT     H221183   0.047   9.044   4.730
 6981WAT      O21184   4.449   6.531   3.230
 6981WAT     H121185   4.477   6.600   3.296
 6981WAT     H221186   4.366   6.486   3.263
 6982WAT      O21187   2.397   6.879   2.608
 6982WAT     H121188   2.411   6.787   2.644
 6982WAT     H221189   2.337   6.930   2.670
 6983WAT      O21190   3.403   1.167   3.016
 6983WAT     H121191   3.425   1.145   3.111
 6983WAT     H221192   3.470   1.231   2.980
 6984WAT      O21193   1.663   2.723   4.470
 6984WAT     H121194   1.657   2.731   4.371
 6984WAT     H221195   1.599   2.653   4.502
 6985WAT      O21196   8.778   5.881   9.110
 6985WAT     H121197   8.834   5.878   9.027
 6985WAT     H221198   8.726   5.796   9.118
 6986WAT      O21199   2.122   7.141   4.934
 6986WAT     H121200   2.219   7.141   4.958
 6986WAT     H221201   2.099   7.227   4.888
 6987WAT      O21202   6.139   3.472   7.058
 6987WAT     H121203   6.168   3.398   6.998
 6987WAT     H221204   6.041   3.464   7.076
 6988WAT      O21205   4.879   1.278   8.342
 6988WAT     H121206   4.912   1.349   8.404
 6988WAT     H221207   4.782   1.262   8.358
 6989WAT      O21208   9.836   9.666   6.539
 6989WAT     H121209   9.805   9.588   6.592
 6989WAT     H221210   9.915   9.708   6.583
 6990WAT      O21211   6.228   4.156   3.493
 6990WAT     H121212   6.323   4.183   3.505
 6990WAT     H221213   6.182   4.220   3.432
 6991WAT      O21214   6.378   1.725   4.745
 6991WAT     H121215   6.383   1.708   4.843
 6991WAT     H221216   6.387   1.639   4.696
 6992WAT      O21217   8.716   0.634   9.428
 6992WAT     H121218   8.721   0.534   9.417
 6992WAT     H221219   8.650   0.656   9.500
 6993WAT      O21220   3.004   4.483   9.136
 6993WAT     H121221   2.943   4.554   9.172
 6993WAT     H221222   2.958   4.434   9.062
 6994WAT      O21223   2.184   6.209   5.406
 6994WAT     H121224   2.173   6.126   5.460
 6994WAT     H221225   2.169   6.289   5.464
 6995WAT      O21226   5.237   0.643   2.679
 6995WAT     H121227   5.196   0.596   2.601
 6995WAT     H221228   5.176   0.638   2.757
 6996WAT      O21229   8.279   5.742   4.000
 6996WAT     H121230   8.230   5.740   4.087
 6996WAT     H221231   8.363   5.795   4.011
 6997WAT      O21232   9.021   0.583   9.433
 6997WAT     H121233   9.062   0.494   9.411
 6997WAT     H221234   8.974   0.576   9.521
 6998WAT      O21235   1.187   9.042   9.553
 6998WAT     H121236   1.260   9.041   9.484
 6998WAT     H221237   1.118   8.973   9.530
 6999WAT      O21238   6.451   8.368   5.687
 6999WAT     H121239   6.477   8.323   5.772
 6999WAT     H221240   6.398   8.305   5.630
 7000WAT      O21241   6.547   6.197   7.421
 7000WAT     H121242   6.509   6.126   7.480
 7000WAT     H221243   6.601   6.156   7.349
 7001WAT      O21244   6.420   3.420   1.638
 7001WAT     H121245   6.456   3.511   1.617
 7001WAT     H221246   6.348   3.397   1.573
 7002WAT      O21247   6.352   4.116   0.280
 7002WAT     H121248   6.330   4.020   0.301
 7002WAT     H221249   6.313   4.175   0.350
 7003WAT      O21250   3.364   3.463   1.182
 7003WAT     H121251   3.391   3.368   1.193
 7003WAT     H221252   3.291   3.469   1.115
 7004WAT      O21253   1.982   5.928   1.171
 7004WAT     H121254   1.964   6.011   1.119
 7004WAT     H221255   1.938   5.850   1.126
 7005WAT      O21256   0.668   2.789   5.667
 7005WAT     H121257   0.684   2.735   5.750
 7005WAT     H221258   0.601   2.743   5.609
 7006WAT      O21259   5.734   0.919   5.833
 7006WAT     H121260   5.791   0.863   5.772
 7006WAT     H221261   5.660   0.863   5.869
 7007WAT      O21262   1.169   7.930   4.186
 7007WAT     H121263   1.213   7.979   4.262
 7007WAT     H221264   1.234   7.922   4.111
 7008WAT      O21265   2.068   7.663   6.602
 7008WAT     H121266   2.114   7.592   6.656
 7008WAT     H221267   2.130   7.696   6.531
 7009WAT      O21268   0.300   8.680   8.425
 7009WAT     H121269   0.387   8.699   8.469
 7009WAT     H221270   0.283   8.748   8.354
 7010WAT      O21271   6.756   8.009   6.705
 7010WAT     H121272   6.663   8.018   6.739
 7010WAT     H221273   6.764   7.927   6.649
 7011WAT      O21274   3.987   6.506   3.452
 7011WAT     H121275   4.013   6.542   3.541
 7011WAT     H221276   3.926   6.428   3.464
 7012WAT      O21277   6.471   5.016   9.225
 7012WAT     H121278   6.540   5.075   9.265
 7012WAT     H221279   6.445   5.051   9.135
 7013WAT      O21280   6.478   3.265   2.969
 7013WAT     H121281   6.428   3.322   2.903
 7013WAT     H221282   6.455   3.296   3.062
 7014WAT      O21283   1.927   1.783   0.160
 7014WAT     H121284   1.911   1.687   0.179
 7014WAT     H221285   2.019   1.809   0.191
 7015WAT      O21286   5.147   6.481   6.866
 7015WAT     H121287   5.108   6.389   6.879
 7015WAT     H221288   5.168   6.495   6.770
 7016WAT      O21289   8.973   7.175   4.499
 7016WAT     H121290   8.874   7.168   4.502
 7016WAT     H221291   9.013   7.140   4.583
 7017WAT      O21292   5.806   1.617   5.754
 7017WAT     H121293   5.903   1.600   5.734
 7017WAT     H221294   5.799   1.693   5.818
 7018WAT      O21295   2.935   2.649   3.967
 7018WAT     H121296   3.003   2.600   4.021
 7018WAT     H221297   2.981   2.704   3.897
 7019WAT      O21298   3.665   6.954   0.814
 7019WAT     H121299   3.719   6.977   0.895
 7019WAT     H221300   3.680   6.858   0.791
 7020WAT      O21301   3.168   6.871   8.557
 7020WAT     H121302   3.146   6.789   8.610
 7020WAT     H221303   3.139   6.858   8.462
 7021WAT      O21304   1.719   7.734   6.131
 7021WAT     H121305   1.657   7.800   6.173
 7021WAT     H221306   1.723   7.651   6.187
 7022WAT      O21307   0.795   6.927   9.858
 7022WAT     H121308   0.781   6.851   9.921
 7022WAT     H221309   0.715   6.986   9.857
 7023WAT      O21310   8.418   2.711   0.901
 7023WAT     H121311   8.420   2.611   0.901
 7023WAT     H221312   8.345   2.743   0.962
 7024WAT      O21313   3.028   5.458   2.511
 7024WAT     H121314   2.932   5.486   2.514
 7024WAT     H221315   3.085   5.529   2.553
 7025WAT      O21316   4.063   7.366   0.147
 7025WAT     H121317   4.130   7.416   0.092
 7025WAT     H221318   4.090   7.370   0.243
 7026WAT      O21319   8.499   6.480   6.430
 7026WAT     H121320   8.427   6.413   6.413
 7026WAT     H221321   8.488   6.517   6.523
 7027WAT      O21322   8.685   1.027   0.111
 7027WAT     H121323   8.663   0.930   0.104
 7027WAT     H221324   8.616   1.081   0.062
 7028WAT      O21325   6.474   4.979   7.957
 7028WAT     H121326   6.515   4.903   8.007
 7028WAT     H221327   6.546   5.032   7.912
 7029WAT      O21328   0.340   4.341   9.474
 7029WAT     H121329   0.401   4.358   9.397
 7029WAT     H221330   0.388   4.363   9.560
 7030WAT      O21331   5.954   9.023   8.688
 7030WAT     H121332   6.044   9.066   8.689
 7030WAT     H221333   5.883   9.092   8.702
 7031WAT      O21334   0.225   8.057   2.675
 7031WAT     H121335   0.236   7.964   2.709
 7031WAT     H221336   0.191   8.115   2.749
 7032WAT      O21337   8.802   8.777   0.007
 7032WAT     H121338   8.850   8.691  -0.014
 7032WAT     H221339   8.837   8.850  -0.052
 7033WAT      O21340   1.241   7.832   6.019
 7033WAT     H121341   1.179   7.909   6.032
 7033WAT     H221342   1.238   7.773   6.101
 7034WAT      O21343   9.614   0.589   5.318
 7034WAT     H121344   9.714   0.598   5.323
 7034WAT     H221345   9.574   0.622   5.404
 7035WAT      O21346   2.826   2.310   3.284
 7035WAT     H121347   2.759   2.273   3.349
 7035WAT     H221348   2.790   2.301   3.191
 7036WAT      O21349   0.789   7.567   3.632
 7036WAT     H121350   0.743   7.656   3.636
 7036WAT     H221351   0.811   7.546   3.536
 7037WAT      O21352   0.325   8.426   3.804
 7037WAT     H121353   0.389   8.393   3.735
 7037WAT     H221354   0.311   8.355   3.873
 7038WAT      O21355   2.917   1.407   5.446
 7038WAT     H121356   2.920   1.363   5.535
 7038WAT     H221357   2.944   1.341   5.375
 7039WAT      O21358   4.158   8.862   0.335
 7039WAT     H121359   4.143   8.958   0.361
 7039WAT     H221360   4.209   8.815   0.407
 7040WAT      O21361   0.569   9.272   1.991
 7040WAT     H121362   0.578   9.371   1.990
 7040WAT     H221363   0.595   9.235   1.903
 7041WAT      O21364   2.796   2.873   9.714
 7041WAT     H121365   2.714   2.902   9.762
 7041WAT     H221366   2.830   2.788   9.753
 7042WAT      O21367   8.373   0.297   5.508
 7042WAT     H121368   8.336   0.379   5.466
 7042WAT     H221369   8.472   0.293   5.495
 7043WAT      O21370   7.041   7.123   5.108
 7043WAT     H121371   7.041   7.219   5.133
 7043WAT     H221372   7.135   7.088   5.107
 7044WAT      O21373   5.000   5.569   6.287
 7044WAT     H121374   4.962   5.531   6.203
 7044WAT     H221375   5.057   5.501   6.332
 7045WAT      O21376   8.557   8.014   3.399
 7045WAT     H121377   8.596   8.009   3.307
 7045WAT     H221378   8.457   8.015   3.394
 7046WAT      O21379   2.484   2.862   6.479
 7046WAT     H121380   2.526   2.800   6.412
 7046WAT     H221381   2.385   2.844   6.483
 7047WAT      O21382   7.973   4.998   5.645
 7047WAT     H121383   7.945   4.972   5.738
 7047WAT     H221384   7.948   5.094   5.629
 7048WAT      O21385   1.747   4.214   6.419
 7048WAT     H121386   1.778   4.309   6.412
 7048WAT     H221387   1.687   4.192   6.342
 7049WAT      O21388   8.915   4.026   5.431
 7049WAT     H121389   8.856   3.966   5.485
 7049WAT     H221390   8.959   3.973   5.359
 7050WAT      O21391   6.186   0.862   4.929
 7050WAT     H121392   6.222   0.952   4.905
 7050WAT     H221393   6.089   0.869   4.954
 7051WAT      O21394   2.709   0.556   5.025
 7051WAT     H121395   2.766   0.571   4.944
 7051WAT     H221396   2.626   0.506   5.000
 7052WAT      O21397   2.557   5.074   7.869
 7052WAT     H121398   2.517   4.983   7.873
 7052WAT     H221399   2.492   5.137   7.827
 7053WAT      O21400   2.231   5.076   3.937
 7053WAT     H121401   2.169   5.100   4.012
 7053WAT     H221402   2.325   5.077   3.970
 7054WAT      O21403   2.137   3.713   0.155
 7054WAT     H121404   2.138   3.628   0.208
 7054WAT     H221405   2.193   3.701   0.073
 7055WAT      O21406   5.846   1.016   4.830
 7055WAT     H121407   5.867   1.044   4.736
 7055WAT     H221408   5.820   1.096   4.884
 7056WAT      O21409   5.671   4.201   0.818
 7056WAT     H121410   5.591   4.141   0.823
 7056WAT     H221411   5.736   4.176   0.890
 7057WAT      O21412   4.476   4.086   8.605
 7057WAT     H121413   4.488   4.086   8.705
 7057WAT     H221414   4.409   4.156   8.580
 7058WAT      O21415   7.868   6.068   1.382
 7058WAT     H121416   7.878   6.070   1.283
 7058WAT     H221417   7.936   6.006   1.421
 7059WAT      O21418   6.356   4.726   5.348
 7059WAT     H121419   6.438   4.677   5.376
 7059WAT     H221420   6.282   4.707   5.412
 7060WAT      O21421   5.543   8.333   6.638
 7060WAT     H121422   5.594   8.389   6.704
 7060WAT     H221423   5.606   8.295   6.571
 7061WAT      O21424   1.173   4.027   4.321
 7061WAT     H121425   1.185   4.054   4.225
 7061WAT     H221426   1.233   3.949   4.341
 7062WAT      O21427   7.583   5.598   4.720
 7062WAT     H121428   7.543   5.662   4.655
 7062WAT     H221429   7.677   5.577   4.694
 7063WAT      O21430   8.554   1.924   1.382
 7063WAT     H121431   8.546   2.023   1.392
 7063WAT     H221432   8.621   1.889   1.447
 7064WAT      O21433   0.956   0.979   3.925
 7064WAT     H121434   0.953   1.074   3.956
 7064WAT     H221435   0.981   0.919   4.001
 7065WAT      O21436   3.961   7.516   5.643
 7065WAT     H121437   3.943   7.425   5.680
 7065WAT     H221438   3.980   7.510   5.545
 7066WAT      O21439   4.715   7.267   9.700
 7066WAT     H121440   4.703   7.170   9.719
 7066WAT     H221441   4.743   7.279   9.604
 7067WAT      O21442   0.471   6.590   7.537
 7067WAT     H121443   0.534   6.667   7.533
 7067WAT     H221444   0.522   6.505   7.549
 7068WAT      O21445   8.851   6.237   6.798
 7068WAT     H121446   8.905   6.295   6.858
 7068WAT     H221447   8.820   6.290   6.719
 7069WAT      O21448   5.928   0.789   9.722
 7069WAT     H121449   5.832   0.764   9.732
 7069WAT     H221450   5.954   0.855   9.793
 7070WAT      O21451   7.872   5.009   2.951
 7070WAT     H121452   7.903   4.974   3.040
 7070WAT     H221453   7.899   4.946   2.879
 7071WAT      O21454   0.236   8.364   5.019
 7071WAT     H121455   0.260   8.329   4.928
 7071WAT     H221456   0.302   8.331   5.086
 7072WAT      O21457   4.019   0.299   5.165
 7072WAT     H121458   4.103   0.331   5.123
 7072WAT     H221459   4.040   0.230   5.235
 7073WAT      O21460   1.051   4.375   5.900
 7073WAT     H121461   1.048   4.474   5.912
 7073WAT     H221462   0.991   4.349   5.824
 7074WAT      O21463   4.788   8.863   3.052
 7074WAT     H121464   4.832   8.835   2.967
 7074WAT     H221465   4.753   8.782   3.100
 7075WAT      O21466   8.483   1.688   6.016
 7075WAT     H121467   8.416   1.690   5.941
 7075WAT     H221468   8.461   1.759   6.082
 7076WAT      O21469   8.866   6.640   8.246
 7076WAT     H121470   8.859   6.735   8.277
 7076WAT     H221471   8.920   6.587   8.312
 7077WAT      O21472   8.172   8.018   3.087
 7077WAT     H121473   8.091   8.038   3.141
 7077WAT     H221474   8.188   8.091   3.021
 7078WAT      O21475   5.123   6.084   4.248
 7078WAT     H121476   5.070   5.999   4.255
 7078WAT     H221477   5.062   6.159   4.221
 7079WAT      O21478   1.388   4.748   5.850
 7079WAT     H121479   1.448   4.827   5.862
 7079WAT     H221480   1.399   4.686   5.927
 7080WAT      O21481   1.252   6.245   0.600
 7080WAT     H121482   1.229   6.296   0.683
 7080WAT     H221483   1.173   6.247   0.538
 7081WAT      O21484   5.247   6.196   5.846
 7081WAT     H121485   5.339   6.159   5.859
 7081WAT     H221486   5.180   6.124   5.862
 7082WAT      O21487   4.299   5.337   6.393
 7082WAT     H121488   4.246   5.256   6.370
 7082WAT     H221489   4.374   5.347   6.327
 7083WAT      O21490   1.032   2.870   0.058
 7083WAT     H121491   1.038   2.946  -0.007
 7083WAT     H221492   1.114   2.813   0.051
 7084WAT      O21493   3.904   4.723   7.789
 7084WAT     H121494   3.963   4.783   7.843
 7084WAT     H221495   3.932   4.628   7.802
 7085WAT      O21496   7.949   0.256   5.351
 7085WAT     H121497   7.985   0.278   5.441
 7085WAT     H221498   7.955   0.157   5.336
 7086WAT      O21499   8.922   2.789   5.132
 7086WAT     H121500   8.986   2.826   5.200
 7086WAT     H221501   8.925   2.846   5.050
 7087WAT      O21502   4.401   1.449   7.326
 7087WAT     H121503   4.465   1.498   7.385
 7087WAT     H221504   4.387   1.500   7.241
 7088WAT      O21505   6.993   7.033   6.042
 7088WAT     H121506   6.984   6.970   6.119
 7088WAT     H221507   7.070   7.005   5.985
 7089WAT      O21508   8.730   1.951   8.266
 7089WAT     H121509   8.799   1.992   8.325
 7089WAT     H221510   8.639   1.975   8.299
 7090WAT      O21511   8.290   0.587   2.164
 7090WAT     H121512   8.199   0.600   2.124
 7090WAT     H221513   8.350   0.542   2.097
 7091WAT      O21514   0.701   1.756   2.157
 7091WAT     H121515   0.647   1.747   2.074
 7091WAT     H221516   0.746   1.846   2.158
 7092WAT      O21517   4.522   1.752   5.683
 7092WAT     H121518   4.440   1.713   5.725
 7092WAT     H221519   4.496   1.820   5.614
 7093WAT      O21520   3.676   0.024   9.576
 7093WAT     H121521   3.694   0.114   9.615
 7093WAT     H221522   3.610   0.032   9.502
 7094WAT      O21523   8.306   7.150   2.995
 7094WAT     H121524   8.208   7.140   3.015
 7094WAT     H221525   8.319   7.167   2.898
 7095WAT      O21526   2.256   1.843   8.735
 7095WAT     H121527   2.156   1.836   8.735
 7095WAT     H221528   2.282   1.940   8.736
 7096WAT      O21529   9.794   9.393   2.448
 7096WAT     H121530   9.804   9.302   2.486
 7096WAT     H221531   9.796   9.461   2.522
 7097WAT      O21532   5.391   4.482   4.513
 7097WAT     H121533   5.390   4.444   4.420
 7097WAT     H221534   5.378   4.581   4.508
 7098WAT      O21535   3.302   5.185   1.306
 7098WAT     H121536   3.284   5.253   1.377
 7098WAT     H221537   3.231   5.114   1.309
 7099WAT      O21538   3.620   6.253   6.360
 7099WAT     H121539   3.599   6.190   6.434
 7099WAT     H221540   3.602   6.208   6.272
 7100WAT      O21541   2.899   3.458   7.148
 7100WAT     H121542   2.931   3.410   7.066
 7100WAT     H221543   2.822   3.517   7.124
 7101WAT      O21544   7.412   8.226   7.010
 7101WAT     H121545   7.433   8.243   6.914
 7101WAT     H221546   7.446   8.136   7.037
 7102WAT      O21547   1.818   8.675   1.642
 7102WAT     H121548   1.826   8.753   1.580
 7102WAT     H221549   1.722   8.646   1.647
 7103WAT      O21550   3.061   2.766   0.963
 7103WAT     H121551   3.120   2.830   0.914
 7103WAT     H221552   3.065   2.676   0.919
 7104WAT      O21553   1.129   7.348   3.509
 7104WAT     H121554   1.114   7.255   3.543
 7104WAT     H221555   1.099   7.414   3.578
 7105WAT      O21556   0.994   9.724   9.265
 7105WAT     H121557   0.951   9.750   9.178
 7105WAT     H221558   1.071   9.784   9.283
 7106WAT      O21559   2.850   6.450   8.233
 7106WAT     H121560   2.914   6.400   8.176
 7106WAT     H221561   2.840   6.543   8.197
 7107WAT      O21562   6.152   7.394   7.251
 7107WAT     H121563   6.098   7.311   7.265
 7107WAT     H221564   6.175   7.434   7.340
 7108WAT      O21565   5.686   4.196   1.362
 7108WAT     H121566   5.594   4.223   1.331
 7108WAT     H221567   5.737   4.157   1.285
 7109WAT      O21568   4.509   2.270   9.617
 7109WAT     H121569   4.543   2.186   9.575
 7109WAT     H221570   4.584   2.318   9.661
 7110WAT      O21571   5.115   3.855   5.819
 7110WAT     H121572   5.099   3.901   5.731
 7110WAT     H221573   5.168   3.915   5.878
 7111WAT      O21574   4.918   3.444   9.438
 7111WAT     H121575   4.869   3.449   9.525
 7111WAT     H221576   4.878   3.372   9.381
 7112WAT      O21577   0.222   7.393   4.865
 7112WAT     H121578   0.224   7.303   4.909
 7112WAT     H221579   0.138   7.403   4.812
 7113WAT      O21580   0.880   6.965   3.786
 7113WAT     H121581   0.938   7.041   3.757
 7113WAT     H221582   0.810   6.998   3.850
 7114WAT      O21583   4.999   3.953   2.923
 7114WAT     H121584   5.081   3.911   2.962
 7114WAT     H221585   4.964   3.896   2.849
 7115WAT      O21586   5.657   5.933   7.268
 7115WAT     H121587   5.591   5.986   7.322
 7115WAT     H221588   5.742   5.925   7.320
 7116WAT      O21589   1.783   1.564   9.230
 7116WAT     H121590   1.799   1.623   9.151
 7116WAT     H221591   1.797   1.616   9.314
 7117WAT      O21592   0.036   8.847   2.776
 7117WAT     H121593   0.125   8.800   2.772
 7117WAT     H221594   0.041   8.922   2.842
 7118WAT      O21595   0.905   6.811   2.536
 7118WAT     H121596   0.876   6.903   2.563
 7118WAT     H221597   0.886   6.797   2.439
 7119WAT      O21598   6.543   0.607   2.372
 7119WAT     H121599   6.628   0.659   2.375
 7119WAT     H221600   6.472   0.655   2.424
 7120WAT      O21601   4.930   4.601   3.238
 7120WAT     H121602   4.909   4.690   3.197
 7120WAT     H221603   4.955   4.536   3.166
 7121WAT      O21604   2.460   1.481   6.676
 7121WAT     H121605   2.394   1.554   6.658
 7121WAT     H221606   2.539   1.518   6.725
 7122WAT      O21607   9.178   9.677   5.213
 7122WAT     H121608   9.229   9.605   5.262
 7122WAT     H221609   9.238   9.755   5.198
 7123WAT      O21610   6.277   6.745   1.207
 7123WAT     H121611   6.239   6.751   1.299
 7123WAT     H221612   6.374   6.722   1.213
 7124WAT      O21613   5.993   5.317   0.469
 7124WAT     H121614   5.966   5.308   0.373
 7124WAT     H221615   5.952   5.243   0.522
 7125WAT      O21616   4.002   6.106   8.764
 7125WAT     H121617   4.009   6.191   8.711
 7125WAT     H221618   4.026   6.029   8.706
 7126WAT      O21619   2.618   0.262   5.638
 7126WAT     H121620   2.646   0.324   5.710
 7126WAT     H221621   2.602   0.313   5.554
 7127WAT      O21622   3.670   0.125   5.032
 7127WAT     H121623   3.572   0.110   5.034
 7127WAT     H221624   3.689   0.223   5.023
 7128WAT      O21625   3.622   1.641   6.318
 7128WAT     H121626   3.711   1.664   6.357
 7128WAT     H221627   3.565   1.723   6.312
 7129WAT      O21628   8.823   6.568   9.484
 7129WAT     H121629   8.727   6.589   9.465
 7129WAT     H221630   8.829   6.507   9.563
 7130WAT      O21631   0.519   8.488   3.180
 7130WAT     H121632   0.469   8.549   3.119
 7130WAT     H221633   0.611   8.472   3.143
 7131WAT      O21634   5.907   0.255   3.320
 7131WAT     H121635   5.833   0.230   3.383
 7131WAT     H221636   5.947   0.172   3.280
 7132WAT      O21637   1.219   0.624   6.616
 7132WAT     H121638   1.129   0.587   6.637
 7132WAT     H221639   1.255   0.579   6.534
 7133WAT      O21640   6.688   2.626   2.886
 7133WAT     H121641   6.681   2.647   2.983
 7133WAT     H221642   6.759   2.683   2.844
 7134WAT      O21643   7.776   2.603   5.161
 7134WAT     H121644   7.866   2.644   5.180
 7134WAT     H221645   7.722   2.666   5.105
 7135WAT      O21646   1.420   6.393   5.910
 7135WAT     H121647   1.467   6.430   5.990
 7135WAT     H221648   1.341   6.339   5.939
 7136WAT      O21649   2.626   4.458   9.253
 7136WAT     H121650   2.565   4.460   9.333
 7136WAT     H221651   2.618   4.369   9.207
 7137WAT      O21652   1.302   7.449   1.958
 7137WAT     H121653   1.357   7.389   2.016
 7137WAT     H221654   1.357   7.479   1.880
 7138WAT      O21655   3.482   1.088   1.226
 7138WAT     H121656   3.489   1.012   1.161
 7138WAT     H221657   3.387   1.097   1.257
 7139WAT      O21658   0.271   5.870   0.735
 7139WAT     H121659   0.365   5.842   0.751
 7139WAT     H221660   0.241   5.930   0.809
 7140WAT      O21661   9.286   9.501   9.568
 7140WAT     H121662   9.324   9.548   9.488
 7140WAT     H221663   9.223   9.429   9.538
 7141WAT      O21664   2.593   5.081   3.056
 7141WAT     H121665   2.501   5.117   3.074
 7141WAT     H221666   2.613   5.007   3.121
 7142WAT      O21667   0.435   6.027   5.026
 7142WAT     H121668   0.477   5.967   4.957
 7142WAT     H221669   0.493   6.108   5.039
 7143WAT      O21670   9.858   6.984   0.560
 7143WAT     H121671   9.937   7.036   0.590
 7143WAT     H221672   9.880   6.936   0.475
 7144WAT      O21673   4.294   1.827   3.238
 7144WAT     H121674   4.198   1.844   3.263
 7144WAT     H221675   4.347   1.911   3.251
 7145WAT      O21676   6.939   3.877   7.508
 7145WAT     H121677   7.032   3.912   7.517
 7145WAT     H221678   6.874   3.945   7.540
 7146WAT      O21679   3.141   2.895   6.407
 7146WAT     H121680   3.131   2.931   6.314
 7146WAT     H221681   3.104   2.802   6.411
 7147WAT      O21682   1.546   1.306   8.444
 7147WAT     H121683   1.480   1.358   8.498
 7147WAT     H221684   1.510   1.215   8.424
 7148WAT      O21685   6.666   9.182   7.878
 7148WAT     H121686   6.749   9.156   7.830
 7148WAT     H221687   6.678   9.272   7.920
 7149WAT      O21688   4.413   7.386   2.994
 7149WAT     H121689   4.314   7.394   2.978
 7149WAT     H221690   4.432   7.405   3.090
 7150WAT      O21691   1.444   1.489   6.149
 7150WAT     H121692   1.358   1.540   6.153
 7150WAT     H221693   1.433   1.400   6.195
 7151WAT      O21694   9.618   3.508   8.250
 7151WAT     H121695   9.647   3.442   8.182
 7151WAT     H221696   9.530   3.547   8.224
 7152WAT      O21697   8.358   3.191   9.746
 7152WAT     H121698   8.349   3.146   9.835
 7152WAT     H221699   8.272   3.233   9.721
 7153WAT      O21700   1.705   2.793   2.270
 7153WAT     H121701   1.762   2.876   2.271
 7153WAT     H221702   1.738   2.730   2.200
 7154WAT      O21703   6.324   7.992   2.885
 7154WAT     H121704   6.335   8.053   2.964
 7154WAT     H221705   6.388   7.915   2.893
 7155WAT      O21706   9.400   0.637   9.557
 7155WAT     H121707   9.339   0.560   9.576
 7155WAT     H221708   9.430   0.679   9.643
 7156WAT      O21709   5.049   9.823   6.626
 7156WAT     H121710   5.137   9.863   6.651
 7156WAT     H221711   5.017   9.864   6.541
 7157WAT      O21712   9.732   7.884   3.945
 7157WAT     H121713   9.802   7.916   3.882
 7157WAT     H221714   9.774   7.830   4.019
 7158WAT      O21715   7.304   6.846   5.465
 7158WAT     H121716   7.323   6.861   5.562
 7158WAT     H221717   7.367   6.777   5.430
 7159WAT      O21718   3.150   3.909   5.399
 7159WAT     H121719   3.182   3.892   5.306
 7159WAT     H221720   3.084   3.984   5.398
 7160WAT      O21721   4.002   6.119   7.693
 7160WAT     H121722   3.908   6.099   7.666
 7160WAT     H221723   4.060   6.119   7.612
 7161WAT      O21724   4.660   9.673   9.155
 7161WAT     H121725   4.733   9.620   9.199
 7161WAT     H221726   4.656   9.764   9.195
 7162WAT      O21727   8.348   8.732   0.514
 7162WAT     H121728   8.283   8.748   0.589
 7162WAT     H221729   8.383   8.639   0.520
 7163WAT      O21730   4.864   1.610   7.749
 7163WAT     H121731   4.937   1.674   7.727
 7163WAT     H221732   4.775   1.654   7.731
 7164WAT      O21733   2.075   6.187   9.471
 7164WAT     H121734   2.169   6.215   9.453
 7164WAT     H221735   2.020   6.200   9.389
 7165WAT      O21736   2.489   0.779   4.280
 7165WAT     H121737   2.401   0.777   4.329
 7165WAT     H221738   2.525   0.686   4.272
 7166WAT      O21739   5.106   3.239   0.506
 7166WAT     H121740   5.062   3.159   0.546
 7166WAT     H221741   5.068   3.255   0.414
 7167WAT      O21742   0.345   3.031   5.520
 7167WAT     H121743   0.387   3.001   5.434
 7167WAT     H221744   0.403   3.003   5.597
 7168WAT      O21745   0.114   0.079   0.397
 7168WAT     H121746   0.044   0.109   0.462
 7168WAT     H221747   0.100  -0.018   0.376
 7169WAT      O21748   0.577   7.236   2.145
 7169WAT     H121749   0.599   7.234   2.243
 7169WAT     H221750   0.532   7.150   2.120
 7170WAT      O21751   1.477   4.104   0.360
 7170WAT     H121752   1.407   4.147   0.417
 7170WAT     H221753   1.517   4.026   0.410
 7171WAT      O21754   4.842   3.358   8.904
 7171WAT     H121755   4.868   3.421   8.831
 7171WAT     H221756   4.780   3.403   8.968
 7172WAT      O21757   9.299   3.942   6.923
 7172WAT     H121758   9.279   3.901   6.834
 7172WAT     H221759   9.377   3.895   6.964
 7173WAT      O21760   0.066   3.528   4.541
 7173WAT     H121761   0.139   3.583   4.501
 7173WAT     H221762   0.106   3.455   4.597
 7174WAT      O21763   0.085   2.483   8.304
 7174WAT     H121764   0.069   2.506   8.208
 7174WAT     H221765  -0.001   2.455   8.347
 7175WAT      O21766   3.056   8.736   8.336
 7175WAT     H121767   3.006   8.820   8.314
 7175WAT     H221768   3.152   8.748   8.310
 7176WAT      O21769   6.060   4.632   4.577
 7176WAT     H121770   5.987   4.564   4.584
 7176WAT     H221771   6.139   4.603   4.632
 7177WAT      O21772   4.131   0.693   7.729
 7177WAT     H121773   4.034   0.707   7.746
 7177WAT     H221774   4.166   0.623   7.791
 7178WAT      O21775   6.006   4.141   5.963
 7178WAT     H121776   6.095   4.188   5.964
 7178WAT     H221777   5.997   4.088   5.879
 7179WAT      O21778   3.837   5.146   3.825
 7179WAT     H121779   3.765   5.163   3.758
 7179WAT     H221780   3.905   5.220   3.820
 7180WAT      O21781   2.530   6.772   4.437
 7180WAT     H121782   2.562   6.682   4.405
 7180WAT     H221783   2.600   6.813   4.496
 7181WAT      O21784   2.887   8.637   3.479
 7181WAT     H121785   2.979   8.670   3.500
 7181WAT     H221786   2.887   8.537   3.477
 7182WAT      O21787   8.071   7.368   2.866
 7182WAT     H121788   8.117   7.371   2.777
 7182WAT     H221789   8.118   7.430   2.929
 7183WAT      O21790   5.386   7.166   5.449
 7183WAT     H121791   5.468   7.125   5.410
 7183WAT     H221792   5.323   7.094   5.479
 7184WAT      O21793   5.375   1.113   9.804
 7184WAT     H121794   5.453   1.050   9.804
 7184WAT     H221795   5.331   1.111   9.715
 7185WAT      O21796   6.769   0.992   9.668
 7185WAT     H121797   6.869   0.992   9.658
 7185WAT     H221798   6.734   1.083   9.643
 7186WAT      O21799   2.876   9.051   4.135
 7186WAT     H121800   2.940   9.077   4.206
 7186WAT     H221801   2.914   8.976   4.081
 7187WAT      O21802   4.627   0.731   2.240
 7187WAT     H121803   4.550   0.741   2.178
 7187WAT     H221804   4.619   0.645   2.291
 7188WAT      O21805   4.424   2.294   9.226
 7188WAT     H121806   4.428   2.251   9.137
 7188WAT     H221807   4.392   2.228   9.294
 7189WAT      O21808   5.032   4.018   8.318
 7189WAT     H121809   5.003   3.923   8.316
 7189WAT     H221810   5.130   4.023   8.334
 7190WAT      O21811   2.644   1.830   8.646
 7190WAT     H121812   2.617   1.920   8.678
 7190WAT     H221813   2.565   1.781   8.610
 7191WAT      O21814   0.873   7.677   2.558
 7191WAT     H121815   0.844   7.591   2.600
 7191WAT     H221816   0.932   7.727   2.622
 7192WAT      O21817   7.441   9.520   7.119
 7192WAT     H121818   7.369   9.582   7.087
 7192WAT     H221819   7.482   9.559   7.202
 7193WAT      O21820   8.431   9.602   1.522
 7193WAT     H121821   8.523   9.596   1.483
 7193WAT     H221822   8.438   9.614   1.621
 7194WAT      O21823   2.449   8.645   4.473
 7194WAT     H121824   2.377   8.613   4.534
 7194WAT     H221825   2.492   8.567   4.429
 7195WAT      O21826   6.185   5.666   1.988
 7195WAT     H121827   6.191   5.643   2.085
 7195WAT     H221828   6.148   5.588   1.937
 7196WAT      O21829   9.217   7.209   2.077
 7196WAT     H121830   9.306   7.222   2.121
 7196WAT     H221831   9.231   7.182   1.982
 7197WAT      O21832   7.512   3.921   6.220
 7197WAT     H121833   7.609   3.914   6.195
 7197WAT     H221834   7.460   3.954   6.141
 7198WAT      O21835   3.099   0.634   8.366
 7198WAT     H121836   3.104   0.649   8.267
 7198WAT     H221837   3.023   0.573   8.386
 7199WAT      O21838   5.088   1.727   3.467
 7199WAT     H121839   5.075   1.627   3.470
 7199WAT     H221840   5.049   1.767   3.550
 7200WAT      O21841   5.663   0.501   0.164
 7200WAT     H121842   5.727   0.569   0.199
 7200WAT     H221843   5.667   0.498   0.064
 7201WAT      O21844   1.164   4.652   2.578
 7201WAT     H121845   1.147   4.587   2.504
 7201WAT     H221846   1.111   4.736   2.561
 7202WAT      O21847   5.183   6.041   1.878
 7202WAT     H121848   5.094   6.082   1.892
 7202WAT     H221849   5.200   6.030   1.780
 7203WAT      O21850   6.977   8.095   2.417
 7203WAT     H121851   6.916   8.143   2.480
 7203WAT     H221852   7.000   8.005   2.454
 7204WAT      O21853   9.502   9.799   4.743
 7204WAT     H121854   9.516   9.869   4.673
 7204WAT     H221855   9.519   9.708   4.704
 7205WAT      O21856   9.301   1.183   9.200
 7205WAT     H121857   9.388   1.200   9.152
 7205WAT     H221858   9.298   1.088   9.231
 7206WAT      O21859   7.352   3.285   9.324
 7206WAT     H121860   7.452   3.290   9.329
 7206WAT     H221861   7.325   3.247   9.235
 7207WAT      O21862   0.730   2.495   7.310
 7207WAT     H121863   0.820   2.526   7.280
 7207WAT     H221864   0.673   2.574   7.334
 7208WAT      O21865   7.169   0.738   8.543
 7208WAT     H121866   7.240   0.768   8.480
 7208WAT     H221867   7.171   0.638   8.549
 7209WAT      O21868   3.312   2.377   3.104
 7209WAT     H121869   3.292   2.369   3.202
 7209WAT     H221870   3.366   2.299   3.075
 7210WAT      O21871   5.012   7.523   3.338
 7210WAT     H121872   4.914   7.536   3.354
 7210WAT     H221873   5.057   7.506   3.426
 7211WAT      O21874   7.347   5.896   7.360
 7211WAT     H121875   7.412   5.874   7.433
 7211WAT     H221876   7.254   5.880   7.393
 7212WAT      O21877   2.458   8.793   6.593
 7212WAT     H121878   2.454   8.774   6.495
 7212WAT     H221879   2.373   8.837   6.622
 7213WAT      O21880   9.790   5.731   2.181
 7213WAT     H121881   9.750   5.640   2.169
 7213WAT     H221882   9.783   5.782   2.096
 7214WAT      O21883   6.287   4.036   8.623
 7214WAT     H121884   6.235   4.091   8.558
 7214WAT     H221885   6.278   3.939   8.599
 7215WAT      O21886   6.500   8.368   2.992
 7215WAT     H121887   6.458   8.288   3.036
 7215WAT     H221888   6.447   8.394   2.912
 7216WAT      O21889   3.295   0.647   5.989
 7216WAT     H121890   3.213   0.610   6.031
 7216WAT     H221891   3.300   0.619   5.893
 7217WAT      O21892   7.716   4.020   4.179
 7217WAT     H121893   7.647   4.073   4.130
 7217WAT     H221894   7.689   3.924   4.181
 7218WAT      O21895   0.562   7.115   5.896
 7218WAT     H121896   0.565   7.097   5.994
 7218WAT     H221897   0.650   7.152   5.866
 7219WAT      O21898   2.785   7.819   0.776
 7219WAT     H121899   2.845   7.897   0.793
 7219WAT     H221900   2.829   7.736   0.808
 7220WAT      O21901   3.081   2.566   0.748
 7220WAT     H121902   3.030   2.595   0.668
 7220WAT     H221903   3.078   2.466   0.755
 7221WAT      O21904   8.558   8.370   2.071
 7221WAT     H121905   8.645   8.357   2.119
 7221WAT     H221906   8.483   8.364   2.136
 7222WAT      O21907   5.659   6.393   9.497
 7222WAT     H121908   5.622   6.309   9.455
 7222WAT     H221909   5.584   6.445   9.538
 7223WAT      O21910   2.206   2.660   3.056
 7223WAT     H121911   2.303   2.667   3.081
 7223WAT     H221912   2.186   2.567   3.027
 7224WAT      O21913   6.781   4.141   6.596
 7224WAT     H121914   6.781   4.205   6.519
 7224WAT     H221915   6.848   4.171   6.664
 7225WAT      O21916   5.008   0.410   8.850
 7225WAT     H121917   5.092   0.424   8.796
 7225WAT     H221918   4.999   0.313   8.873
 7226WAT      O21919   0.135   7.681   8.283
 7226WAT     H121920   0.220   7.676   8.336
 7226WAT     H221921   0.097   7.589   8.272
 7227WAT      O21922   2.806   8.069   6.662
 7227WAT     H121923   2.742   8.036   6.732
 7227WAT     H221924   2.801   8.009   6.582
 7228WAT      O21925   1.518   8.995   9.155
 7228WAT     H121926   1.583   9.052   9.104
 7228WAT     H221927   1.568   8.920   9.198
 7229WAT      O21928   2.235   4.744   8.845
 7229WAT     H121929   2.198   4.762   8.754
 7229WAT     H221930   2.175   4.681   8.894
 7230WAT      O21931   8.820   7.937   4.623
 7230WAT     H121932   8.801   7.901   4.714
 7230WAT     H221933   8.865   8.026   4.630
 7231WAT      O21934   8.636   6.235   3.404
 7231WAT     H121935   8.708   6.171   3.431
 7231WAT     H221936   8.548   6.202   3.438
 7232WAT      O21937   1.962   3.975   7.208
 7232WAT     H121938   1.901   4.047   7.242
 7232WAT     H221939   1.948   3.892   7.263
 7233WAT      O21940   7.664   2.928   6.341
 7233WAT     H121941   7.719   2.872   6.279
 7233WAT     H221942   7.697   3.023   6.337
 7234WAT      O21943   0.488   5.980   3.524
 7234WAT     H121944   0.547   5.901   3.540
 7234WAT     H221945   0.541   6.064   3.536
 7235WAT      O21946   0.877   6.864   2.101
 7235WAT     H121947   0.865   6.871   2.002
 7235WAT     H221948   0.924   6.946   2.135
 7236WAT      O21949   3.794   1.428   8.275
 7236WAT     H121950   3.880   1.381   8.254
 7236WAT     H221951   3.747   1.380   8.349
 7237WAT      O21952   2.599   8.358   5.908
 7237WAT     H121953   2.584   8.401   5.997
 7237WAT     H221954   2.587   8.426   5.836
 7238WAT      O21955   2.036   6.485   9.110
 7238WAT     H121956   2.110   6.492   9.044
 7238WAT     H221957   1.999   6.392   9.108
 7239WAT      O21958   0.585   7.133   9.859
 7239WAT     H121959   0.518   7.204   9.840
 7239WAT     H221960   0.567   7.054   9.800
 7240WAT      O21961   8.250   7.211   7.760
 7240WAT     H121962   8.219   7.207   7.665
 7240WAT     H221963   8.251   7.306   7.790
 7241WAT      O21964   1.344   3.651   3.935
 7241WAT     H121965   1.248   3.635   3.912
 7241WAT     H221966   1.401   3.633   3.855
 7242WAT      O21967   1.670   3.083   3.770
 7242WAT     H121968   1.688   3.033   3.855
 7242WAT     H221969   1.747   3.070   3.707
 7243WAT      O21970   3.809   3.540   7.462
 7243WAT     H121971   3.801   3.506   7.556
 7243WAT     H221972   3.844   3.467   7.403
 7244WAT      O21973   5.662   0.684   0.927
 7244WAT     H121974   5.681   0.602   0.980
 7244WAT     H221975   5.568   0.682   0.893
 7245WAT      O21976   5.207   8.928   3.844
 7245WAT     H121977   5.181   8.971   3.931
 7245WAT     H221978   5.179   8.986   3.768
 7246WAT      O21979   4.726   0.889   1.899
 7246WAT     H121980   4.635   0.912   1.863
 7246WAT     H221981   4.766   0.970   1.942
 7247WAT      O21982   7.859   4.727   9.563
 7247WAT     H121983   7.781   4.709   9.623
 7247WAT     H221984   7.828   4.777   9.482
 7248WAT      O21985   1.389   3.465   7.557
 7248WAT     H121986   1.307   3.520   7.545
 7248WAT     H221987   1.446   3.471   7.475
 7249WAT      O21988   8.323   3.760   6.299
 7249WAT     H121989   8.324   3.750   6.398
 7249WAT     H221990   8.238   3.723   6.262
 7250WAT      O21991   5.417   0.815   5.181
 7250WAT     H121992   5.331   0.851   5.145
 7250WAT     H221993   5.425   0.839   5.277
 7251WAT      O21994   5.152   8.674   3.497
 7251WAT     H121995   5.243   8.635   3.511
 7251WAT     H221996   5.158   8.773   3.497
 7252WAT      O21997   1.885   3.723   7.298
 7252WAT     H121998   1.787   3.707   7.307
 7252WAT     H221999   1.935   3.643   7.332
 7253WAT      O22000   3.123   6.716   2.690
 7253WAT     H122001   3.145   6.786   2.622
 7253WAT     H222002   3.024   6.715   2.705
 7254WAT      O22003   9.862   5.387   1.615
 7254WAT     H122004   9.779   5.422   1.571
 7254WAT     H222005   9.844   5.297   1.654
 7255WAT      O22006   6.349   7.461   3.874
 7255WAT     H122007   6.373   7.364   3.876
 7255WAT     H222008   6.260   7.473   3.830
 7256WAT      O22009   9.870   4.358   3.869
 7256WAT     H122010   9.964   4.337   3.896
 7256WAT     H222011   9.844   4.447   3.908
 7257WAT      O22012   7.242   6.179   6.617
 7257WAT     H122013   7.188   6.189   6.534
 7257WAT     H222014   7.201   6.233   6.691
 7258WAT      O22015   4.116   1.730   3.878
 7258WAT     H122016   4.043   1.719   3.810
 7258WAT     H222017   4.167   1.814   3.858
 7259WAT      O22018   7.023   1.853   4.221
 7259WAT     H122019   7.111   1.897   4.237
 7259WAT     H222020   6.983   1.826   4.309
 7260WAT      O22021   4.838   0.575   8.246
 7260WAT     H122022   4.777   0.517   8.300
 7260WAT     H222023   4.907   0.615   8.306
 7261WAT      O22024   1.665   2.775   3.370
 7261WAT     H122025   1.580   2.754   3.417
 7261WAT     H222026   1.655   2.756   3.273
 7262WAT      O22027   1.746   1.102   6.893
 7262WAT     H122028   1.843   1.080   6.904
 7262WAT     H222029   1.732   1.144   6.803
 7263WAT      O22030   1.263   9.674   7.162
 7263WAT     H122031   1.167   9.646   7.168
 7263WAT     H222032   1.320   9.593   7.149
 7264WAT      O22033   0.227   3.730   0.007
 7264WAT     H122034   0.320   3.765  -0.003
 7264WAT     H222035   0.184   3.771   0.088
 7265WAT      O22036   7.637   8.720   6.314
 7265WAT     H122037   7.617   8.814   6.340
 7265WAT     H222038   7.574   8.690   6.243
 7266WAT      O22039   8.229   9.418   2.103
 7266WAT     H122040   8.251   9.513   2.125
 7266WAT     H222041   8.169   9.381   2.175
 7267WAT      O22042   1.363   6.467   1.224
 7267WAT     H122043   1.414   6.438   1.306
 7267WAT     H222044   1.357   6.566   1.222
 7268WAT      O22045   7.271   4.897   8.859
 7268WAT     H122046   7.235   4.968   8.920
 7268WAT     H222047   7.196   4.836   8.832
 7269WAT      O22048   3.329   4.686   9.461
 7269WAT     H122049   3.388   4.711   9.538
 7269WAT     H222050   3.234   4.687   9.491
 7270WAT      O22051   1.698   8.880   6.198
 7270WAT     H122052   1.631   8.814   6.231
 7270WAT     H222053   1.736   8.849   6.111
 7271WAT      O22054   3.531   5.281   7.056
 7271WAT     H122055   3.600   5.271   7.128
 7271WAT     H222056   3.568   5.249   6.969
 7272WAT      O22057   3.389   0.225   8.794
 7272WAT     H122058   3.350   0.278   8.718
 7272WAT     H222059   3.427   0.288   8.861
 7273WAT      O22060   0.903   6.475   9.690
 7273WAT     H122061   0.921   6.555   9.632
 7273WAT     H222062   0.962   6.399   9.661
 7274WAT      O22063   8.154   1.642   9.457
 7274WAT     H122064   8.237   1.694   9.437
 7274WAT     H222065   8.130   1.585   9.379
 7275WAT      O22066   2.249   9.262   5.903
 7275WAT     H122067   2.311   9.284   5.828
 7275WAT     H222068   2.300   9.217   5.976
 7276WAT      O22069   4.130   2.479   5.706
 7276WAT     H122070   4.144   2.383   5.684
 7276WAT     H222071   4.131   2.492   5.805
 7277WAT      O22072   4.073   8.077   1.374
 7277WAT     H122073   4.093   8.059   1.277
 7277WAT     H222074   4.075   8.176   1.390
 7278WAT      O22075   3.975   1.068   5.849
 7278WAT     H122076   4.061   1.111   5.877
 7278WAT     H222077   3.994   0.994   5.785
 7279WAT      O22078   5.879   8.945   4.433
 7279WAT     H122079   5.923   9.021   4.385
 7279WAT     H222080   5.904   8.859   4.389
 7280WAT      O22081   4.639   3.496   9.061
 7280WAT     H122082   4.581   3.433   9.010
 7280WAT     H222083   4.600   3.514   9.151
 7281WAT      O22084   5.633   2.200   3.981
 7281WAT     H122085   5.610   2.197   3.883
 7281WAT     H222086   5.707   2.135   3.999
 7282WAT      O22087   3.325   8.556   0.948
 7282WAT     H122088   3.316   8.543   0.849
 7282WAT     H222089   3.420   8.540   0.975
 7283WAT      O22090   2.507   9.438   6.048
 7283WAT     H122091   2.527   9.395   5.960
 7283WAT     H222092   2.519   9.537   6.040
 7284WAT      O22093   8.812   7.275   2.453
 7284WAT     H122094   8.824   7.201   2.386
 7284WAT     H222095   8.901   7.313   2.477
 7285WAT      O22096   8.604   5.425   8.909
 7285WAT     H122097   8.526   5.469   8.865
 7285WAT     H222098   8.571   5.359   8.976
 7286WAT      O22099   5.306   0.296   7.391
 7286WAT     H122100   5.317   0.396   7.389
 7286WAT     H222101   5.290   0.266   7.486
 7287WAT      O22102   2.483   8.537   5.705
 7287WAT     H122103   2.399   8.490   5.677
 7287WAT     H222104   2.459   8.615   5.762
 7288WAT      O22105   1.677   0.897   3.424
 7288WAT     H122106   1.600   0.839   3.398
 7288WAT     H222107   1.655   0.993   3.404
 7289WAT      O22108   6.146   1.150   3.857
 7289WAT     H122109   6.143   1.187   3.949
 7289WAT     H222110   6.089   1.068   3.852
 7290WAT      O22111   7.721   5.622   1.133
 7290WAT     H122112   7.687   5.710   1.100
 7290WAT     H222113   7.744   5.564   1.055
 7291WAT      O22114   3.193   4.973   5.005
 7291WAT     H122115   3.237   5.063   5.014
 7291WAT     H222116   3.263   4.903   4.993
 7292WAT      O22117   2.795   2.041   9.339
 7292WAT     H122118   2.700   2.045   9.369
 7292WAT     H222119   2.825   2.131   9.309
 7293WAT      O22120   1.454   8.296   2.945
 7293WAT     H122121   1.400   8.316   3.027
 7293WAT     H222122   1.413   8.219   2.896
 7294WAT      O22123   2.333   3.618   2.897
 7294WAT     H122124   2.297   3.630   2.805
 7294WAT     H222125   2.266   3.650   2.964
 7295WAT      O22126   8.667   7.596   5.501
 7295WAT     H122127   8.724   7.532   5.450
 7295WAT     H222128   8.579   7.554   5.521
 7296WAT      O22129   7.004   1.873   1.087
 7296WAT     H122130   6.999   1.774   1.103
 7296WAT     H222131   6.942   1.920   1.151
 7297WAT      O22132   6.628   8.129   7.087
 7297WAT     H122133   6.618   8.220   7.126
 7297WAT     H222134   6.724   8.110   7.071
 7298WAT      O22135   6.740   9.018   2.727
 7298WAT     H122136   6.684   8.941   2.695
 7298WAT     H222137   6.806   9.043   2.656
 7299WAT      O22138   5.213   7.950   3.785
 7299WAT     H122139   5.147   7.950   3.710
 7299WAT     H222140   5.305   7.938   3.748
 7300WAT      O22141   2.143   3.107   4.251
 7300WAT     H122142   2.147   3.112   4.151
 7300WAT     H222143   2.227   3.063   4.285
 7301WAT      O22144   3.938   7.096   5.485
 7301WAT     H122145   3.857   7.053   5.523
 7301WAT     H222146   3.912   7.159   5.412
 7302WAT      O22147   8.898   7.860   9.715
 7302WAT     H122148   8.933   7.883   9.624
 7302WAT     H222149   8.853   7.771   9.712
 7303WAT      O22150   1.600   6.530   3.437
 7303WAT     H122151   1.641   6.451   3.482
 7303WAT     H222152   1.500   6.522   3.442
 7304WAT      O22153   7.945   7.794   6.874
 7304WAT     H122154   7.937   7.889   6.904
 7304WAT     H222155   7.862   7.744   6.900
 7305WAT      O22156   7.907   9.099   1.404
 7305WAT     H122157   7.832   9.034   1.407
 7305WAT     H222158   7.874   9.189   1.433
 7306WAT      O22159   0.559   3.819   3.130
 7306WAT     H122160   0.603   3.729   3.141
 7306WAT     H222161   0.577   3.853   3.038
 7307WAT      O22162   9.389   7.042   0.260
 7307WAT     H122163   9.305   7.008   0.218
 7307WAT     H222164   9.440   7.097   0.193
 7308WAT      O22165   3.204   6.410   3.320
 7308WAT     H122166   3.178   6.475   3.249
 7308WAT     H222167   3.231   6.460   3.403
 7309WAT      O22168   8.611   3.277   5.944
 7309WAT     H122169   8.676   3.216   5.899
 7309WAT     H222170   8.625   3.273   6.043
 7310WAT      O22171   6.137   8.028   0.130
 7310WAT     H122172   6.072   7.953   0.145
 7310WAT     H222173   6.154   8.075   0.216
 7311WAT      O22174   9.549   2.911   4.202
 7311WAT     H122175   9.561   2.847   4.278
 7311WAT     H222176   9.461   2.959   4.213
 7312WAT      O22177   4.128   8.335   9.645
 7312WAT     H122178   4.084   8.272   9.581
 7312WAT     H222179   4.064   8.409   9.668
 7313WAT      O22180   4.991   4.529   0.728
 7313WAT     H122181   4.901   4.537   0.685
 7313WAT     H222182   5.059   4.575   0.672
 7314WAT      O22183   2.143   4.191   4.169
 7314WAT     H122184   2.100   4.192   4.079
 7314WAT     H222185   2.073   4.174   4.239
 7315WAT      O22186   8.264   3.768   2.888
 7315WAT     H122187   8.340   3.703   2.875
 7315WAT     H222188   8.289   3.834   2.958
 7316WAT      O22189   1.150   1.688   2.119
 7316WAT     H122190   1.076   1.721   2.178
 7316WAT     H222191   1.124   1.601   2.078
 7317WAT      O22192   2.042   3.923   2.904
 7317WAT     H122193   2.141   3.928   2.921
 7317WAT     H222194   1.999   4.008   2.933
 7318WAT      O22195   7.905   1.701   0.568
 7318WAT     H122196   7.806   1.708   0.555
 7318WAT     H222197   7.949   1.778   0.521
 7319WAT      O22198   6.080   2.562   6.060
 7319WAT     H122199   6.064   2.592   5.966
 7319WAT     H222200   6.105   2.640   6.116
 7320WAT      O22201   6.952   8.456   4.828
 7320WAT     H122202   6.921   8.464   4.923
 7320WAT     H222203   7.044   8.416   4.826
 7321WAT      O22204   0.635   5.479   4.477
 7321WAT     H122205   0.548   5.445   4.513
 7321WAT     H222206   0.671   5.549   4.538
 7322WAT      O22207   7.762   4.178   1.003
 7322WAT     H122208   7.682   4.197   0.946
 7322WAT     H222209   7.757   4.232   1.087
 7323WAT      O22210   1.243   5.982   8.739
 7323WAT     H122211   1.229   5.953   8.645
 7323WAT     H222212   1.183   6.059   8.760
 7324WAT      O22213   9.799   6.502   5.204
 7324WAT     H122214   9.748   6.456   5.131
 7324WAT     H222215   9.871   6.559   5.164
 7325WAT      O22216   8.615   2.313   6.524
 7325WAT     H122217   8.705   2.346   6.554
 7325WAT     H222218   8.570   2.384   6.470
 7326WAT      O22219   9.733   4.551   9.289
 7326WAT     H122220   9.818   4.530   9.242
 7326WAT     H222221   9.741   4.639   9.336
 7327WAT      O22222   0.105   4.369   6.112
 7327WAT     H122223   0.118   4.457   6.157
 7327WAT     H222224   0.008   4.348   6.106
 7328WAT      O22225   8.629   6.396   4.535
 7328WAT     H122226   8.675   6.394   4.446
 7328WAT     H222227   8.597   6.488   4.554
 7329WAT      O22228   4.678   7.716   8.775
 7329WAT     H122229   4.764   7.746   8.735
 7329WAT     H222230   4.602   7.745   8.717
 7330WAT      O22231   5.947   7.722   0.870
 7330WAT     H122232   6.037   7.723   0.827
 7330WAT     H222233   5.915   7.817   0.883
 7331WAT      O22234   0.610   5.058   8.817
 7331WAT     H122235   0.542   5.050   8.890
 7331WAT     H222236   0.665   5.140   8.831
 7332WAT      O22237   9.811   7.075   8.170
 7332WAT     H122238   9.752   7.012   8.221
 7332WAT     H222239   9.765   7.163   8.161
 7333WAT      O22240   2.090   8.561   5.895
 7333WAT     H122241   2.111   8.473   5.937
 7333WAT     H222242   2.055   8.546   5.803
 7334WAT      O22243   2.646   5.961   2.187
 7334WAT     H122244   2.688   6.023   2.122
 7334WAT     H222245   2.560   5.999   2.220
 7335WAT      O22246   1.612   5.459   8.742
 7335WAT     H122247   1.565   5.544   8.764
 7335WAT     H222248   1.686   5.443   8.808
 7336WAT      O22249   8.377   0.417   7.942
 7336WAT     H122250   8.320   0.488   7.900
 7336WAT     H222251   8.422   0.364   7.870
 7337WAT      O22252   5.726   6.260   6.377
 7337WAT     H122253   5.699   6.179   6.325
 7337WAT     H222254   5.768   6.327   6.315
 7338WAT      O22255   5.085   2.887   3.985
 7338WAT     H122256   5.137   2.813   4.028
 7338WAT     H222257   5.145   2.943   3.929
 7339WAT      O22258   2.510   2.810   7.806
 7339WAT     H122259   2.579   2.785   7.875
 7339WAT     H222260   2.512   2.744   7.732
 7340WAT      O22261   6.077   2.608   3.624
 7340WAT     H122262   6.046   2.590   3.531
 7340WAT     H222263   6.034   2.691   3.658
 7341WAT      O22264   6.148   7.444   3.678
 7341WAT     H122265   6.165   7.533   3.636
 7341WAT     H222266   6.162   7.372   3.609
 7342WAT      O22267   3.307   4.942   7.329
 7342WAT     H122268   3.210   4.947   7.351
 7342WAT     H222269   3.324   4.990   7.243
 7343WAT      O22270   0.853   0.697   8.149
 7343WAT     H122271   0.939   0.660   8.112
 7343WAT     H222272   0.874   0.762   8.223
 7344WAT      O22273   0.417   9.398   2.968
 7344WAT     H122274   0.499   9.450   2.944
 7344WAT     H222275   0.384   9.347   2.888
 7345WAT      O22276   0.769   0.151   4.724
 7345WAT     H122277   0.740   0.246   4.714
 7345WAT     H222278   0.856   0.148   4.772
 7346WAT      O22279   8.082   8.049   9.767
 7346WAT     H122280   8.157   8.015   9.823
 7346WAT     H222281   8.072   8.148   9.780
 7347WAT      O22282   9.542   8.360   0.262
 7347WAT     H122283   9.551   8.443   0.207
 7347WAT     H222284   9.506   8.384   0.353
 7348WAT      O22285   7.211   1.316   3.465
 7348WAT     H122286   7.271   1.389   3.499
 7348WAT     H222287   7.264   1.231   3.456
 7349WAT      O22288   9.160   5.296   4.892
 7349WAT     H122289   9.205   5.300   4.982
 7349WAT     H222290   9.089   5.226   4.894
 7350WAT      O22291   2.406   0.528   6.963
 7350WAT     H122292   2.464   0.452   6.934
 7350WAT     H222293   2.335   0.544   6.895
 7351WAT      O22294   4.623   4.275   0.420
 7351WAT     H122295   4.526   4.299   0.426
 7351WAT     H222296   4.634   4.176   0.428
 7352WAT      O22297   1.273   9.812   8.578
 7352WAT     H122298   1.185   9.801   8.625
 7352WAT     H222299   1.323   9.726   8.580
 7353WAT      O22300   9.578   8.644   6.559
 7353WAT     H122301   9.532   8.608   6.640
 7353WAT     H222302   9.520   8.629   6.478
 7354WAT      O22303   9.738   3.182   7.395
 7354WAT     H122304   9.640   3.162   7.387
 7354WAT     H222305   9.773   3.213   7.307
 7355WAT      O22306   6.393   2.217   3.290
 7355WAT     H122307   6.422   2.140   3.348
 7355WAT     H222308   6.472   2.256   3.244
 7356WAT      O22309   6.000   8.492   5.324
 7356WAT     H122310   6.025   8.473   5.229
 7356WAT     H222311   5.952   8.580   5.328
 7357WAT      O22312   5.960   2.077   5.476
 7357WAT     H122313   5.966   1.986   5.435
 7357WAT     H222314   5.979   2.071   5.574
 7358WAT      O22315   6.074   3.464   7.519
 7358WAT     H122316   5.974   3.470   7.529
 7358WAT     H222317   6.118   3.508   7.597
 7359WAT      O22318   6.850   1.071   0.205
 7359WAT     H122319   6.943   1.102   0.225
 7359WAT     H222320   6.849   0.971   0.199
 7360WAT      O22321   3.114   9.629   3.801
 7360WAT     H122322   3.138   9.655   3.895
 7360WAT     H222323   3.106   9.529   3.795
 7361WAT      O22324   5.200   3.976   7.088
 7361WAT     H122325   5.209   3.907   7.016
 7361WAT     H222326   5.234   4.063   7.054
 7362WAT      O22327   1.136   2.307   9.654
 7362WAT     H122328   1.054   2.269   9.695
 7362WAT     H222329   1.124   2.406   9.642
 7363WAT      O22330   2.276   6.034   4.366
 7363WAT     H122331   2.350   6.100   4.378
 7363WAT     H222332   2.199   6.060   4.425
 7364WAT      O22333   3.658   0.380   6.498
 7364WAT     H122334   3.756   0.368   6.515
 7364WAT     H222335   3.620   0.295   6.462
 7365WAT      O22336   3.561   0.134   0.264
 7365WAT     H122337   3.510   0.205   0.214
 7365WAT     H222338   3.516   0.046   0.250
 7366WAT      O22339   9.069   0.194   4.332
 7366WAT     H122340   8.981   0.240   4.325
 7366WAT     H222341   9.124   0.238   4.403
 7367WAT      O22342   4.273   7.489   2.371
 7367WAT     H122343   4.286   7.420   2.300
 7367WAT     H222344   4.321   7.573   2.344
 7368WAT      O22345   1.019   2.341   0.581
 7368WAT     H122346   0.945   2.278   0.602
 7368WAT     H222347   0.982   2.424   0.540
 7369WAT      O22348   5.088   2.289   5.394
 7369WAT     H122349   4.999   2.332   5.379
 7369WAT     H222350   5.074   2.198   5.434
 7370WAT      O22351   8.493   4.712   3.826
 7370WAT     H122352   8.459   4.622   3.800
 7370WAT     H222353   8.573   4.702   3.886
 7371WAT      O22354   4.720   8.833   5.686
 7371WAT     H122355   4.812   8.800   5.708
 7371WAT     H222356   4.705   8.921   5.732
 7372WAT      O22357   6.263   0.217   9.726
 7372WAT     H122358   6.246   0.138   9.668
 7372WAT     H222359   6.333   0.275   9.685
 7373WAT      O22360   7.595   3.005   6.609
 7373WAT     H122361   7.573   3.100   6.585
 7373WAT     H222362   7.592   2.948   6.527
 7374WAT      O22363   3.933   7.319   9.102
 7374WAT     H122364   3.951   7.355   9.010
 7374WAT     H222365   3.834   7.324   9.121
 7375WAT      O22366   9.214   6.477   6.968
 7375WAT     H122367   9.184   6.535   7.044
 7375WAT     H222368   9.209   6.529   6.883
 7376WAT      O22369   4.577   8.627   3.781
 7376WAT     H122370   4.638   8.558   3.820
 7376WAT     H222371   4.629   8.710   3.760
 7377WAT      O22372   5.137   1.653   2.683
 7377WAT     H122373   5.208   1.585   2.696
 7377WAT     H222374   5.136   1.716   2.761
 7378WAT      O22375   7.571   1.680   5.865
 7378WAT     H122376   7.550   1.584   5.849
 7378WAT     H222377   7.529   1.709   5.952
 7379WAT      O22378   1.239   1.979   8.054
 7379WAT     H122379   1.194   1.942   7.973
 7379WAT     H222380   1.337   1.961   8.050
 7380WAT      O22381   9.291   1.307   7.615
 7380WAT     H122382   9.279   1.329   7.518
 7380WAT     H222383   9.349   1.227   7.624
 7381WAT      O22384   9.599   2.733   2.401
 7381WAT     H122385   9.664   2.805   2.428
 7381WAT     H222386   9.598   2.725   2.301
 7382WAT      O22387   4.568   6.548   7.018
 7382WAT     H122388   4.626   6.476   6.980
 7382WAT     H222389   4.514   6.511   7.093
 7383WAT      O22390   6.462   4.299   0.845
 7383WAT     H122391   6.393   4.306   0.917
 7383WAT     H222392   6.426   4.245   0.770
 7384WAT      O22393   7.549   1.315   3.683
 7384WAT     H122394   7.517   1.222   3.700
 7384WAT     H222395   7.642   1.325   3.718
 7385WAT      O22396   6.593   9.316   8.308
 7385WAT     H122397   6.575   9.344   8.214
 7385WAT     H222398   6.593   9.396   8.367
 7386WAT      O22399   4.955   7.571   9.743
 7386WAT     H122400   4.856   7.557   9.742
 7386WAT     H222401   4.985   7.604   9.653
 7387WAT      O22402   1.643   2.080   7.410
 7387WAT     H122403   1.630   2.164   7.357
 7387WAT     H222404   1.608   2.002   7.358
 7388WAT      O22405   0.487   6.803   4.443
 7388WAT     H122406   0.552   6.823   4.370
 7388WAT     H222407   0.513   6.854   4.526
 7389WAT      O22408   2.470   7.500   7.353
 7389WAT     H122409   2.504   7.473   7.262
 7389WAT     H222410   2.510   7.588   7.379
 7390WAT      O22411   9.734   9.173   7.773
 7390WAT     H122412   9.732   9.077   7.803
 7390WAT     H222413   9.829   9.204   7.768
 7391WAT      O22414   9.738   6.568   2.938
 7391WAT     H122415   9.739   6.667   2.928
 7391WAT     H222416   9.734   6.544   3.035
 7392WAT      O22417   2.006   8.997   4.441
 7392WAT     H122418   2.071   9.073   4.447
 7392WAT     H222419   2.005   8.961   4.348
 7393WAT      O22420   7.364   9.371   3.028
 7393WAT     H122421   7.413   9.438   2.972
 7393WAT     H222422   7.412   9.358   3.115
 7394WAT      O22423   0.348   8.354   5.976
 7394WAT     H122424   0.390   8.285   5.917
 7394WAT     H222425   0.253   8.328   5.996
 7395WAT      O22426   0.095   2.685   2.571
 7395WAT     H122427   0.046   2.722   2.650
 7395WAT     H222428   0.185   2.653   2.600
 7396WAT      O22429   4.793   4.921   9.539
 7396WAT     H122430   4.725   4.860   9.580
 7396WAT     H222431   4.825   4.986   9.608
 7397WAT      O22432   8.014   0.521   7.596
 7397WAT     H122433   8.090   0.525   7.661
 7397WAT     H222434   8.028   0.443   7.535
 7398WAT      O22435   4.044   4.579   9.003
 7398WAT     H122436   4.144   4.583   8.993
 7398WAT     H222437   4.005   4.525   8.928
 7399WAT      O22438   7.574   6.181   0.765
 7399WAT     H122439   7.586   6.270   0.808
 7399WAT     H222440   7.592   6.189   0.667
 7400WAT      O22441   6.709   5.137   7.160
 7400WAT     H122442   6.658   5.054   7.138
 7400WAT     H222443   6.692   5.206   7.090
 7401WAT      O22444   1.015   3.267   5.220
 7401WAT     H122445   0.979   3.360   5.224
 7401WAT     H222446   1.011   3.233   5.125
 7402WAT      O22447   1.868   1.021   4.518
 7402WAT     H122448   1.925   0.952   4.561
 7402WAT     H222449   1.922   1.073   4.452
 7403WAT      O22450   7.708   8.907   5.910
 7403WAT     H122451   7.729   8.812   5.931
 7403WAT     H222452   7.731   8.965   5.988
 7404WAT      O22453   1.991   8.558   9.546
 7404WAT     H122454   2.077   8.512   9.524
 7404WAT     H222455   1.994   8.653   9.515
 7405WAT      O22456   8.764   8.377   7.234
 7405WAT     H122457   8.742   8.310   7.305
 7405WAT     H222458   8.754   8.470   7.271
 7406WAT      O22459   3.619   8.411   2.060
 7406WAT     H122460   3.565   8.351   2.119
 7406WAT     H222461   3.650   8.490   2.112
 7407WAT      O22462   6.579   5.160   4.906
 7407WAT     H122463   6.568   5.237   4.844
 7407WAT     H222464   6.489   5.128   4.935
 7408WAT      O22465   7.830   6.025   1.710
 7408WAT     H122466   7.741   6.050   1.673
 7408WAT     H222467   7.879   5.968   1.644
 7409WAT      O22468   4.408   0.747   9.355
 7409WAT     H122469   4.503   0.761   9.325
 7409WAT     H222470   4.400   0.773   9.451
 7410WAT      O22471   7.374   5.008   9.117
 7410WAT     H122472   7.298   5.056   9.074
 7410WAT     H222473   7.376   4.913   9.085
 7411WAT      O22474   2.542   1.692   5.207
 7411WAT     H122475   2.499   1.688   5.117
 7411WAT     H222476   2.620   1.630   5.209
 7412WAT      O22477   2.464   6.043   7.535
 7412WAT     H122478   2.491   5.959   7.488
 7412WAT     H222479   2.380   6.026   7.588
 7413WAT      O22480   8.623   4.433   1.994
 7413WAT     H122481   8.624   4.527   2.027
 7413WAT     H222482   8.623   4.433   1.894
 7414WAT      O22483   4.120   1.305   7.750
 7414WAT     H122484   4.116   1.396   7.792
 7414WAT     H222485   4.176   1.244   7.807
 7415WAT      O22486   3.086   6.744   9.117
 7415WAT     H122487   2.993   6.779   9.109
 7415WAT     H222488   3.147   6.798   9.059
 7416WAT      O22489   5.972   0.630   8.551
 7416WAT     H122490   5.892   0.591   8.504
 7416WAT     H222491   5.940   0.688   8.626
 7417WAT      O22492   5.347   6.128   2.372
 7417WAT     H122493   5.268   6.189   2.368
 7417WAT     H222494   5.352   6.074   2.288
 7418WAT      O22495   9.087   6.550   0.657
 7418WAT     H122496   9.046   6.473   0.705
 7418WAT     H222497   9.145   6.601   0.720
 7419WAT      O22498   9.188   5.249   9.576
 7419WAT     H122499   9.201   5.337   9.530
 7419WAT     H222500   9.221   5.175   9.517
 7420WAT      O22501   9.114   7.216   4.903
 7420WAT     H122502   9.024   7.246   4.871
 7420WAT     H222503   9.185   7.260   4.849
 7421WAT      O22504   2.664   4.120   1.038
 7421WAT     H122505   2.580   4.147   0.990
 7421WAT     H222506   2.721   4.201   1.052
 7422WAT      O22507   3.012   8.660   2.786
 7422WAT     H122508   3.048   8.623   2.872
 7422WAT     H222509   2.935   8.720   2.806
 7423WAT      O22510   9.767   7.048   1.708
 7423WAT     H122511   9.668   7.065   1.700
 7423WAT     H222512   9.810   7.065   1.619
 7424WAT      O22513   9.647   1.170   3.794
 7424WAT     H122514   9.554   1.156   3.760
 7424WAT     H222515   9.703   1.090   3.773
 7425WAT      O22516   8.578   1.617   6.734
 7425WAT     H122517   8.628   1.653   6.655
 7425WAT     H222518   8.480   1.614   6.713
 7426WAT      O22519   1.373   4.752   8.552
 7426WAT     H122520   1.408   4.698   8.476
 7426WAT     H222521   1.275   4.736   8.562
 7427WAT      O22522   9.576   8.367   6.208
 7427WAT     H122523   9.598   8.463   6.222
 7427WAT     H222524   9.541   8.327   6.292
 7428WAT      O22525   2.058   9.674   4.317
 7428WAT     H122526   2.052   9.712   4.410
 7428WAT     H222527   1.967   9.648   4.286
 7429WAT      O22528   9.371   0.699   3.556
 7429WAT     H122529   9.296   0.764   3.564
 7429WAT     H222530   9.457   0.744   3.582
 7430WAT      O22531   2.271   0.609   3.093
 7430WAT     H122532   2.314   0.646   3.176
 7430WAT     H222533   2.280   0.674   3.018
 7431WAT      O22534   1.676   5.543   3.500
 7431WAT     H122535   1.690   5.551   3.401
 7431WAT     H222536   1.692   5.448   3.528
 7432WAT      O22537   1.930   7.408   5.028
 7432WAT     H122538   1.969   7.401   4.936
 7432WAT     H222539   1.899   7.502   5.043
 7433WAT      O22540   8.673   3.703   8.292
 7433WAT     H122541   8.723   3.757   8.360
 7433WAT     H222542   8.659   3.611   8.327
 7434WAT      O22543   4.268   4.790   2.243
 7434WAT     H122544   4.364   4.762   2.256
 7434WAT     H222545   4.256   4.884   2.275
 7435WAT      O22546   7.396   5.681   1.005
 7435WAT     H122547   7.341   5.732   0.939
 7435WAT     H222548   7.440   5.745   1.068
 7436WAT      O22549   6.977   4.880   4.159
 7436WAT     H122550   6.987   4.790   4.117
 7436WAT     H222551   7.067   4.925   4.164
 7437WAT      O22552   8.891   0.355   3.653
 7437WAT     H122553   8.968   0.292   3.643
 7437WAT     H222554   8.924   0.442   3.689
 7438WAT      O22555   9.770   8.507   5.865
 7438WAT     H122556   9.686   8.544   5.906
 7438WAT     H222557   9.771   8.527   5.767
 7439WAT      O22558   5.293   6.915   8.760
 7439WAT     H122559   5.208   6.910   8.813
 7439WAT     H222560   5.273   6.912   8.663
 7440WAT      O22561   0.110   1.129   8.246
 7440WAT     H122562   0.209   1.114   8.239
 7440WAT     H222563   0.092   1.222   8.279
 7441WAT      O22564   0.276   6.224   8.245
 7441WAT     H122565   0.271   6.143   8.304
 7441WAT     H222566   0.257   6.305   8.300
 7442WAT      O22567   3.867   4.148   5.251
 7442WAT     H122568   3.910   4.059   5.232
 7442WAT     H222569   3.900   4.183   5.339
 7443WAT      O22570   9.117   9.790   8.965
 7443WAT     H122571   9.184   9.816   9.034
 7443WAT     H222572   9.074   9.872   8.927
 7444WAT      O22573   1.907   4.973   3.346
 7444WAT     H122574   1.974   5.026   3.398
 7444WAT     H222575   1.922   4.987   3.248
 7445WAT      O22576   6.514   8.206   5.157
 7445WAT     H122577   6.440   8.261   5.195
 7445WAT     H222578   6.513   8.115   5.199
 7446WAT      O22579   2.247   8.296   8.143
 7446WAT     H122580   2.300   8.380   8.127
 7446WAT     H222581   2.310   8.219   8.157
 7447WAT      O22582   7.666   8.906   5.285
 7447WAT     H122583   7.665   8.997   5.327
 7447WAT     H222584   7.754   8.891   5.240
 7448WAT      O22585   7.021   1.648   7.689
 7448WAT     H122586   7.007   1.667   7.786
 7448WAT     H222587   6.936   1.666   7.639
 7449WAT      O22588   2.470   6.375   5.005
 7449WAT     H122589   2.550   6.432   5.024
 7449WAT     H222590   2.404   6.386   5.079
 7450WAT      O22591   7.613   2.006   1.597
 7450WAT     H122592   7.658   2.083   1.642
 7450WAT     H222593   7.629   1.922   1.650
 7451WAT      O22594   1.131   5.329   9.626
 7451WAT     H122595   1.140   5.358   9.531
 7451WAT     H222596   1.139   5.229   9.631
 7452WAT      O22597   4.438   7.616   0.128
 7452WAT     H122598   4.396   7.647   0.043
 7452WAT     H222599   4.390   7.655   0.206
 7453WAT      O22600   6.861   3.127   6.502
 7453WAT     H122601   6.872   3.038   6.546
 7453WAT     H222602   6.812   3.190   6.563
 7454WAT      O22603   5.204   9.150   8.631
 7454WAT     H122604   5.218   9.231   8.573
 7454WAT     H222605   5.205   9.178   8.727
 7455WAT      O22606   7.334   1.353   8.578
 7455WAT     H122607   7.246   1.307   8.570
 7455WAT     H222608   7.407   1.286   8.571
 7456WAT      O22609   9.545   0.548   3.826
 7456WAT     H122610   9.529   0.481   3.899
 7456WAT     H222611   9.547   0.501   3.738
 7457WAT      O22612   5.004   6.532   7.254
 7457WAT     H122613   4.940   6.602   7.223
 7457WAT     H222614   5.093   6.547   7.211
 7458WAT      O22615   9.160   1.637   1.614
 7458WAT     H122616   9.246   1.603   1.652
 7458WAT     H222617   9.157   1.737   1.622
 7459WAT      O22618   0.242   1.282   7.578
 7459WAT     H122619   0.330   1.237   7.567
 7459WAT     H222620   0.252   1.362   7.636
 7460WAT      O22621   0.031   8.688   9.862
 7460WAT     H122622   0.073   8.705   9.773
 7460WAT     H222623  -0.038   8.616   9.853
 7461WAT      O22624   0.576   5.568   0.263
 7461WAT     H122625   0.602   5.598   0.171
 7461WAT     H222626   0.578   5.646   0.325
 7462WAT      O22627   9.022   8.426   3.430
 7462WAT     H122628   8.971   8.430   3.516
 7462WAT     H222629   8.978   8.361   3.368
 7463WAT      O22630   9.464   8.976   9.304
 7463WAT     H122631   9.530   8.941   9.370
 7463WAT     H222632   9.409   8.901   9.268
 7464WAT      O22633   8.897   0.794   9.879
 7464WAT     H122634   8.846   0.781   9.964
 7464WAT     H222635   8.912   0.892   9.864
 7465WAT      O22636   4.288   8.239   7.122
 7465WAT     H122637   4.321   8.331   7.099
 7465WAT     H222638   4.273   8.233   7.221
 7466WAT      O22639   2.414   4.107   8.894
 7466WAT     H122640   2.370   4.019   8.875
 7466WAT     H222641   2.389   4.172   8.823
 7467WAT      O22642   8.295   1.096   0.148
 7467WAT     H122643   8.343   1.081   0.234
 7467WAT     H222644   8.293   1.194   0.127
 7468WAT      O22645   8.985   4.262   5.146
 7468WAT     H122646   9.082   4.261   5.122
 7468WAT     H222647   8.930   4.258   5.063
 7469WAT      O22648   9.496   5.965   2.632
 7469WAT     H122649   9.487   6.014   2.718
 7469WAT     H222650   9.405   5.934   2.602
 7470WAT      O22651   7.669   9.314   5.097
 7470WAT     H122652   7.635   9.229   5.057
 7470WAT     H222653   7.711   9.370   5.026
 7471WAT      O22654   2.387   1.084   8.966
 7471WAT     H122655   2.335   1.152   8.915
 7471WAT     H222656   2.482   1.084   8.935
 7472WAT      O22657   6.377   8.387   6.781
 7472WAT     H122658   6.440   8.430   6.845
 7472WAT     H222659   6.325   8.316   6.828
 7473WAT      O22660   3.689   5.768   2.319
 7473WAT     H122661   3.617   5.834   2.343
 7473WAT     H222662   3.694   5.761   2.219
 7474WAT      O22663   1.586   9.291   4.457
 7474WAT     H122664   1.653   9.220   4.477
 7474WAT     H222665   1.615   9.342   4.376
 7475WAT      O22666   0.598   3.575   7.536
 7475WAT     H122667   0.614   3.634   7.456
 7475WAT     H222668   0.618   3.626   7.619
 7476WAT      O22669   8.305   0.295   4.546
 7476WAT     H122670   8.386   0.265   4.596
 7476WAT     H222671   8.276   0.223   4.483
 7477WAT      O22672   4.774   2.177   1.247
 7477WAT     H122673   4.807   2.143   1.335
 7477WAT     H222674   4.817   2.125   1.173
 7478WAT      O22675   4.906   1.555   8.921
 7478WAT     H122676   4.835   1.554   8.992
 7478WAT     H222677   4.865   1.529   8.833
 7479WAT      O22678   2.282   0.563   2.058
 7479WAT     H122679   2.205   0.509   2.091
 7479WAT     H222680   2.313   0.626   2.130
 7480WAT      O22681   3.506   4.463   5.688
 7480WAT     H122682   3.414   4.467   5.726
 7480WAT     H222683   3.521   4.542   5.628
 7481WAT      O22684   9.220   6.014   4.179
 7481WAT     H122685   9.262   5.923   4.173
 7481WAT     H222686   9.195   6.033   4.274
 7482WAT      O22687   5.892   5.376   5.921
 7482WAT     H122688   5.985   5.343   5.907
 7482WAT     H222689   5.830   5.298   5.935
 7483WAT      O22690   8.336   4.206   1.671
 7483WAT     H122691   8.432   4.202   1.644
 7483WAT     H222692   8.312   4.123   1.721
 7484WAT      O22693   9.742   8.421   6.534
 7484WAT     H122694   9.698   8.510   6.521
 7484WAT     H222695   9.687   8.365   6.597
 7485WAT      O22696   9.210   6.561   7.908
 7485WAT     H122697   9.121   6.520   7.926
 7485WAT     H222698   9.209   6.603   7.817
 7486WAT      O22699   9.050   1.336   8.433
 7486WAT     H122700   9.027   1.357   8.528
 7486WAT     H222701   9.149   1.325   8.424
 7487WAT      O22702   8.001   5.599   6.207
 7487WAT     H122703   8.030   5.680   6.156
 7487WAT     H222704   7.912   5.568   6.173
 7488WAT      O22705   7.415   2.063   6.239
 7488WAT     H122706   7.421   2.118   6.323
 7488WAT     H222707   7.323   2.027   6.229
 7489WAT      O22708   4.093   4.422   1.379
 7489WAT     H122709   4.126   4.346   1.435
 7489WAT     H222710   4.061   4.496   1.439
 7490WAT      O22711   5.876   0.911   4.225
 7490WAT     H122712   5.783   0.875   4.229
 7490WAT     H222713   5.925   0.887   4.309
 7491WAT      O22714   2.762   8.937   3.441
 7491WAT     H122715   2.798   8.973   3.528
 7491WAT     H222716   2.663   8.924   3.449
 7492WAT      O22717   0.471   3.530   2.971
 7492WAT     H122718   0.415   3.498   3.047
 7492WAT     H222719   0.562   3.555   3.004
 7493WAT      O22720   4.706   0.963   1.420
 7493WAT     H122721   4.660   0.899   1.482
 7493WAT     H222722   4.805   0.955   1.433
 7494WAT      O22723   8.744   5.094   8.343
 7494WAT     H122724   8.780   5.090   8.250
 7494WAT     H222725   8.762   5.184   8.382
 7495WAT      O22726   0.923   8.801   0.405
 7495WAT     H122727   0.880   8.719   0.441
 7495WAT     H222728   0.907   8.806   0.306
 7496WAT      O22729   0.493   0.276   3.891
 7496WAT     H122730   0.567   0.268   3.824
 7496WAT     H222731   0.478   0.187   3.935
 7497WAT      O22732   1.164   4.808   0.050
 7497WAT     H122733   1.136   4.895   0.089
 7497WAT     H222734   1.083   4.757   0.020
 7498WAT      O22735   1.756   5.350   3.906
 7498WAT     H122736   1.834   5.363   3.845
 7498WAT     H222737   1.673   5.383   3.862
 7499WAT      O22738   4.160   7.733   8.570
 7499WAT     H122739   4.204   7.738   8.481
 7499WAT     H222740   4.178   7.643   8.611
 7500WAT      O22741   6.739   8.870   3.700
 7500WAT     H122742   6.800   8.883   3.777
 7500WAT     H222743   6.790   8.882   3.614
 7501WAT      O22744   0.880   9.330   2.367
 7501WAT     H122745   0.892   9.428   2.382
 7501WAT     H222746   0.814   9.295   2.433
 7502WAT      O22747   2.056   7.386   1.861
 7502WAT     H122748   2.156   7.387   1.860
 7502WAT     H222749   2.022   7.480   1.868
 7503WAT      O22750   3.978   2.777   4.081
 7503WAT     H122751   3.887   2.785   4.043
 7503WAT     H222752   3.988   2.688   4.126
 7504WAT      O22753   0.385   8.644   6.490
 7504WAT     H122754   0.454   8.577   6.461
 7504WAT     H222755   0.335   8.677   6.409
 7505WAT      O22756   8.564   2.471   1.177
 7505WAT     H122757   8.627   2.399   1.203
 7505WAT     H222758   8.614   2.557   1.165
 7506WAT      O22759   5.084   7.656   4.427
 7506WAT     H122760   4.995   7.692   4.455
 7506WAT     H222761   5.153   7.727   4.438
 7507WAT      O22762   1.448   0.362   8.542
 7507WAT     H122763   1.361   0.320   8.516
 7507WAT     H222764   1.453   0.371   8.642
 7508WAT      O22765   8.627   1.876   3.397
 7508WAT     H122766   8.688   1.952   3.416
 7508WAT     H222767   8.638   1.805   3.466
 7509WAT      O22768   4.039   0.264   5.678
 7509WAT     H122769   4.099   0.281   5.757
 7509WAT     H222770   4.025   0.166   5.668
 7510WAT      O22771   2.413   5.405   9.484
 7510WAT     H122772   2.475   5.436   9.556
 7510WAT     H222773   2.462   5.405   9.396
 7511WAT      O22774   9.771   9.137   8.848
 7511WAT     H122775   9.802   9.231   8.837
 7511WAT     H222776   9.684   9.125   8.799
 7512WAT      O22777   4.700   7.571   5.966
 7512WAT     H122778   4.725   7.530   5.878
 7512WAT     H222779   4.700   7.671   5.956
 7513WAT      O22780   8.866   1.297   3.992
 7513WAT     H122781   8.835   1.250   4.075
 7513WAT     H222782   8.889   1.392   4.014
 7514WAT      O22783   1.857   9.575   5.835
 7514WAT     H122784   1.808   9.535   5.758
 7514WAT     H222785   1.910   9.504   5.881
 7515WAT      O22786   1.313   1.178   1.244
 7515WAT     H122787   1.288   1.088   1.207
 7515WAT     H222788   1.258   1.249   1.200
 7516WAT      O22789   7.322   5.827   1.644
 7516WAT     H122790   7.407   5.783   1.618
 7516WAT     H222791   7.302   5.902   1.581
 7517WAT      O22792   8.108   8.232   6.825
 7517WAT     H122793   8.147   8.315   6.865
 7517WAT     H222794   8.119   8.156   6.889
 7518WAT      O22795   0.845   0.067   7.869
 7518WAT     H122796   0.812   0.087   7.962
 7518WAT     H222797   0.885   0.150   7.830
 7519WAT      O22798   0.007   8.059   0.095
 7519WAT     H122799  -0.040   8.144   0.122
 7519WAT     H222800   0.081   8.081   0.031
 7520WAT      O22801   1.365   9.010   6.778
 7520WAT     H122802   1.324   8.995   6.869
 7520WAT     H222803   1.451   9.059   6.789
 7521WAT      O22804   5.837   9.024   9.892
 7521WAT     H122805   5.827   9.087   9.969
 7521WAT     H222806   5.855   9.075   9.808
 7522WAT      O22807   0.751   7.035   4.668
 7522WAT     H122808   0.761   7.075   4.759
 7522WAT     H222809   0.662   6.991   4.660
 7523WAT      O22810   7.166   3.329   5.508
 7523WAT     H122811   7.197   3.396   5.575
 7523WAT     H222812   7.244   3.294   5.457
 7524WAT      O22813   0.714   0.379   8.503
 7524WAT     H122814   0.649   0.305   8.520
 7524WAT     H222815   0.743   0.419   8.590
 7525WAT      O22816   4.884   1.992   1.067
 7525WAT     H122817   4.865   1.898   1.095
 7525WAT     H222818   4.901   1.996   0.969
 7526WAT      O22819   8.020   6.061   5.753
 7526WAT     H122820   8.005   6.085   5.849
 7526WAT     H222821   7.962   6.119   5.695
 7527WAT      O22822   7.329   0.635   6.114
 7527WAT     H122823   7.392   0.646   6.037
 7527WAT     H222824   7.366   0.685   6.193
 7528WAT      O22825   7.201   1.802   8.591
 7528WAT     H122826   7.206   1.845   8.500
 7528WAT     H222827   7.109   1.813   8.628
 7529WAT      O22828   5.858   9.004   3.396
 7529WAT     H122829   5.865   9.051   3.307
 7529WAT     H222830   5.904   8.915   3.390
 7530WAT      O22831   3.864   0.366   6.919
 7530WAT     H122832   3.892   0.462   6.919
 7530WAT     H222833   3.827   0.342   7.009
 7531WAT      O22834   0.771   2.765   4.912
 7531WAT     H122835   0.740   2.671   4.926
 7531WAT     H222836   0.824   2.771   4.827
 7532WAT      O22837   0.507   1.721   7.697
 7532WAT     H122838   0.582   1.662   7.669
 7532WAT     H222839   0.520   1.813   7.660
 7533WAT      O22840   5.442   0.576   7.231
 7533WAT     H122841   5.371   0.598   7.297
 7533WAT     H222842   5.413   0.498   7.175
 7534WAT      O22843   7.533   6.277   0.220
 7534WAT     H122844   7.613   6.216   0.218
 7534WAT     H222845   7.472   6.254   0.144
 7535WAT      O22846   4.164   6.135   2.231
 7535WAT     H122847   4.092   6.077   2.269
 7535WAT     H222848   4.122   6.214   2.186
 7536WAT      O22849   3.198   6.143   1.281
 7536WAT     H122850   3.176   6.073   1.214
 7536WAT     H222851   3.233   6.100   1.364
 7537WAT      O22852   0.412   9.411   3.894
 7537WAT     H122853   0.475   9.403   3.971
 7537WAT     H222854   0.334   9.467   3.921
 7538WAT      O22855   7.139   4.487   5.013
 7538WAT     H122856   7.235   4.498   5.038
 7538WAT     H222857   7.103   4.402   5.052
 7539WAT      O22858   9.768   8.536   7.437
 7539WAT     H122859   9.813   8.607   7.384
 7539WAT     H222860   9.674   8.523   7.404
 7540WAT      O22861   7.190   7.756   7.793
 7540WAT     H122862   7.201   7.680   7.857
 7540WAT     H222863   7.173   7.840   7.845
 7541WAT      O22864   0.930   4.519   7.732
 7541WAT     H122865   0.899   4.448   7.795
 7541WAT     H222866   0.851   4.556   7.682
 7542WAT      O22867   6.175   8.046   5.301
 7542WAT     H122868   6.091   8.011   5.343
 7542WAT     H222869   6.187   8.143   5.323
 7543WAT      O22870   6.092   2.775   4.329
 7543WAT     H122871   6.092   2.699   4.394
 7543WAT     H222872   6.029   2.756   4.254
 7544WAT      O22873   4.814   5.593   0.942
 7544WAT     H122874   4.782   5.555   1.030
 7544WAT     H222875   4.768   5.545   0.867
 7545WAT      O22876   2.415   0.480   0.177
 7545WAT     H122877   2.427   0.390   0.136
 7545WAT     H222878   2.421   0.472   0.277
 7546WAT      O22879   3.127   4.659   5.258
 7546WAT     H122880   3.078   4.573   5.248
 7546WAT     H222881   3.067   4.735   5.231
 7547WAT      O22882   2.899   7.861   7.558
 7547WAT     H122883   2.952   7.817   7.484
 7547WAT     H222884   2.950   7.853   7.644
 7548WAT      O22885   2.272   4.020   8.144
 7548WAT     H122886   2.337   3.969   8.201
 7548WAT     H222887   2.201   3.957   8.111
 7549WAT      O22888   4.102   3.331   1.228
 7549WAT     H122889   4.034   3.402   1.248
 7549WAT     H222890   4.125   3.282   1.313
 7550WAT      O22891   6.408   7.457   6.896
 7550WAT     H122892   6.431   7.361   6.878
 7550WAT     H222893   6.484   7.515   6.865
 7551WAT      O22894   1.550   6.408   8.935
 7551WAT     H122895   1.472   6.357   8.973
 7551WAT     H222896   1.608   6.441   9.010
 7552WAT      O22897   5.430   7.876   3.655
 7552WAT     H122898   5.475   7.786   3.651
 7552WAT     H222899   5.444   7.924   3.569
 7553WAT      O22900   8.830   3.272   3.093
 7553WAT     H122901   8.828   3.178   3.127
 7553WAT     H222902   8.737   3.306   3.081
 7554WAT      O22903   0.872   7.454   7.962
 7554WAT     H122904   0.776   7.447   7.990
 7554WAT     H222905   0.890   7.387   7.890
 7555WAT      O22906   3.072   2.122   3.298
 7555WAT     H122907   2.977   2.154   3.297
 7555WAT     H222908   3.101   2.102   3.204
 7556WAT      O22909   9.723   6.886   4.793
 7556WAT     H122910   9.747   6.943   4.715
 7556WAT     H222911   9.794   6.816   4.806
 7557WAT      O22912   2.073   5.269   8.082
 7557WAT     H122913   2.153   5.216   8.053
 7557WAT     H222914   2.034   5.228   8.164
 7558WAT      O22915   9.129   3.633   0.154
 7558WAT     H122916   9.079   3.620   0.068
 7558WAT     H222917   9.139   3.731   0.172
 7559WAT      O22918   0.884   1.255   3.541
 7559WAT     H122919   0.977   1.273   3.509
 7559WAT     H222920   0.879   1.163   3.578
 7560WAT      O22921   4.659   3.836   8.317
 7560WAT     H122922   4.673   3.840   8.416
 7560WAT     H222923   4.669   3.928   8.278
 7561WAT      O22924   3.117   4.317   5.448
 7561WAT     H122925   3.168   4.403   5.450
 7561WAT     H222926   3.157   4.253   5.515
 7562WAT      O22927   8.913   0.116   8.522
 7562WAT     H122928   8.888   0.188   8.587
 7562WAT     H222929   9.012   0.115   8.508
 7563WAT      O22930   2.685   9.305   9.787
 7563WAT     H122931   2.637   9.221   9.764
 7563WAT     H222932   2.743   9.333   9.710
 7564WAT      O22933   3.319   5.092   3.601
 7564WAT     H122934   3.220   5.103   3.610
 7564WAT     H222935   3.347   5.009   3.649
 7565WAT      O22936   5.183   9.406   5.007
 7565WAT     H122937   5.116   9.343   4.968
 7565WAT     H222938   5.165   9.417   5.105
 7566WAT      O22939   2.590   9.057   2.193
 7566WAT     H122940   2.586   9.112   2.277
 7566WAT     H222941   2.659   9.094   2.131
 7567WAT      O22942   1.396   0.060   8.102
 7567WAT     H122943   1.477   0.021   8.057
 7567WAT     H222944   1.411   0.061   8.201
 7568WAT      O22945   2.803   7.744   0.229
 7568WAT     H122946   2.838   7.835   0.206
 7568WAT     H222947   2.809   7.730   0.328
 7569WAT      O22948   3.741   6.580   2.755
 7569WAT     H122949   3.823   6.637   2.754
 7569WAT     H222950   3.672   6.623   2.813
 7570WAT      O22951   5.428   4.193   4.833
 7570WAT     H122952   5.469   4.154   4.916
 7570WAT     H222953   5.483   4.167   4.754
 7571WAT      O22954   8.394   9.811   7.287
 7571WAT     H122955   8.449   9.751   7.345
 7571WAT     H222956   8.437   9.901   7.281
 7572WAT      O22957   9.134   7.062   1.520
 7572WAT     H122958   9.117   7.079   1.618
 7572WAT     H222959   9.147   6.964   1.505
 7573WAT      O22960   6.421   3.613   5.771
 7573WAT     H122961   6.344   3.568   5.818
 7573WAT     H222962   6.507   3.587   5.815
 7574WAT      O22963   3.832   7.185   2.090
 7574WAT     H122964   3.922   7.213   2.057
 7574WAT     H222965   3.761   7.227   2.033
 7575WAT      O22966   7.150   1.284   6.057
 7575WAT     H122967   7.065   1.335   6.042
 7575WAT     H222968   7.172   1.232   5.975
 7576WAT      O22969   2.345   1.087   7.031
 7576WAT     H122970   2.298   1.146   6.965
 7576WAT     H222971   2.281   1.018   7.064
 7577WAT      O22972   3.255   3.307   5.540
 7577WAT     H122973   3.281   3.344   5.451
 7577WAT     H222974   3.277   3.373   5.612
 7578WAT      O22975   8.166   1.646   6.959
 7578WAT     H122976   8.094   1.577   6.946
 7578WAT     H222977   8.174   1.668   7.057
 7579WAT      O22978   8.849   7.203   3.496
 7579WAT     H122979   8.927   7.266   3.487
 7579WAT     H222980   8.764   7.251   3.476
 7580WAT      O22981   5.967   5.845   8.901
 7580WAT     H122982   5.994   5.941   8.899
 7580WAT     H222983   5.996   5.803   8.987
 7581WAT      O22984   0.592   2.564   2.225
 7581WAT     H122985   0.612   2.655   2.260
 7581WAT     H222986   0.602   2.563   2.126
 7582WAT      O22987   4.041   4.046   8.303
 7582WAT     H122988   4.070   3.970   8.361
 7582WAT     H222989   4.011   4.122   8.361
 7583WAT      O22990   9.573   5.174   4.292
 7583WAT     H122991   9.646   5.106   4.302
 7583WAT     H222992   9.556   5.218   4.379
 7584WAT      O22993   7.986   0.787   4.005
 7584WAT     H122994   8.045   0.813   4.082
 7584WAT     H222995   8.000   0.850   3.929
 7585WAT      O22996   4.764   8.844   2.523
 7585WAT     H122997   4.806   8.928   2.490
 7585WAT     H222998   4.831   8.770   2.519
 7586WAT      O22999   0.797   6.052   7.680
 7586WAT     H123000   0.739   6.058   7.762
 7586WAT     H223001   0.882   6.102   7.695
 7587WAT      O23002   0.610   4.600   6.031
 7587WAT     H123003   0.628   4.522   6.090
 7587WAT     H223004   0.628   4.575   5.936
 7588WAT      O23005   1.023   6.575   7.664
 7588WAT     H123006   0.987   6.668   7.660
 7588WAT     H223007   1.062   6.551   7.575
 7589WAT      O23008   4.313   4.527   8.977
 7589WAT     H123009   4.318   4.599   9.047
 7589WAT     H223010   4.371   4.551   8.900
 7590WAT      O23011   9.633   9.149   5.228
 7590WAT     H123012   9.595   9.223   5.173
 7590WAT     H223013   9.713   9.111   5.181
 7591WAT      O23014   2.355   4.240   0.630
 7591WAT     H123015   2.297   4.322   0.631
 7591WAT     H223016   2.304   4.164   0.590
 7592WAT      O23017   0.904   2.658   9.811
 7592WAT     H123018   0.942   2.731   9.869
 7592WAT     H223019   0.872   2.583   9.869
 7593WAT      O23020   5.091   4.546   8.045
 7593WAT     H123021   4.996   4.542   8.014
 7593WAT     H223022   5.096   4.590   8.134
 7594WAT      O23023   2.737   8.315   7.740
 7594WAT     H123024   2.638   8.333   7.746
 7594WAT     H223025   2.760   8.239   7.801
 7595WAT      O23026   9.153   6.940   3.595
 7595WAT     H123027   9.069   6.889   3.614
 7595WAT     H223028   9.159   6.958   3.497
 7596WAT      O23029   0.138   3.282   1.244
 7596WAT     H123030   0.109   3.272   1.340
 7596WAT     H223031   0.162   3.192   1.207
 7597WAT      O23032   0.484   1.829   5.908
 7597WAT     H123033   0.512   1.886   5.985
 7597WAT     H223034   0.456   1.739   5.941
 7598WAT      O23035   8.649   0.578   5.271
 7598WAT     H123036   8.726   0.555   5.329
 7598WAT     H223037   8.679   0.640   5.198
 7599WAT      O23038   8.358   1.244   2.783
 7599WAT     H123039   8.348   1.168   2.718
 7599WAT     H223040   8.280   1.306   2.773
 7600WAT      O23041   6.514   6.870   5.000
 7600WAT     H123042   6.441   6.937   5.009
 7600WAT     H223043   6.522   6.841   4.904
 7601WAT      O23044   6.153   0.823   9.243
 7601WAT     H123045   6.117   0.916   9.234
 7601WAT     H223046   6.246   0.821   9.205
 7602WAT      O23047   6.017   6.820   7.506
 7602WAT     H123048   5.955   6.795   7.581
 7602WAT     H223049   6.091   6.877   7.542
 7603WAT      O23050   2.633   3.676   2.685
 7603WAT     H123051   2.608   3.686   2.782
 7603WAT     H223052   2.551   3.689   2.629
 7604WAT      O23053   6.247   5.844   5.528
 7604WAT     H123054   6.321   5.835   5.460
 7604WAT     H223055   6.170   5.893   5.487
 7605WAT      O23056   6.264   9.806   0.219
 7605WAT     H123057   6.324   9.752   0.160
 7605WAT     H223058   6.170   9.772   0.210
 7606WAT      O23059   3.096   7.121   0.564
 7606WAT     H123060   3.032   7.157   0.632
 7606WAT     H223061   3.140   7.197   0.516
 7607WAT      O23062   5.313   8.414   3.121
 7607WAT     H123063   5.337   8.442   3.028
 7607WAT     H223064   5.321   8.493   3.182
 7608WAT      O23065   5.603   6.464   2.712
 7608WAT     H123066   5.680   6.406   2.688
 7608WAT     H223067   5.610   6.551   2.664
 7609WAT      O23068   9.285   1.733   8.265
 7609WAT     H123069   9.326   1.655   8.313
 7609WAT     H223070   9.251   1.703   8.176
 7610WAT      O23071   0.360   5.897   0.471
 7610WAT     H123072   0.297   5.908   0.394
 7610WAT     H223073   0.312   5.854   0.548
 7611WAT      O23074   3.858   1.462   0.531
 7611WAT     H123075   3.772   1.438   0.575
 7611WAT     H223076   3.850   1.552   0.488
 7612WAT      O23077   0.830   8.349   6.296
 7612WAT     H123078   0.854   8.254   6.278
 7612WAT     H223079   0.884   8.408   6.236
 7613WAT      O23080   9.248   0.919   9.643
 7613WAT     H123081   9.343   0.953   9.640
 7613WAT     H223082   9.244   0.837   9.700
 7614WAT      O23083   6.344   2.532   8.216
 7614WAT     H123084   6.292   2.470   8.276
 7614WAT     H223085   6.333   2.626   8.247
 7615WAT      O23086   7.757   1.095   4.339
 7615WAT     H123087   7.700   1.166   4.380
 7615WAT     H223088   7.754   1.012   4.395
 7616WAT      O23089   9.861   5.156   5.145
 7616WAT     H123090   9.943   5.177   5.199
 7616WAT     H223091   9.856   5.057   5.131
 7617WAT      O23092   7.500   6.539   4.911
 7617WAT     H123093   7.592   6.543   4.951
 7617WAT     H223094   7.491   6.457   4.856
 7618WAT      O23095   2.385   4.831   9.199
 7618WAT     H123096   2.352   4.885   9.277
 7618WAT     H223097   2.357   4.875   9.114
 7619WAT      O23098   4.839   6.377   3.007
 7619WAT     H123099   4.911   6.317   3.042
 7619WAT     H223100   4.784   6.412   3.083
 7620WAT      O23101   7.650   8.221   6.079
 7620WAT     H123102   7.662   8.123   6.098
 7620WAT     H223103   7.639   8.270   6.166
 7621WAT      O23104   7.764   6.071   6.459
 7621WAT     H123105   7.755   6.117   6.371
 7621WAT     H223106   7.696   5.998   6.465
 7622WAT      O23107   4.391   5.129   3.711
 7622WAT     H123108   4.370   5.216   3.755
 7622WAT     H223109   4.489   5.113   3.712
 7623WAT      O23110   1.709   4.372   1.879
 7623WAT     H123111   1.779   4.365   1.950
 7623WAT     H223112   1.720   4.456   1.828
 7624WAT      O23113   1.764   7.216   5.163
 7624WAT     H123114   1.831   7.251   5.097
 7624WAT     H223115   1.756   7.280   5.239
 7625WAT      O23116   0.564   4.762   3.649
 7625WAT     H123117   0.639   4.819   3.684
 7625WAT     H223118   0.511   4.815   3.584
 7626WAT      O23119   4.413   6.274   7.589
 7626WAT     H123120   4.451   6.235   7.673
 7626WAT     H223121   4.464   6.240   7.510
 7627WAT      O23122   1.395   4.433   4.191
 7627WAT     H123123   1.451   4.367   4.140
 7627WAT     H223124   1.442   4.457   4.276
 7628WAT      O23125   5.850   1.393   1.238
 7628WAT     H123126   5.884   1.324   1.174
 7628WAT     H223127   5.927   1.445   1.275
 7629WAT      O23128   5.490   6.056   5.831
 7629WAT     H123129   5.572   6.001   5.813
 7629WAT     H223130   5.441   6.018   5.910
 7630WAT      O23131   6.056   1.261   2.141
 7630WAT     H123132   6.141   1.214   2.117
 7630WAT     H223133   6.075   1.332   2.208
 7631WAT      O23134   5.696   1.995   0.078
 7631WAT     H123135   5.765   1.995   0.150
 7631WAT     H223136   5.685   2.088   0.043
 7632WAT      O23137   5.432   3.245   5.868
 7632WAT     H123138   5.463   3.339   5.883
 7632WAT     H223139   5.336   3.245   5.843
 7633WAT      O23140   0.321   2.957   0.925
 7633WAT     H123141   0.281   2.963   1.017
 7633WAT     H223142   0.415   2.924   0.932
 7634WAT      O23143   5.282   0.344   0.666
 7634WAT     H123144   5.338   0.389   0.736
 7634WAT     H223145   5.266   0.408   0.590
 7635WAT      O23146   6.144   7.810   7.331
 7635WAT     H123147   6.234   7.813   7.287
 7635WAT     H223148   6.078   7.863   7.278
 7636WAT      O23149   1.379   9.054   4.589
 7636WAT     H123150   1.395   9.153   4.578
 7636WAT     H223151   1.412   9.006   4.508
 7637WAT      O23152   8.518   2.015   6.980
 7637WAT     H123153   8.462   2.007   6.897
 7637WAT     H223154   8.601   2.066   6.960
 7638WAT      O23155   9.390   1.566   0.968
 7638WAT     H123156   9.375   1.665   0.976
 7638WAT     H223157   9.378   1.538   0.873
 7639WAT      O23158   0.996   3.356   7.056
 7639WAT     H123159   0.904   3.323   7.078
 7639WAT     H223160   1.014   3.440   7.107
 7640WAT      O23161   9.175   9.738   3.175
 7640WAT     H123162   9.219   9.692   3.252
 7640WAT     H223163   9.220   9.712   3.090
 7641WAT      O23164   9.501   7.879   1.076
 7641WAT     H123165   9.521   7.785   1.048
 7641WAT     H223166   9.459   7.928   1.000
 7642WAT      O23167   2.059   6.590   7.313
 7642WAT     H123168   1.969   6.632   7.303
 7642WAT     H223169   2.077   6.531   7.234
 7643WAT      O23170   4.248   5.011   2.690
 7643WAT     H123171   4.207   5.021   2.781
 7643WAT     H223172   4.324   4.947   2.696
 7644WAT      O23173   7.890   8.279   7.144
 7644WAT     H123174   7.828   8.344   7.100
 7644WAT     H223175   7.978   8.322   7.160
 7645WAT      O23176   1.415   3.070   5.303
 7645WAT     H123177   1.422   2.992   5.242
 7645WAT     H223178   1.319   3.090   5.322
 7646WAT      O23179   1.407   9.337   4.884
 7646WAT     H123180   1.397   9.332   4.785
 7646WAT     H223181   1.343   9.273   4.927
 7647WAT      O23182   4.131   4.548   3.875
 7647WAT     H123183   4.218   4.574   3.918
 7647WAT     H223184   4.136   4.453   3.845
 7648WAT      O23185   7.157   7.801   2.064
 7648WAT     H123186   7.080   7.799   2.128
 7648WAT     H223187   7.155   7.719   2.007
 7649WAT      O23188   9.148   2.349   1.873
 7649WAT     H123189   9.225   2.298   1.912
 7649WAT     H223190   9.063   2.301   1.894
 7650WAT      O23191   6.757   4.659   5.560
 7650WAT     H123192   6.669   4.611   5.553
 7650WAT     H223193   6.766   4.724   5.485
 7651WAT      O23194   2.701   1.679   1.987
 7651WAT     H123195   2.778   1.621   2.015
 7651WAT     H223196   2.694   1.680   1.888
 7652WAT      O23197   5.838   6.008   6.641
 7652WAT     H123198   5.926   6.032   6.682
 7652WAT     H223199   5.805   5.923   6.681
 7653WAT      O23200   9.587   0.800   3.690
 7653WAT     H123201   9.586   0.727   3.758
 7653WAT     H223202   9.672   0.852   3.697
 7654WAT      O23203   9.025   7.514   7.912
 7654WAT     H123204   8.968   7.437   7.939
 7654WAT     H223205   9.118   7.482   7.894
 7655WAT      O23206   3.821   6.007   0.147
 7655WAT     H123207   3.921   6.000   0.153
 7655WAT     H223208   3.796   6.086   0.091
 7656WAT      O23209   8.662   5.602   2.704
 7656WAT     H123210   8.691   5.518   2.749
 7656WAT     H223211   8.731   5.630   2.637
 7657WAT      O23212   4.289   3.426   8.018
 7657WAT     H123213   4.246   3.344   7.981
 7657WAT     H223214   4.378   3.402   8.059
 7658WAT      O23215   7.945   8.606   3.845
 7658WAT     H123216   7.871   8.543   3.822
 7658WAT     H223217   8.001   8.622   3.764
 7659WAT      O23218   6.778   8.889   0.938
 7659WAT     H123219   6.737   8.823   1.000
 7659WAT     H223220   6.817   8.840   0.859
 7660WAT      O23221   8.883   1.359   4.294
 7660WAT     H123222   8.836   1.271   4.284
 7660WAT     H223223   8.982   1.343   4.293
 7661WAT      O23224   4.794   7.847   1.492
 7661WAT     H123225   4.853   7.823   1.569
 7661WAT     H223226   4.702   7.866   1.526
 7662WAT      O23227   9.638   4.613   9.763
 7662WAT     H123228   9.705   4.685   9.743
 7662WAT     H223229   9.664   4.565   9.847
 7663WAT      O23230   7.701   5.815   0.251
 7663WAT     H123231   7.696   5.760   0.168
 7663WAT     H223232   7.664   5.763   0.328
 7664WAT      O23233   2.826   6.852   7.309
 7664WAT     H123234   2.914   6.822   7.344
 7664WAT     H223235   2.812   6.815   7.217
 7665WAT      O23236   7.145   3.606   8.623
 7665WAT     H123237   7.188   3.685   8.578
 7665WAT     H223238   7.080   3.638   8.691
 7666WAT      O23239   7.286   6.850   2.941
 7666WAT     H123240   7.198   6.810   2.914
 7666WAT     H223241   7.296   6.940   2.899
 7667WAT      O23242   4.097   1.766   9.723
 7667WAT     H123243   4.170   1.698   9.720
 7667WAT     H223244   4.104   1.819   9.807
 7668WAT      O23245   6.558   6.684   6.890
 7668WAT     H123246   6.568   6.643   6.981
 7668WAT     H223247   6.537   6.781   6.899
 7669WAT      O23248   0.583   0.968   9.850
 7669WAT     H123249   0.507   0.975   9.915
 7669WAT     H223250   0.548   0.933   9.763
 7670WAT      O23251   0.473   6.093   3.038
 7670WAT     H123252   0.552   6.147   3.008
 7670WAT     H223253   0.495   6.045   3.123
 7671WAT      O23254   0.117   3.349   0.694
 7671WAT     H123255   0.130   3.250   0.703
 7671WAT     H223256   0.172   3.397   0.762
 7672WAT      O23257   9.095   1.453   6.104
 7672WAT     H123258   9.044   1.511   6.040
 7672WAT     H223259   9.187   1.489   6.115
 7673WAT      O23260   5.722   1.596   1.825
 7673WAT     H123261   5.756   1.536   1.753
 7673WAT     H223262   5.788   1.670   1.840
 7674WAT      O23263   4.799   1.149   4.621
 7674WAT     H123264   4.702   1.129   4.637
 7674WAT     H223265   4.840   1.186   4.703
 7675WAT      O23266   9.190   6.223   1.684
 7675WAT     H123267   9.267   6.163   1.661
 7675WAT     H223268   9.178   6.225   1.784
 7676WAT      O23269   6.262   7.427   8.504
 7676WAT     H123270   6.275   7.488   8.582
 7676WAT     H223271   6.311   7.463   8.425
 7677WAT      O23272   2.518   5.089   6.803
 7677WAT     H123273   2.476   5.092   6.712
 7677WAT     H223274   2.593   5.024   6.802
 7678WAT      O23275   8.497   7.364   7.114
 7678WAT     H123276   8.441   7.447   7.117
 7678WAT     H223277   8.455   7.293   7.171
 7679WAT      O23278   9.571   8.131   3.640
 7679WAT     H123279   9.614   8.172   3.559
 7679WAT     H223280   9.473   8.122   3.624
 7680WAT      O23281   7.285   1.557   2.188
 7680WAT     H123282   7.196   1.532   2.152
 7680WAT     H223283   7.319   1.484   2.248
 7681WAT      O23284   8.672   1.088   9.253
 7681WAT     H123285   8.769   1.101   9.273
 7681WAT     H223286   8.626   1.050   9.333
 7682WAT      O23287   9.515   9.341   5.073
 7682WAT     H123288   9.518   9.441   5.068
 7682WAT     H223289   9.512   9.304   4.980
 7683WAT      O23290   4.500   3.443   9.424
 7683WAT     H123291   4.468   3.356   9.461
 7683WAT     H223292   4.549   3.493   9.495
 7684WAT      O23293   6.327   6.894   8.362
 7684WAT     H123294   6.257   6.824   8.356
 7684WAT     H223295   6.285   6.985   8.364
 7685WAT      O23296   7.721   4.684   2.230
 7685WAT     H123297   7.767   4.762   2.274
 7685WAT     H223298   7.686   4.713   2.141
 7686WAT      O23299   0.249   1.975   5.512
 7686WAT     H123300   0.282   2.034   5.437
 7686WAT     H223301   0.303   1.992   5.594
 7687WAT      O23302   8.852   5.112   5.081
 7687WAT     H123303   8.852   5.064   5.169
 7687WAT     H223304   8.935   5.088   5.030
 7688WAT      O23305   3.455   0.418   1.398
 7688WAT     H123306   3.407   0.431   1.485
 7688WAT     H223307   3.508   0.500   1.378
 7689WAT      O23308   6.444   6.282   0.649
 7689WAT     H123309   6.345   6.266   0.647
 7689WAT     H223310   6.470   6.342   0.574
 7690WAT      O23311   3.010   7.146   2.812
 7690WAT     H123312   2.926   7.163   2.863
 7690WAT     H223313   3.063   7.231   2.806
 7691WAT      O23314   5.835   4.495   7.332
 7691WAT     H123315   5.822   4.414   7.275
 7691WAT     H223316   5.754   4.510   7.388
 7692WAT      O23317   2.134   0.182   9.450
 7692WAT     H123318   2.115   0.180   9.352
 7692WAT     H223319   2.058   0.139   9.500
 7693WAT      O23320   4.840   1.428   4.256
 7693WAT     H123321   4.881   1.364   4.321
 7693WAT     H223322   4.799   1.505   4.306
 7694WAT      O23323   3.689   2.512   6.592
 7694WAT     H123324   3.747   2.464   6.658
 7694WAT     H223325   3.639   2.584   6.638
 7695WAT      O23326   7.928   5.470   6.661
 7695WAT     H123327   8.001   5.481   6.593
 7695WAT     H223328   7.928   5.549   6.723
 7696WAT      O23329   7.108   0.186   2.539
 7696WAT     H123330   7.022   0.158   2.497
 7696WAT     H223331   7.090   0.213   2.634
 7697WAT      O23332   1.026   7.285   2.822
 7697WAT     H123333   1.079   7.335   2.891
 7697WAT     H223334   1.040   7.187   2.835
 7698WAT      O23335   8.589   8.085   5.278
 7698WAT     H123336   8.687   8.087   5.258
 7698WAT     H223337   8.552   8.178   5.272
 7699WAT      O23338   9.424   3.314   3.730
 7699WAT     H123339   9.435   3.304   3.631
 7699WAT     H223340   9.514   3.306   3.774
 7700WAT      O23341   4.876   4.777   4.380
 7700WAT     H123342   4.954   4.765   4.441
 7700WAT     H223343   4.847   4.873   4.381
 7701WAT      O23344   5.939   1.029   6.053
 7701WAT     H123345   6.014   0.965   6.041
 7701WAT     H223346   5.856   0.993   6.009
 7702WAT      O23347   4.078   0.661   3.694
 7702WAT     H123348   4.048   0.619   3.780
 7702WAT     H223349   4.155   0.722   3.711
 7703WAT      O23350   5.563   3.086   6.824
 7703WAT     H123351   5.488   3.031   6.788
 7703WAT     H223352   5.649   3.035   6.816
 7704WAT      O23353   0.662   2.513   4.955
 7704WAT     H123354   0.636   2.507   5.052
 7704WAT     H223355   0.611   2.447   4.902
 7705WAT      O23356   0.983   5.865   6.661
 7705WAT     H123357   0.976   5.940   6.596
 7705WAT     H223358   0.976   5.778   6.612
 7706WAT      O23359   4.943   6.335   4.118
 7706WAT     H123360   4.990   6.380   4.195
 7706WAT     H223361   4.848   6.365   4.114
 7707WAT      O23362   7.406   7.335   0.855
 7707WAT     H123363   7.387   7.431   0.832
 7707WAT     H223364   7.325   7.280   0.835
 7708WAT      O23365   5.971   4.235   2.150
 7708WAT     H123366   5.922   4.157   2.110
 7708WAT     H223367   5.966   4.230   2.250
 7709WAT      O23368   8.910   1.662   8.172
 7709WAT     H123369   8.988   1.600   8.181
 7709WAT     H223370   8.864   1.670   8.261
 7710WAT      O23371   4.012   1.961   5.762
 7710WAT     H123372   4.047   1.932   5.851
 7710WAT     H223373   4.086   1.999   5.707
 7711WAT      O23374   2.598   1.184   3.997
 7711WAT     H123375   2.560   1.163   3.906
 7711WAT     H223376   2.556   1.123   4.065
 7712WAT      O23377   2.833   7.163   3.860
 7712WAT     H123378   2.900   7.107   3.909
 7712WAT     H223379   2.816   7.247   3.911
 7713WAT      O23380   7.655   0.336   3.438
 7713WAT     H123381   7.727   0.391   3.396
 7713WAT     H223382   7.636   0.372   3.530
 7714WAT      O23383   0.359   4.743   2.602
 7714WAT     H123384   0.402   4.723   2.690
 7714WAT     H223385   0.385   4.673   2.535
 7715WAT      O23386   8.785   1.267   4.764
 7715WAT     H123387   8.744   1.262   4.854
 7715WAT     H223388   8.853   1.341   4.762
 7716WAT      O23389   6.231   4.658   8.286
 7716WAT     H123390   6.206   4.598   8.363
 7716WAT     H223391   6.317   4.627   8.246
 7717WAT      O23392   9.264   5.441   4.444
 7717WAT     H123393   9.214   5.519   4.407
 7717WAT     H223394   9.256   5.440   4.544
 7718WAT      O23395   1.135   4.617   1.263
 7718WAT     H123396   1.098   4.676   1.192
 7718WAT     H223397   1.158   4.528   1.224
 7719WAT      O23398   3.115   5.533   9.456
 7719WAT     H123399   3.167   5.576   9.383
 7719WAT     H223400   3.135   5.435   9.459
 7720WAT      O23401   8.490   4.477   8.212
 7720WAT     H123402   8.581   4.447   8.184
 7720WAT     H223403   8.447   4.527   8.137
 7721WAT      O23404   4.928   6.358   9.219
 7721WAT     H123405   4.888   6.286   9.275
 7721WAT     H223406   4.856   6.401   9.164
 7722WAT      O23407   1.658   3.055   6.041
 7722WAT     H123408   1.607   3.020   5.963
 7722WAT     H223409   1.638   3.000   6.122
 7723WAT      O23410   3.881   7.495   8.469
 7723WAT     H123411   3.857   7.466   8.376
 7723WAT     H223412   3.942   7.427   8.510
 7724WAT      O23413   0.624   5.176   5.225
 7724WAT     H123414   0.716   5.153   5.258
 7724WAT     H223415   0.607   5.129   5.138
 7725WAT      O23416   2.226   9.562   1.954
 7725WAT     H123417   2.321   9.534   1.940
 7725WAT     H223418   2.189   9.516   2.034
 7726WAT      O23419   0.952   8.408   6.542
 7726WAT     H123420   0.935   8.506   6.547
 7726WAT     H223421   0.904   8.370   6.463
 7727WAT      O23422   9.356   5.964   9.070
 7727WAT     H123423   9.376   5.891   9.135
 7727WAT     H223424   9.304   6.036   9.116
 7728WAT      O23425   9.043   3.763   7.274
 7728WAT     H123426   9.077   3.816   7.196
 7728WAT     H223427   9.024   3.669   7.245
 7729WAT      O23428   9.003   2.468   6.472
 7729WAT     H123429   8.948   2.527   6.413
 7729WAT     H223430   9.043   2.394   6.417
 7730WAT      O23431   6.467   4.586   1.506
 7730WAT     H123432   6.424   4.669   1.543
 7730WAT     H223433   6.565   4.588   1.524
 7731WAT      O23434   2.905   1.119   0.388
 7731WAT     H123435   2.943   1.046   0.332
 7731WAT     H223436   2.847   1.178   0.332
 7732WAT      O23437   0.007   8.986   3.274
 7732WAT     H123438  -0.046   8.924   3.333
 7732WAT     H223439  -0.033   9.077   3.277
 7733WAT      O23440   8.305   0.084   8.874
 7733WAT     H123441   8.390   0.089   8.823
 7733WAT     H223442   8.256   0.171   8.868
 7734WAT      O23443   7.207   8.167   8.933
 7734WAT     H123444   7.201   8.085   8.877
 7734WAT     H223445   7.159   8.242   8.888
 7735WAT      O23446   7.124   2.635   6.018
 7735WAT     H123447   7.185   2.610   5.943
 7735WAT     H223448   7.031   2.648   5.982
 7736WAT      O23449   9.305   4.977   3.863
 7736WAT     H123450   9.217   4.987   3.817
 7736WAT     H223451   9.360   4.909   3.815
 7737WAT      O23452   5.944   5.807   2.530
 7737WAT     H123453   5.889   5.735   2.570
 7737WAT     H223454   5.952   5.884   2.594
 7738WAT      O23455   4.120   0.683   2.205
 7738WAT     H123456   4.146   0.606   2.146
 7738WAT     H223457   4.032   0.662   2.249
 7739WAT      O23458   7.514   7.115   1.950
 7739WAT     H123459   7.529   7.193   1.889
 7739WAT     H223460   7.456   7.048   1.904
 7740WAT      O23461   2.261   5.781   5.880
 7740WAT     H123462   2.316   5.863   5.891
 7740WAT     H223463   2.196   5.794   5.804
 7741WAT      O23464   5.250   8.179   7.896
 7741WAT     H123465   5.262   8.096   7.840
 7741WAT     H223466   5.335   8.199   7.944
 7742WAT      O23467   7.740   8.663   4.695
 7742WAT     H123468   7.835   8.692   4.690
 7742WAT     H223469   7.698   8.698   4.779
 7743WAT      O23470   7.418   7.686   1.738
 7743WAT     H123471   7.474   7.768   1.725
 7743WAT     H223472   7.413   7.664   1.835
 7744WAT      O23473   7.836   8.263   0.761
 7744WAT     H123474   7.853   8.313   0.846
 7744WAT     H223475   7.916   8.268   0.702
 7745WAT      O23476   5.972   0.979   9.534
 7745WAT     H123477   5.952   0.909   9.602
 7745WAT     H223478   5.920   0.960   9.451
 7746WAT      O23479   3.350   8.595   8.532
 7746WAT     H123480   3.274   8.644   8.575
 7746WAT     H223481   3.328   8.498   8.527
 7747WAT      O23482   8.733   6.209   3.708
 7747WAT     H123483   8.649   6.247   3.748
 7747WAT     H223484   8.791   6.284   3.677
 7748WAT      O23485   9.726   6.585   4.176
 7748WAT     H123486   9.641   6.532   4.188
 7748WAT     H223487   9.795   6.527   4.133
 7749WAT      O23488   4.678   0.946   8.265
 7749WAT     H123489   4.775   0.968   8.276
 7749WAT     H223490   4.636   1.013   8.204
 7750WAT      O23491   0.172   4.631   7.736
 7750WAT     H123492   0.254   4.688   7.728
 7750WAT     H223493   0.145   4.624   7.832
 7751WAT      O23494   7.317   6.959   0.834
 7751WAT     H123495   7.327   6.968   0.933
 7751WAT     H223496   7.222   6.933   0.813
 7752WAT      O23497   8.169   2.336   0.414
 7752WAT     H123498   8.152   2.340   0.316
 7752WAT     H223499   8.140   2.422   0.456
 7753WAT      O23500   0.812   2.966   6.612
 7753WAT     H123501   0.866   3.011   6.682
 7753WAT     H223502   0.716   2.962   6.641
 7754WAT      O23503   8.943   7.697   2.878
 7754WAT     H123504   8.917   7.794   2.886
 7754WAT     H223505   9.009   7.674   2.949
 7755WAT      O23506   1.900   3.626   8.890
 7755WAT     H123507   1.826   3.561   8.904
 7755WAT     H223508   1.904   3.650   8.793
 7756WAT      O23509   6.498   8.609   8.885
 7756WAT     H123510   6.506   8.677   8.812
 7756WAT     H223511   6.585   8.604   8.935
 7757WAT      O23512   3.325   0.955   2.385
 7757WAT     H123513   3.266   0.961   2.465
 7757WAT     H223514   3.408   1.008   2.401
 7758WAT      O23515   2.875   5.165   9.527
 7758WAT     H123516   2.830   5.224   9.594
 7758WAT     H223517   2.971   5.192   9.518
 7759WAT      O23518   2.817   1.272   6.796
 7759WAT     H123519   2.791   1.195   6.738
 7759WAT     H223520   2.768   1.266   6.883
 7760WAT      O23521   4.673   0.901   7.878
 7760WAT     H123522   4.708   0.909   7.784
 7760WAT     H223523   4.681   0.806   7.909
 7761WAT      O23524   4.984   3.691   0.926
 7761WAT     H123525   5.011   3.647   0.840
 7761WAT     H223526   4.888   3.670   0.946
 7762WAT      O23527   3.844   6.689   3.274
 7762WAT     H123528   3.808   6.762   3.332
 7762WAT     H223529   3.906   6.631   3.328
 7763WAT      O23530   8.527   0.278   7.000
 7763WAT     H123531   8.497   0.285   6.905
 7763WAT     H223532   8.570   0.364   7.027
 7764WAT      O23533   5.455   4.501   5.459
 7764WAT     H123534   5.477   4.596   5.482
 7764WAT     H223535   5.536   4.456   5.422
 7765WAT      O23536   9.389   8.831   3.779
 7765WAT     H123537   9.431   8.752   3.825
 7765WAT     H223538   9.390   8.816   3.680
 7766WAT      O23539   6.454   6.890   8.906
 7766WAT     H123540   6.465   6.796   8.873
 7766WAT     H223541   6.457   6.954   8.829
 7767WAT      O23542   2.592   7.602   8.423
 7767WAT     H123543   2.497   7.629   8.408
 7767WAT     H223544   2.641   7.676   8.469
 7768WAT      O23545   1.976   1.261   8.312
 7768WAT     H123546   2.056   1.321   8.318
 7768WAT     H223547   2.005   1.166   8.324
 7769WAT      O23548   8.492   4.094   7.650
 7769WAT     H123549   8.399   4.092   7.686
 7769WAT     H223550   8.541   4.013   7.681
 7770WAT      O23551   8.409   5.965   2.709
 7770WAT     H123552   8.495   5.961   2.758
 7770WAT     H223553   8.349   6.033   2.751
 7771WAT      O23554   2.699   8.355   5.045
 7771WAT     H123555   2.605   8.381   5.069
 7771WAT     H223556   2.701   8.326   4.949
 7772WAT      O23557   1.082   0.767   3.070
 7772WAT     H123558   1.009   0.733   3.130
 7772WAT     H223559   1.044   0.834   3.006
 7773WAT      O23560   5.788   7.921   5.000
 7773WAT     H123561   5.782   7.940   4.902
 7773WAT     H223562   5.739   7.992   5.050
 7774WAT      O23563   7.200   3.824   4.334
 7774WAT     H123564   7.138   3.873   4.273
 7774WAT     H223565   7.229   3.738   4.292
 7775WAT      O23566   0.169   0.350   8.978
 7775WAT     H123567   0.090   0.395   8.937
 7775WAT     H223568   0.249   0.411   8.974
 7776WAT      O23569   1.454   7.951   8.928
 7776WAT     H123570   1.379   7.961   8.863
 7776WAT     H223571   1.539   7.935   8.878
 7777WAT      O23572   1.970   8.155   9.583
 7777WAT     H123573   1.890   8.215   9.593
 7777WAT     H223574   1.976   8.123   9.489
 7778WAT      O23575   9.777   7.048   4.575
 7778WAT     H123576   9.766   7.044   4.476
 7778WAT     H223577   9.699   7.097   4.615
 7779WAT      O23578   0.684   9.798   5.146
 7779WAT     H123579   0.586   9.802   5.129
 7779WAT     H223580   0.704   9.825   5.240
 7780WAT      O23581   8.247   5.971   5.630
 7780WAT     H123582   8.171   6.025   5.666
 7780WAT     H223583   8.332   6.000   5.672
 7781WAT      O23584   7.002   2.244   6.694
 7781WAT     H123585   6.929   2.279   6.752
 7781WAT     H223586   7.002   2.292   6.607
 7782WAT      O23587   0.193   5.885   0.199
 7782WAT     H123588   0.262   5.849   0.137
 7782WAT     H223589   0.166   5.977   0.168
 7783WAT      O23590   6.465   9.684   2.771
 7783WAT     H123591   6.384   9.742   2.777
 7783WAT     H223592   6.534   9.728   2.714
 7784WAT      O23593   1.368   2.476   3.275
 7784WAT     H123594   1.383   2.465   3.177
 7784WAT     H223595   1.425   2.410   3.325
 7785WAT      O23596   4.072   5.120   0.966
 7785WAT     H123597   4.086   5.190   0.896
 7785WAT     H223598   4.033   5.163   1.048
 7786WAT      O23599   7.465   6.561   3.763
 7786WAT     H123600   7.521   6.562   3.845
 7786WAT     H223601   7.439   6.655   3.739
 7787WAT      O23602   8.138   3.556   6.209
 7787WAT     H123603   8.212   3.500   6.247
 7787WAT     H223604   8.083   3.499   6.148
 7788WAT      O23605   2.855   2.600   9.204
 7788WAT     H123606   2.820   2.550   9.125
 7788WAT     H223607   2.799   2.681   9.221
 7789WAT      O23608   8.957   8.060   8.499
 7789WAT     H123609   8.972   8.152   8.462
 7789WAT     H223610   8.987   7.992   8.433
 7790WAT      O23611   2.670   5.800   9.567
 7790WAT     H123612   2.713   5.769   9.652
 7790WAT     H223613   2.705   5.745   9.491
 7791WAT      O23614   0.848   9.278   0.140
 7791WAT     H123615   0.815   9.261   0.233
 7791WAT     H223616   0.917   9.210   0.116
 7792WAT      O23617   0.497   3.034   2.603
 7792WAT     H123618   0.420   2.970   2.596
 7792WAT     H223619   0.517   3.072   2.513
 7793WAT      O23620   8.078   2.006   6.337
 7793WAT     H123621   8.145   2.029   6.408
 7793WAT     H223622   8.086   2.071   6.262
 7794WAT      O23623   6.629   8.395   7.173
 7794WAT     H123624   6.557   8.412   7.240
 7794WAT     H223625   6.716   8.379   7.220
 7795WAT      O23626   9.784   7.745   4.589
 7795WAT     H123627   9.809   7.829   4.638
 7795WAT     H223628   9.735   7.684   4.650
 7796WAT      O23629   0.401   2.141   6.225
 7796WAT     H123630   0.450   2.149   6.312
 7796WAT     H223631   0.348   2.056   6.223
 7797WAT      O23632   4.628   7.987   2.554
 7797WAT     H123633   4.555   8.009   2.619
 7797WAT     H223634   4.617   8.042   2.471
 7798WAT      O23635   9.353   6.475   4.405
 7798WAT     H123636   9.262   6.512   4.383
 7798WAT     H223637   9.392   6.528   4.480
 7799WAT      O23638   3.510   7.483   2.560
 7799WAT     H123639   3.512   7.489   2.460
 7799WAT     H223640   3.595   7.441   2.593
 7800WAT      O23641   5.791   2.931   8.571
 7800WAT     H123642   5.861   2.863   8.549
 7800WAT     H223643   5.723   2.934   8.497
 7801WAT      O23644   9.632   8.732   9.297
 7801WAT     H123645   9.560   8.675   9.256
 7801WAT     H223646   9.686   8.775   9.225
 7802WAT      O23647   5.058   4.372   8.841
 7802WAT     H123648   5.075   4.319   8.924
 7802WAT     H223649   5.075   4.315   8.760
 7803WAT      O23650   6.926   1.014   7.076
 7803WAT     H123651   7.005   0.961   7.106
 7803WAT     H223652   6.955   1.081   7.008
 7804WAT      O23653   0.489   7.906   8.173
 7804WAT     H123654   0.509   7.809   8.155
 7804WAT     H223655   0.572   7.960   8.158
 7805WAT      O23656   3.115   1.474   4.474
 7805WAT     H123657   3.146   1.566   4.452
 7805WAT     H223658   3.022   1.461   4.440
 7806WAT      O23659   1.752   8.452   7.067
 7806WAT     H123660   1.681   8.515   7.037
 7806WAT     H223661   1.729   8.359   7.040
 7807WAT      O23662   1.593   9.261   1.943
 7807WAT     H123663   1.670   9.200   1.923
 7807WAT     H223664   1.529   9.260   1.866
 7808WAT      O23665   0.946   5.830   7.139
 7808WAT     H123666   1.015   5.757   7.139
 7808WAT     H223667   0.988   5.915   7.170
 7809WAT      O23668   5.334   0.479   6.096
 7809WAT     H123669   5.236   0.485   6.112
 7809WAT     H223670   5.358   0.385   6.070
 7810WAT      O23671   1.326   6.674   4.456
 7810WAT     H123672   1.421   6.643   4.461
 7810WAT     H223673   1.268   6.597   4.428
 7811WAT      O23674   4.190   5.639   5.892
 7811WAT     H123675   4.282   5.613   5.919
 7811WAT     H223676   4.177   5.619   5.795
 7812WAT      O23677   9.762   8.401   1.897
 7812WAT     H123678   9.813   8.321   1.867
 7812WAT     H223679   9.826   8.474   1.921
 7813WAT      O23680   4.018   6.736   6.435
 7813WAT     H123681   3.932   6.703   6.395
 7813WAT     H223682   4.000   6.814   6.494
 7814WAT      O23683   6.523   6.068   7.089
 7814WAT     H123684   6.473   6.143   7.046
 7814WAT     H223685   6.461   6.015   7.147
 7815WAT      O23686   9.873   2.316   1.518
 7815WAT     H123687   9.932   2.394   1.540
 7815WAT     H223688   9.917   2.260   1.448
 7816WAT      O23689   5.553   6.534   4.466
 7816WAT     H123690   5.538   6.523   4.368
 7816WAT     H223691   5.580   6.629   4.485
 7817WAT      O23692   9.093   8.323   6.038
 7817WAT     H123693   9.146   8.381   5.975
 7817WAT     H223694   9.123   8.228   6.027
 7818WAT      O23695   6.166   5.903   0.417
 7818WAT     H123696   6.154   5.979   0.354
 7818WAT     H223697   6.077   5.863   0.439
 7819WAT      O23698   0.272   1.022   3.271
 7819WAT     H123699   0.261   1.121   3.285
 7819WAT     H223700   0.182   0.980   3.259
 7820WAT      O23701   6.958   8.094   5.465
 7820WAT     H123702   6.940   8.002   5.431
 7820WAT     H223703   6.875   8.132   5.506
 7821WAT      O23704   5.559   6.456   4.203
 7821WAT     H123705   5.593   6.501   4.120
 7821WAT     H223706   5.602   6.366   4.211
 7822WAT      O23707   5.312   1.658   8.693
 7822WAT     H123708   5.318   1.706   8.781
 7822WAT     H223709   5.272   1.720   8.625
 7823WAT      O23710   0.461   4.719   8.347
 7823WAT     H123711   0.534   4.785   8.362
 7823WAT     H223712   0.376   4.754   8.387
 7824WAT      O23713   7.519   1.415   5.832
 7824WAT     H123714   7.476   1.411   5.742
 7824WAT     H223715   7.539   1.322   5.864
 7825WAT      O23716   3.412   3.753   8.302
 7825WAT     H123717   3.385   3.847   8.322
 7825WAT     H223718   3.342   3.690   8.334
 7826WAT      O23719   9.605   6.480   5.622
 7826WAT     H123720   9.638   6.550   5.684
 7826WAT     H223721   9.584   6.521   5.533
 7827WAT      O23722   2.430   7.385   6.106
 7827WAT     H123723   2.526   7.378   6.079
 7827WAT     H223724   2.422   7.372   6.205
 7828WAT      O23725   7.811   7.919   2.379
 7828WAT     H123726   7.738   7.870   2.426
 7828WAT     H223727   7.787   7.930   2.282
 7829WAT      O23728   6.765   3.440   3.667
 7829WAT     H123729   6.786   3.500   3.744
 7829WAT     H223730   6.726   3.494   3.592
 7830WAT      O23731   5.584   0.598   8.785
 7830WAT     H123732   5.501   0.635   8.826
 7830WAT     H223733   5.612   0.516   8.835
 7831WAT      O23734   3.940   7.899   2.871
 7831WAT     H123735   4.013   7.896   2.939
 7831WAT     H223736   3.924   7.993   2.843
 7832WAT      O23737   5.458   1.017   6.552
 7832WAT     H123738   5.461   0.944   6.619
 7832WAT     H223739   5.505   0.987   6.468
 7833WAT      O23740   8.896   7.797   0.296
 7833WAT     H123741   8.872   7.885   0.335
 7833WAT     H223742   8.942   7.811   0.208
 7834WAT      O23743   7.727   3.420   6.608
 7834WAT     H123744   7.727   3.509   6.563
 7834WAT     H223745   7.719   3.433   6.707
 7835WAT      O23746   2.034   7.666   3.848
 7835WAT     H123747   1.975   7.723   3.792
 7835WAT     H223748   1.978   7.602   3.901
 7836WAT      O23749   5.984   7.897   9.518
 7836WAT     H123750   6.006   7.864   9.426
 7836WAT     H223751   5.981   7.819   9.581
 7837WAT      O23752   5.066   2.995   0.734
 7837WAT     H123753   5.013   2.919   0.771
 7837WAT     H223754   5.163   2.970   0.731
 7838WAT      O23755   0.348   0.278   8.026
 7838WAT     H123756   0.438   0.293   8.065
 7838WAT     H223757   0.306   0.366   8.004
 7839WAT      O23758   6.565   3.272   1.370
 7839WAT     H123759   6.596   3.361   1.403
 7839WAT     H223760   6.526   3.281   1.278
 7840WAT      O23761   6.289   9.435   4.459
 7840WAT     H123762   6.327   9.472   4.374
 7840WAT     H223763   6.250   9.510   4.513
 7841WAT      O23764   3.006   2.219   4.333
 7841WAT     H123765   3.019   2.176   4.244
 7841WAT     H223766   2.910   2.210   4.361
 7842WAT      O23767   4.558   4.086   9.769
 7842WAT     H123768   4.481   4.033   9.733
 7842WAT     H223769   4.589   4.045   9.855
 7843WAT      O23770   9.857   7.303   4.458
 7843WAT     H123771   9.910   7.316   4.375
 7843WAT     H223772   9.874   7.212   4.495
 7844WAT      O23773   0.658   0.779   4.997
 7844WAT     H123774   0.616   0.688   4.999
 7844WAT     H223775   0.704   0.796   5.084
 7845WAT      O23776   3.298   9.690   5.861
 7845WAT     H123777   3.253   9.758   5.918
 7845WAT     H223778   3.332   9.734   5.778
 7846WAT      O23779   3.191   3.104   1.054
 7846WAT     H123780   3.187   3.034   0.982
 7846WAT     H223781   3.117   3.089   1.119
 7847WAT      O23782   0.790   7.683   4.528
 7847WAT     H123783   0.844   7.756   4.487
 7847WAT     H223784   0.777   7.702   4.625
 7848WAT      O23785   7.192   8.116   5.626
 7848WAT     H123786   7.269   8.160   5.580
 7848WAT     H223787   7.118   8.102   5.560
 7849WAT      O23788   9.781   0.115   3.420
 7849WAT     H123789   9.801   0.028   3.466
 7849WAT     H223790   9.781   0.101   3.321
 7850WAT      O23791   3.439   5.902   1.160
 7850WAT     H123792   3.402   5.810   1.173
 7850WAT     H223793   3.397   5.944   1.080
 7851WAT      O23794   1.524   9.556   3.536
 7851WAT     H123795   1.581   9.498   3.479
 7851WAT     H223796   1.468   9.616   3.478
 7852WAT      O23797   4.121   5.780   9.640
 7852WAT     H123798   4.176   5.720   9.698
 7852WAT     H223799   4.113   5.740   9.548
 7853WAT      O23800   4.435   9.762   5.423
 7853WAT     H123801   4.361   9.822   5.455
 7853WAT     H223802   4.523   9.804   5.446
 7854WAT      O23803   1.063   5.285   4.110
 7854WAT     H123804   0.965   5.303   4.107
 7854WAT     H223805   1.083   5.197   4.068
 7855WAT      O23806   2.510   7.103   9.213
 7855WAT     H123807   2.436   7.068   9.271
 7855WAT     H223808   2.537   7.032   9.147
 7856WAT      O23809   7.822   2.129   7.459
 7856WAT     H123810   7.852   2.093   7.371
 7856WAT     H223811   7.826   2.229   7.457
 7857WAT      O23812   4.276   1.611   7.494
 7857WAT     H123813   4.301   1.567   7.408
 7857WAT     H223814   4.319   1.702   7.499
 7858WAT      O23815   6.176   3.559   3.983
 7858WAT     H123816   6.128   3.599   4.061
 7858WAT     H223817   6.266   3.527   4.012
 7859WAT      O23818   6.451   6.756   2.713
 7859WAT     H123819   6.418   6.790   2.801
 7859WAT     H223820   6.398   6.799   2.639
 7860WAT      O23821   5.707   3.750   5.262
 7860WAT     H123822   5.689   3.826   5.200
 7860WAT     H223823   5.636   3.747   5.332
 7861WAT      O23824   6.194   1.599   1.874
 7861WAT     H123825   6.216   1.584   1.778
 7861WAT     H223826   6.256   1.546   1.931
 7862WAT      O23827   9.305   6.502   9.745
 7862WAT     H123828   9.250   6.585   9.759
 7862WAT     H223829   9.327   6.492   9.648
 7863WAT      O23830   8.573   0.757   0.095
 7863WAT     H123831   8.575   0.717   0.187
 7863WAT     H223832   8.483   0.740   0.053
 7864WAT      O23833   1.790   1.871   0.919
 7864WAT     H123834   1.739   1.818   0.987
 7864WAT     H223835   1.727   1.898   0.846
 7865WAT      O23836   7.284   3.982   6.908
 7865WAT     H123837   7.377   4.004   6.937
 7865WAT     H223838   7.287   3.930   6.823
 7866WAT      O23839   4.799   8.754   7.798
 7866WAT     H123840   4.805   8.707   7.710
 7866WAT     H223841   4.703   8.772   7.820
 7867WAT      O23842   1.032   7.814   6.830
 7867WAT     H123843   1.048   7.905   6.791
 7867WAT     H223844   1.030   7.747   6.756
 7868WAT      O23845   6.659   7.525   3.195
 7868WAT     H123846   6.591   7.526   3.268
 7868WAT     H223847   6.723   7.450   3.211
 7869WAT      O23848   2.785   5.359   2.238
 7869WAT     H123849   2.833   5.447   2.250
 7869WAT     H223850   2.848   5.291   2.202
 7870WAT      O23851   5.565   2.356   7.750
 7870WAT     H123852   5.472   2.342   7.785
 7870WAT     H223853   5.591   2.278   7.692
 7871WAT      O23854   2.049   7.339   3.022
 7871WAT     H123855   1.971   7.307   3.075
 7871WAT     H223856   2.134   7.318   3.071
 7872WAT      O23857   9.740   7.318   6.412
 7872WAT     H123858   9.755   7.252   6.485
 7872WAT     H223859   9.739   7.270   6.324
 7873WAT      O23860   3.259   8.317   0.571
 7873WAT     H123861   3.235   8.403   0.617
 7873WAT     H223862   3.185   8.251   0.582
 7874WAT      O23863   4.931   5.636   9.414
 7874WAT     H123864   4.999   5.569   9.444
 7874WAT     H223865   4.868   5.592   9.349
 7875WAT      O23866   3.563   5.932   8.953
 7875WAT     H123867   3.628   5.903   9.023
 7875WAT     H223868   3.571   5.871   8.874
 7876WAT      O23869   0.490   1.112   9.062
 7876WAT     H123870   0.452   1.204   9.062
 7876WAT     H223871   0.453   1.061   8.984
 7877WAT      O23872   4.741   2.140   6.291
 7877WAT     H123873   4.710   2.097   6.206
 7877WAT     H223874   4.840   2.126   6.300
 7878WAT      O23875   6.747   1.368   6.085
 7878WAT     H123876   6.659   1.366   6.037
 7878WAT     H223877   6.820   1.391   6.021
 7879WAT      O23878   8.542   5.660   7.091
 7879WAT     H123879   8.613   5.607   7.137
 7879WAT     H223880   8.583   5.743   7.052
 7880WAT      O23881   3.207   7.040   1.578
 7880WAT     H123882   3.117   7.000   1.597
 7880WAT     H223883   3.278   6.972   1.598
 7881WAT      O23884   0.355   1.451   6.390
 7881WAT     H123885   0.319   1.448   6.484
 7881WAT     H223886   0.407   1.367   6.372
 7882WAT      O23887   4.481   6.623   9.816
 7882WAT     H123888   4.492   6.722   9.829
 7882WAT     H223889   4.505   6.575   9.900
 7883WAT      O23890   0.841   4.758   8.757
 7883WAT     H123891   0.825   4.713   8.670
 7883WAT     H223892   0.913   4.827   8.746
 7884WAT      O23893   9.588   2.958   9.537
 7884WAT     H123894   9.526   2.938   9.614
 7884WAT     H223895   9.639   3.042   9.556
 7885WAT      O23896   7.364   0.586   3.471
 7885WAT     H123897   7.335   0.500   3.430
 7885WAT     H223898   7.290   0.653   3.465
 7886WAT      O23899   5.285   2.852   6.038
 7886WAT     H123900   5.187   2.869   6.045
 7886WAT     H223901   5.300   2.760   6.001
 7887WAT      O23902   7.836   8.361   5.925
 7887WAT     H123903   7.765   8.309   5.971
 7887WAT     H223904   7.924   8.317   5.938
 7888WAT      O23905   9.727   5.217   3.315
 7888WAT     H123906   9.805   5.226   3.378
 7888WAT     H223907   9.727   5.126   3.275
 7889WAT      O23908   3.978   1.641   5.632
 7889WAT     H123909   3.913   1.641   5.555
 7889WAT     H223910   4.036   1.723   5.625
 7890WAT      O23911   7.402   7.615   9.041
 7890WAT     H123912   7.441   7.620   8.948
 7890WAT     H223913   7.400   7.707   9.080
 7891WAT      O23914   0.411   7.754   8.406
 7891WAT     H123915   0.431   7.748   8.308
 7891WAT     H223916   0.413   7.850   8.435
 7892WAT      O23917   0.550   2.681   1.125
 7892WAT     H123918   0.602   2.747   1.070
 7892WAT     H223919   0.609   2.643   1.196
 7893WAT      O23920   2.736   3.411   6.064
 7893WAT     H123921   2.702   3.335   6.120
 7893WAT     H223922   2.709   3.397   5.969
 7894WAT      O23923   5.470   5.354   3.017
 7894WAT     H123924   5.568   5.367   3.000
 7894WAT     H223925   5.429   5.441   3.045
 7895WAT      O23926   4.184   4.335   8.822
 7895WAT     H123927   4.249   4.393   8.871
 7895WAT     H223928   4.094   4.379   8.822
 7896WAT      O23929   7.123   2.376   5.652
 7896WAT     H123930   7.061   2.360   5.729
 7896WAT     H223931   7.203   2.426   5.684
 7897WAT      O23932   6.929   9.540   9.854
 7897WAT     H123933   6.862   9.500   9.792
 7897WAT     H223934   6.914   9.506   9.947
 7898WAT      O23935   4.749   9.509   5.240
 7898WAT     H123936   4.817   9.581   5.231
 7898WAT     H223937   4.660   9.542   5.209
 7899WAT      O23938   7.144   1.033   9.373
 7899WAT     H123939   7.221   1.036   9.309
 7899WAT     H223940   7.062   1.004   9.325
 7900WAT      O23941   6.593   5.197   4.408
 7900WAT     H123942   6.541   5.140   4.345
 7900WAT     H223943   6.673   5.236   4.361
 7901WAT      O23944   6.153   4.990   3.971
 7901WAT     H123945   6.114   4.948   3.889
 7901WAT     H223946   6.194   5.078   3.947
 7902WAT      O23947   9.215   3.812   1.356
 7902WAT     H123948   9.235   3.788   1.261
 7902WAT     H223949   9.271   3.890   1.383
 7903WAT      O23950   7.572   5.909   5.772
 7903WAT     H123951   7.558   5.996   5.723
 7903WAT     H223952   7.498   5.846   5.749
 7904WAT      O23953   6.168   8.380   3.181
 7904WAT     H123954   6.107   8.344   3.111
 7904WAT     H223955   6.117   8.397   3.265
 7905WAT      O23956   2.297   1.272   6.759
 7905WAT     H123957   2.285   1.198   6.692
 7905WAT     H223958   2.351   1.345   6.719
 7906WAT      O23959   1.088   7.961   7.224
 7906WAT     H123960   1.168   8.021   7.219
 7906WAT     H223961   1.012   8.002   7.173
 7907WAT      O23962   9.799   1.719   7.242
 7907WAT     H123963   9.892   1.717   7.208
 7907WAT     H223964   9.744   1.649   7.196
 7908WAT      O23965   9.452   5.805   0.474
 7908WAT     H123966   9.421   5.792   0.380
 7908WAT     H223967   9.552   5.806   0.477
 7909WAT      O23968   1.192   9.329   8.194
 7909WAT     H123969   1.191   9.239   8.238
 7909WAT     H223970   1.098   9.362   8.184
 7910WAT      O23971   9.809   3.787   0.094
 7910WAT     H123972   9.888   3.767   0.151
 7910WAT     H223973   9.729   3.801   0.151
 7911WAT      O23974   2.253   2.717   7.116
 7911WAT     H123975   2.272   2.674   7.204
 7911WAT     H223976   2.326   2.693   7.051
 7912WAT      O23977   7.624   4.409   0.433
 7912WAT     H123978   7.679   4.477   0.481
 7912WAT     H223979   7.678   4.326   0.419
 7913WAT      O23980   6.879   7.352   4.326
 7913WAT     H123981   6.824   7.275   4.293
 7913WAT     H223982   6.967   7.318   4.360
 7914WAT      O23983   9.840   5.763   1.403
 7914WAT     H123984   9.929   5.731   1.435
 7914WAT     H223985   9.822   5.725   1.312
 7915WAT      O23986   9.748   8.507   7.797
 7915WAT     H123987   9.804   8.585   7.768
 7915WAT     H223988   9.690   8.534   7.874
 7916WAT      O23989   4.899   3.517   7.202
 7916WAT     H123990   4.999   3.529   7.200
 7916WAT     H223991   4.858   3.566   7.125
 7917WAT      O23992   7.598   3.060   6.876
 7917WAT     H123993   7.604   3.036   6.779
 7917WAT     H223994   7.685   3.039   6.920
 7918WAT      O23995   6.045   3.881   7.201
 7918WAT     H123996   6.111   3.833   7.259
 7918WAT     H223997   5.992   3.945   7.257
 7919WAT      O23998   7.332   9.181   6.443
 7919WAT     H123999   7.412   9.241   6.437
 7919WAT     H224000   7.334   9.115   6.369
 7920WAT      O24001   8.123   9.820   5.894
 7920WAT     H124002   8.173   9.902   5.869
 7920WAT     H224003   8.181   9.761   5.951
 7921WAT      O24004   0.612   0.498   4.474
 7921WAT     H124005   0.657   0.490   4.385
 7921WAT     H224006   0.514   0.481   4.463
 7922WAT      O24007   2.688   1.659   3.131
 7922WAT     H124008   2.670   1.720   3.054
 7922WAT     H224009   2.736   1.710   3.203
 7923WAT      O24010   7.044   2.083   9.437
 7923WAT     H124011   7.117   2.049   9.497
 7923WAT     H224012   6.963   2.024   9.447
 7924WAT      O24013   8.817   7.803   0.824
 7924WAT     H124014   8.719   7.786   0.823
 7924WAT     H224015   8.835   7.898   0.797
 7925WAT      O24016   6.708   4.322   2.997
 7925WAT     H124017   6.646   4.275   2.933
 7925WAT     H224018   6.682   4.299   3.091
 7926WAT      O24019   7.223   9.487   7.807
 7926WAT     H124020   7.285   9.529   7.740
 7926WAT     H224021   7.142   9.544   7.817
 7927WAT      O24022   9.788   4.857   9.401
 7927WAT     H124023   9.783   4.936   9.340
 7927WAT     H224024   9.883   4.827   9.408
 7928WAT      O24025   4.939   0.573   2.141
 7928WAT     H124026   4.993   0.646   2.183
 7928WAT     H224027   4.850   0.567   2.185
 7929WAT      O24028   3.244   9.506   8.125
 7929WAT     H124029   3.150   9.496   8.158
 7929WAT     H224030   3.307   9.466   8.192
 7930WAT      O24031   7.837   9.328   7.238
 7930WAT     H124032   7.927   9.323   7.281
 7930WAT     H224033   7.836   9.403   7.171
 7931WAT      O24034   8.705   1.456   6.465
 7931WAT     H124035   8.676   1.389   6.534
 7931WAT     H224036   8.783   1.419   6.414
 7932WAT      O24037   1.253   7.387   4.331
 7932WAT     H124038   1.156   7.407   4.317
 7932WAT     H224039   1.308   7.469   4.312
 7933WAT      O24040   7.791   1.470   3.486
 7933WAT     H124041   7.768   1.556   3.531
 7933WAT     H224042   7.712   1.439   3.433
 7934WAT      O24043   2.923   6.610   0.225
 7934WAT     H124044   2.923   6.560   0.311
 7934WAT     H224045   2.843   6.582   0.171
 7935WAT      O24046   3.707   7.542   9.267
 7935WAT     H124047   3.678   7.483   9.191
 7935WAT     H224048   3.775   7.494   9.322
 7936WAT      O24049   8.507   1.792   8.159
 7936WAT     H124050   8.467   1.703   8.137
 7936WAT     H224051   8.522   1.799   8.258
 7937WAT      O24052   3.878   5.717   1.270
 7937WAT     H124053   3.830   5.767   1.198
 7937WAT     H224054   3.976   5.730   1.259
 7938WAT      O24055   8.390   5.574   1.875
 7938WAT     H124056   8.415   5.613   1.787
 7938WAT     H224057   8.336   5.641   1.927
 7939WAT      O24058   2.675   1.016   0.010
 7939WAT     H124059   2.709   0.943   0.069
 7939WAT     H224060   2.652   0.978  -0.080
 7940WAT      O24061   6.293   6.841   7.566
 7940WAT     H124062   6.304   6.741   7.571
 7940WAT     H224063   6.375   6.882   7.527
 7941WAT      O24064   0.495   2.675   4.152
 7941WAT     H124065   0.462   2.671   4.246
 7941WAT     H224066   0.419   2.697   4.090
 7942WAT      O24067   1.543   7.247   1.852
 7942WAT     H124068   1.574   7.337   1.822
 7942WAT     H224069   1.586   7.224   1.940
 7943WAT      O24070   4.951   7.097   9.010
 7943WAT     H124071   4.906   7.107   9.098
 7943WAT     H224072   5.023   7.166   9.000
 7944WAT      O24073   0.448   2.980   1.730
 7944WAT     H124074   0.531   3.014   1.686
 7944WAT     H224075   0.466   2.889   1.767
 7945WAT      O24076   8.347   9.606   2.980
 7945WAT     H124077   8.289   9.555   2.917
 7945WAT     H224078   8.409   9.543   3.027
 7946WAT      O24079   0.617   1.868   5.475
 7946WAT     H124080   0.627   1.841   5.571
 7946WAT     H224081   0.557   1.804   5.429
 7947WAT      O24082   1.611   0.657   1.216
 7947WAT     H124083   1.705   0.683   1.195
 7947WAT     H224084   1.553   0.672   1.136
 7948WAT      O24085   0.361   9.703   6.038
 7948WAT     H124086   0.393   9.715   6.132
 7948WAT     H224087   0.365   9.606   6.014
 7949WAT      O24088   2.823   7.580   1.719
 7949WAT     H124089   2.881   7.585   1.801
 7949WAT     H224090   2.731   7.552   1.746
 7950WAT      O24091   9.878   1.474   6.499
 7950WAT     H124092   9.976   1.475   6.517
 7950WAT     H224093   9.856   1.543   6.431
 7951WAT      O24094   9.499   7.049   5.798
 7951WAT     H124095   9.442   6.981   5.843
 7951WAT     H224096   9.572   7.003   5.746
 7952WAT      O24097   5.698   4.470   9.777
 7952WAT     H124098   5.751   4.546   9.815
 7952WAT     H224099   5.620   4.451   9.838
 7953WAT      O24100   4.071   5.422   3.841
 7953WAT     H124101   4.095   5.350   3.777
 7953WAT     H224102   3.972   5.425   3.854
 7954WAT      O24103   0.007   4.032   2.145
 7954WAT     H124104   0.037   4.128   2.134
 7954WAT     H224105  -0.058   4.026   2.220
 7955WAT      O24106   2.524   1.083   2.143
 7955WAT     H124107   2.537   0.988   2.117
 7955WAT     H224108   2.524   1.140   2.061
 7956WAT      O24109   8.368   1.762   5.133
 7956WAT     H124110   8.312   1.734   5.055
 7956WAT     H224111   8.373   1.686   5.199
 7957WAT      O24112   6.046   7.368   2.982
 7957WAT     H124113   6.136   7.336   3.013
 7957WAT     H224114   5.984   7.290   2.974
 7958WAT      O24115   0.317   4.738   3.753
 7958WAT     H124116   0.409   4.773   3.735
 7958WAT     H224117   0.270   4.722   3.667
 7959WAT      O24118   9.869   7.989   2.484
 7959WAT     H124119   9.967   7.979   2.500
 7959WAT     H224120   9.837   7.917   2.423
 7960WAT      O24121   6.724   2.078   7.251
 7960WAT     H124122   6.721   2.048   7.347
 7960WAT     H224123   6.715   2.177   7.247
 7961WAT      O24124   5.461   2.829   4.766
 7961WAT     H124125   5.550   2.787   4.752
 7961WAT     H224126   5.470   2.928   4.765
 7962WAT      O24127   2.758   1.855   3.286
 7962WAT     H124128   2.773   1.901   3.373
 7962WAT     H224129   2.713   1.917   3.222
 7963WAT      O24130   8.067   3.820   8.699
 7963WAT     H124131   7.992   3.770   8.742
 7963WAT     H224132   8.154   3.783   8.732
 7964WAT      O24133   5.952   7.895   6.061
 7964WAT     H124134   5.922   7.980   6.017
 7964WAT     H224135   5.872   7.840   6.085
 7965WAT      O24136   5.228   9.192   4.118
 7965WAT     H124137   5.269   9.199   4.209
 7965WAT     H224138   5.300   9.184   4.049
 7966WAT      O24139   7.444   0.201   4.751
 7966WAT     H124140   7.419   0.215   4.655
 7966WAT     H224141   7.477   0.107   4.763
 7967WAT      O24142   1.806   7.460   7.155
 7967WAT     H124143   1.789   7.480   7.251
 7967WAT     H224144   1.727   7.413   7.116
 7968WAT      O24145   2.192   3.406   8.938
 7968WAT     H124146   2.157   3.472   9.004
 7968WAT     H224147   2.251   3.452   8.872
 7969WAT      O24148   7.792   6.892   4.229
 7969WAT     H124149   7.709   6.902   4.173
 7969WAT     H224150   7.864   6.950   4.192
 7970WAT      O24151   4.763   5.877   2.547
 7970WAT     H124152   4.860   5.859   2.563
 7970WAT     H224153   4.750   5.912   2.454
 7971WAT      O24154   1.761   6.884   5.868
 7971WAT     H124155   1.673   6.879   5.915
 7971WAT     H224156   1.779   6.797   5.822
 7972WAT      O24157   6.823   9.077   8.180
 7972WAT     H124158   6.812   8.985   8.143
 7972WAT     H224159   6.742   9.101   8.234
 7973WAT      O24160   0.854   3.126   7.270
 7973WAT     H124161   0.931   3.156   7.325
 7973WAT     H224162   0.790   3.202   7.257
 7974WAT      O24163   7.972   8.651   8.851
 7974WAT     H124164   8.026   8.681   8.772
 7974WAT     H224165   7.975   8.722   8.922
 7975WAT      O24166   5.113   3.534   8.790
 7975WAT     H124167   5.146   3.450   8.747
 7975WAT     H224168   5.020   3.554   8.757
 7976WAT      O24169   7.763   1.024   8.359
 7976WAT     H124170   7.716   1.081   8.291
 7976WAT     H224171   7.702   0.949   8.387
 7977WAT      O24172   6.645   2.815   0.379
 7977WAT     H124173   6.609   2.725   0.406
 7977WAT     H224174   6.591   2.887   0.421
 7978WAT      O24175   3.016   6.655   3.509
 7978WAT     H124176   2.990   6.604   3.591
 7978WAT     H224177   3.112   6.682   3.515
 7979WAT      O24178   1.678   8.139   4.770
 7979WAT     H124179   1.766   8.177   4.798
 7979WAT     H224180   1.624   8.210   4.725
 7980WAT      O24181   3.340   1.208   3.835
 7980WAT     H124182   3.393   1.132   3.874
 7980WAT     H224183   3.379   1.234   3.747
 7981WAT      O24184   1.933   2.644   9.879
 7981WAT     H124185   1.883   2.647   9.792
 7981WAT     H224186   1.963   2.737   9.903
 7982WAT      O24187   7.443   9.472   6.248
 7982WAT     H124188   7.511   9.511   6.185
 7982WAT     H224189   7.488   9.446   6.333
 7983WAT      O24190   7.697   5.383   9.672
 7983WAT     H124191   7.641   5.459   9.705
 7983WAT     H224192   7.743   5.409   9.587
 7984WAT      O24193   9.170   9.672   6.819
 7984WAT     H124194   9.214   9.704   6.735
 7984WAT     H224195   9.129   9.750   6.867
 7985WAT      O24196   6.903   7.435   0.401
 7985WAT     H124197   6.803   7.437   0.395
 7985WAT     H224198   6.943   7.473   0.318
 7986WAT      O24199   5.644   9.570   1.208
 7986WAT     H124200   5.676   9.571   1.303
 7986WAT     H224201   5.620   9.477   1.182
 7987WAT      O24202   7.784   9.279   8.691
 7987WAT     H124203   7.804   9.371   8.657
 7987WAT     H224204   7.685   9.266   8.699
 7988WAT      O24205   9.804   6.057   9.579
 7988WAT     H124206   9.739   5.981   9.574
 7988WAT     H224207   9.822   6.078   9.675
 7989WAT      O24208   9.527   9.790   5.850
 7989WAT     H124209   9.501   9.813   5.756
 7989WAT     H224210   9.485   9.856   5.913
 7990WAT      O24211   6.303   5.844   3.668
 7990WAT     H124212   6.257   5.757   3.688
 7990WAT     H224213   6.389   5.826   3.621
 7991WAT      O24214   2.911   5.683   9.391
 7991WAT     H124215   2.875   5.623   9.320
 7991WAT     H224216   2.979   5.634   9.445
 7992WAT      O24217   1.152   7.597   5.818
 7992WAT     H124218   1.169   7.690   5.850
 7992WAT     H224219   1.145   7.598   5.718
 7993WAT      O24220   4.268   7.172   9.654
 7993WAT     H124221   4.187   7.219   9.691
 7993WAT     H224222   4.339   7.240   9.635
 7994WAT      O24223   7.025   8.841   7.071
 7994WAT     H124224   6.984   8.889   6.993
 7994WAT     H224225   7.081   8.765   7.037
 7995WAT      O24226   3.972   9.388   0.074
 7995WAT     H124227   4.047   9.345   0.025
 7995WAT     H224228   3.977   9.487   0.064
 7996WAT      O24229   9.782   1.147   2.380
 7996WAT     H124230   9.845   1.176   2.308
 7996WAT     H224231   9.831   1.139   2.467
 7997WAT      O24232   8.573   3.774   3.719
 7997WAT     H124233   8.629   3.768   3.802
 7997WAT     H224234   8.629   3.749   3.640
 7998WAT      O24235   1.774   1.463   5.413
 7998WAT     H124236   1.799   1.370   5.438
 7998WAT     H224237   1.729   1.508   5.490
 7999WAT      O24238   0.610   0.887   3.998
 7999WAT     H124239   0.528   0.855   4.045
 7999WAT     H224240   0.585   0.957   3.931
 8000WAT      O24241   4.596   7.780   8.496
 8000WAT     H124242   4.574   7.876   8.513
 8000WAT     H224243   4.557   7.752   8.408
 8001WAT      O24244   9.539   2.159   0.520
 8001WAT     H124245   9.595   2.190   0.443
 8001WAT     H224246   9.571   2.203   0.604
 8002WAT      O24247   2.377   7.026   4.684
 8002WAT     H124248   2.416   7.067   4.601
 8002WAT     H224249   2.280   7.008   4.669
 8003WAT      O24250   1.552   3.671   6.061
 8003WAT     H124251   1.485   3.686   5.988
 8003WAT     H224252   1.633   3.728   6.044
 8004WAT      O24253   5.304   0.848   5.663
 8004WAT     H124254   5.360   0.900   5.599
 8004WAT     H224255   5.310   0.889   5.754
 8005WAT      O24256   3.647   1.748   9.821
 8005WAT     H124257   3.713   1.707   9.757
 8005WAT     H224258   3.554   1.731   9.787
 8006WAT      O24259   1.417   2.839   5.138
 8006WAT     H124260   1.407   2.849   5.039
 8006WAT     H224261   1.367   2.758   5.168
 8007WAT      O24262   0.572   7.865   6.435
 8007WAT     H124263   0.551   7.943   6.494
 8007WAT     H224264   0.576   7.895   6.340
 8008WAT      O24265   8.829   7.805   5.138
 8008WAT     H124266   8.826   7.705   5.137
 8008WAT     H224267   8.887   7.837   5.063
 8009WAT      O24268   7.751   2.813   5.440
 8009WAT     H124269   7.723   2.900   5.399
 8009WAT     H224270   7.828   2.775   5.389
 8010WAT      O24271   0.643   9.550   2.916
 8010WAT     H124272   0.660   9.636   2.868
 8010WAT     H224273   0.648   9.566   3.015
 8011WAT      O24274   2.554   7.117   4.869
 8011WAT     H124275   2.504   7.079   4.791
 8011WAT     H224276   2.493   7.124   4.948
 8012WAT      O24277   5.651   6.214   4.817
 8012WAT     H124278   5.668   6.281   4.745
 8012WAT     H224279   5.706   6.132   4.800
 8013WAT      O24280   1.204   4.463   2.406
 8013WAT     H124281   1.259   4.397   2.458
 8013WAT     H224282   1.119   4.420   2.377
 8014WAT      O24283   2.532   3.385   8.922
 8014WAT     H124284   2.455   3.334   8.960
 8014WAT     H224285   2.601   3.321   8.888
 8015WAT      O24286   6.940   1.944   3.700
 8015WAT     H124287   6.895   2.019   3.749
 8015WAT     H224288   6.960   1.870   3.765
 8016WAT      O24289   7.152   0.283   6.571
 8016WAT     H124290   7.117   0.324   6.486
 8016WAT     H224291   7.081   0.225   6.611
 8017WAT      O24292   8.439   5.151   5.515
 8017WAT     H124293   8.444   5.207   5.598
 8017WAT     H224294   8.356   5.095   5.518
 8018WAT      O24295   8.140   4.438   9.709
 8018WAT     H124296   8.145   4.521   9.766
 8018WAT     H224297   8.070   4.377   9.745
 8019WAT      O24298   8.827   1.903   4.519
 8019WAT     H124299   8.835   2.002   4.532
 8019WAT     H224300   8.795   1.884   4.426
 8020WAT      O24301   3.789   1.676   4.925
 8020WAT     H124302   3.855   1.720   4.987
 8020WAT     H224303   3.740   1.747   4.873
 8021WAT      O24304   8.720   4.478   8.950
 8021WAT     H124305   8.786   4.542   8.991
 8021WAT     H224306   8.766   4.423   8.881
 8022WAT      O24307   7.071   6.988   9.797
 8022WAT     H124308   6.992   6.936   9.832
 8022WAT     H224309   7.064   6.995   9.697
 8023WAT      O24310   1.035   7.436   9.105
 8023WAT     H124311   1.105   7.384   9.056
 8023WAT     H224312   0.955   7.446   9.047
 8024WAT      O24313   5.340   0.627   1.909
 8024WAT     H124314   5.295   0.554   1.961
 8024WAT     H224315   5.439   0.618   1.918
 8025WAT      O24316   8.544   6.770   5.936
 8025WAT     H124317   8.515   6.863   5.913
 8025WAT     H224318   8.634   6.772   5.978
 8026WAT      O24319   2.364   8.871   3.932
 8026WAT     H124320   2.449   8.911   3.897
 8026WAT     H224321   2.292   8.880   3.864
 8027WAT      O24322   4.008   5.825   1.555
 8027WAT     H124323   4.095   5.864   1.586
 8027WAT     H224324   4.020   5.728   1.534
 8028WAT      O24325   7.761   5.574   3.935
 8028WAT     H124326   7.775   5.634   3.855
 8028WAT     H224327   7.716   5.490   3.906
 8029WAT      O24328   0.791   6.621   9.231
 8029WAT     H124329   0.889   6.621   9.254
 8029WAT     H224330   0.770   6.542   9.174
 8030WAT      O24331   7.101   2.107   5.503
 8030WAT     H124332   7.093   2.200   5.538
 8030WAT     H224333   7.173   2.059   5.553
 8031WAT      O24334   0.662   4.338   6.150
 8031WAT     H124335   0.670   4.305   6.056
 8031WAT     H224336   0.621   4.267   6.207
 8032WAT      O24337   7.417   3.169   2.477
 8032WAT     H124338   7.337   3.189   2.534
 8032WAT     H224339   7.389   3.115   2.398
 8033WAT      O24340   4.206   9.573   0.719
 8033WAT     H124341   4.273   9.646   0.735
 8033WAT     H224342   4.161   9.589   0.631
 8034WAT      O24343   2.532   4.565   2.110
 8034WAT     H124344   2.466   4.623   2.157
 8034WAT     H224345   2.594   4.622   2.056
 8035WAT      O24346   2.801   8.334   4.738
 8035WAT     H124347   2.832   8.242   4.763
 8035WAT     H224348   2.878   8.398   4.745
 8036WAT      O24349   4.071   7.563   1.935
 8036WAT     H124350   4.089   7.589   1.840
 8036WAT     H224351   4.087   7.465   1.947
 8037WAT      O24352   1.280   8.528   4.058
 8037WAT     H124353   1.209   8.465   4.087
 8037WAT     H224354   1.361   8.477   4.028
 8038WAT      O24355   9.629   0.134   3.693
 8038WAT     H124356   9.700   0.094   3.635
 8038WAT     H224357   9.638   0.234   3.694
 8039WAT      O24358   2.787   9.097   9.507
 8039WAT     H124359   2.813   9.001   9.514
 8039WAT     H224360   2.866   9.154   9.528
 8040WAT      O24361   7.488   1.053   1.399
 8040WAT     H124362   7.392   1.042   1.425
 8040WAT     H224363   7.536   0.966   1.413
 8041WAT      O24364   1.191   1.793   4.833
 8041WAT     H124365   1.103   1.797   4.881
 8041WAT     H224366   1.194   1.866   4.764
 8042WAT      O24367   0.073   9.054   3.851
 8042WAT     H124368   0.146   8.986   3.863
 8042WAT     H224369  -0.003   9.012   3.801
 8043WAT      O24370   2.446   6.023   9.264
 8043WAT     H124371   2.535   6.065   9.247
 8043WAT     H224372   2.452   5.963   9.344
 8044WAT      O24373   5.102   9.540   6.818
 8044WAT     H124374   5.154   9.459   6.847
 8044WAT     H224375   5.164   9.605   6.773
 8045WAT      O24376   7.572   5.915   1.116
 8045WAT     H124377   7.514   5.985   1.158
 8045WAT     H224378   7.668   5.938   1.130
 8046WAT      O24379   1.887   2.681   1.248
 8046WAT     H124380   1.871   2.683   1.149
 8046WAT     H224381   1.825   2.744   1.294
 8047WAT      O24382   7.977   5.755   5.690
 8047WAT     H124383   8.027   5.668   5.697
 8047WAT     H224384   8.040   5.827   5.659
 8048WAT      O24385   8.766   7.259   2.744
 8048WAT     H124386   8.778   7.265   2.645
 8048WAT     H224387   8.846   7.298   2.790
 8049WAT      O24388   9.820   8.748   7.245
 8049WAT     H124389   9.861   8.839   7.254
 8049WAT     H224390   9.771   8.742   7.158
 8050WAT      O24391   8.599   0.970   7.472
 8050WAT     H124392   8.634   0.905   7.539
 8050WAT     H224393   8.538   1.035   7.518
 8051WAT      O24394   0.790   2.899   6.000
 8051WAT     H124395   0.762   2.970   5.934
 8051WAT     H224396   0.873   2.929   6.047
 8052WAT      O24397   4.175   5.475   9.268
 8052WAT     H124398   4.131   5.387   9.288
 8052WAT     H224399   4.152   5.502   9.174
 8053WAT      O24400   4.474   2.115   8.998
 8053WAT     H124401   4.401   2.047   8.989
 8053WAT     H224402   4.542   2.101   8.926
 8054WAT      O24403   8.929   5.546   8.029
 8054WAT     H124404   9.020   5.522   8.063
 8054WAT     H224405   8.934   5.631   7.977
 8055WAT      O24406   0.990   9.693   4.508
 8055WAT     H124407   0.923   9.645   4.451
 8055WAT     H224408   0.945   9.732   4.588
 8056WAT      O24409   1.957   1.936   1.732
 8056WAT     H124410   1.983   1.887   1.815
 8056WAT     H224411   1.858   1.933   1.721
 8057WAT      O24412   1.254   4.355   9.613
 8057WAT     H124413   1.279   4.323   9.521
 8057WAT     H224414   1.239   4.277   9.673
 8058WAT      O24415   9.326   5.350   8.315
 8058WAT     H124416   9.414   5.338   8.269
 8058WAT     H224417   9.328   5.433   8.370
 8059WAT      O24418   2.647   3.961   4.946
 8059WAT     H124419   2.592   3.910   4.879
 8059WAT     H224420   2.717   3.901   4.985
 8060WAT      O24421   8.182   9.016   3.179
 8060WAT     H124422   8.275   9.052   3.176
 8060WAT     H224423   8.123   9.073   3.122
 8061WAT      O24424   5.597   4.258   8.782
 8061WAT     H124425   5.652   4.238   8.701
 8061WAT     H224426   5.616   4.351   8.813
 8062WAT      O24427   7.318   6.955   1.840
 8062WAT     H124428   7.313   6.864   1.798
 8062WAT     H224429   7.231   7.002   1.829
 8063WAT      O24430   6.999   0.267   2.195
 8063WAT     H124431   7.098   0.286   2.196
 8063WAT     H224432   6.961   0.286   2.285
 8064WAT      O24433   7.765   7.527   1.908
 8064WAT     H124434   7.836   7.496   1.971
 8064WAT     H224435   7.726   7.612   1.941
 8065WAT      O24436   1.613   4.762   3.579
 8065WAT     H124437   1.692   4.717   3.621
 8065WAT     H224438   1.643   4.814   3.499
 8066WAT      O24439   0.393   8.874   1.923
 8066WAT     H124440   0.466   8.843   1.983
 8066WAT     H224441   0.378   8.972   1.935
 8067WAT      O24442   4.679   6.393   8.212
 8067WAT     H124443   4.761   6.337   8.200
 8067WAT     H224444   4.649   6.388   8.307
 8068WAT      O24445   6.531   0.713   6.349
 8068WAT     H124446   6.448   0.662   6.323
 8068WAT     H224447   6.558   0.772   6.273
 8069WAT      O24448   5.215   8.851   4.342
 8069WAT     H124449   5.237   8.756   4.319
 8069WAT     H224450   5.293   8.894   4.386
 8070WAT      O24451   6.111   6.202   4.398
 8070WAT     H124452   6.019   6.222   4.433
 8070WAT     H224453   6.104   6.160   4.308
 8071WAT      O24454   0.501   0.693   2.268
 8071WAT     H124455   0.416   0.736   2.239
 8071WAT     H224456   0.482   0.626   2.340
 8072WAT      O24457   4.562   9.480   2.006
 8072WAT     H124458   4.595   9.450   2.095
 8072WAT     H224459   4.629   9.457   1.935
 8073WAT      O24460   2.979   5.355   2.764
 8073WAT     H124461   2.988   5.322   2.670
 8073WAT     H224462   3.061   5.406   2.790
 8074WAT      O24463   8.229   6.148   3.201
 8074WAT     H124464   8.206   6.056   3.170
 8074WAT     H224465   8.246   6.207   3.122
 8075WAT      O24466   2.566   5.875   4.355
 8075WAT     H124467   2.479   5.895   4.401
 8075WAT     H224468   2.632   5.946   4.377
 8076WAT      O24469   4.641   5.317   5.479
 8076WAT     H124470   4.621   5.347   5.572
 8076WAT     H224471   4.574   5.359   5.416
 8077WAT      O24472   3.764   0.615   3.728
 8077WAT     H124473   3.834   0.558   3.686
 8077WAT     H224474   3.704   0.653   3.656
 8078WAT      O24475   3.717   0.998   3.571
 8078WAT     H124476   3.764   0.986   3.659
 8078WAT     H224477   3.716   1.095   3.547
 8079WAT      O24478   0.223   4.918   7.298
 8079WAT     H124479   0.270   4.981   7.360
 8079WAT     H224480   0.210   4.962   7.209
 8080WAT      O24481   2.748   0.099   0.595
 8080WAT     H124482   2.648   0.107   0.596
 8080WAT     H224483   2.774   0.003   0.603
 8081WAT      O24484   5.408   3.293   6.800
 8081WAT     H124485   5.452   3.351   6.731
 8081WAT     H224486   5.468   3.215   6.821
 8082WAT      O24487   6.129   3.651   6.419
 8082WAT     H124488   6.159   3.601   6.501
 8082WAT     H224489   6.111   3.746   6.443
 8083WAT      O24490   9.630   5.839   9.575
 8083WAT     H124491   9.713   5.817   9.523
 8083WAT     H224492   9.565   5.886   9.516
 8084WAT      O24493   6.211   0.697   0.953
 8084WAT     H124494   6.234   0.792   0.974
 8084WAT     H224495   6.230   0.640   1.033
 8085WAT      O24496   4.865   0.515   1.096
 8085WAT     H124497   4.868   0.606   1.137
 8085WAT     H224498   4.800   0.515   1.020
 8086WAT      O24499   0.392   5.120   8.391
 8086WAT     H124500   0.312   5.152   8.443
 8086WAT     H224501   0.469   5.108   8.452
 8087WAT      O24502   0.524   2.802   4.719
 8087WAT     H124503   0.594   2.803   4.790
 8087WAT     H224504   0.553   2.859   4.642
 8088WAT      O24505   4.089   3.213   5.325
 8088WAT     H124506   4.019   3.147   5.351
 8088WAT     H224507   4.057   3.267   5.247
 8089WAT      O24508   2.797   5.267   6.863
 8089WAT     H124509   2.776   5.179   6.820
 8089WAT     H224510   2.747   5.274   6.949
 8090WAT      O24511   0.639   5.721   1.015
 8090WAT     H124512   0.717   5.659   1.024
 8090WAT     H224513   0.570   5.697   1.083
 8091WAT      O24514   5.295   2.563   0.541
 8091WAT     H124515   5.336   2.580   0.631
 8091WAT     H224516   5.296   2.465   0.521
 8092WAT      O24517   0.672   2.144   5.355
 8092WAT     H124518   0.660   2.046   5.343
 8092WAT     H224519   0.657   2.168   5.451
 8093WAT      O24520   5.621   3.186   7.545
 8093WAT     H124521   5.530   3.150   7.567
 8093WAT     H224522   5.618   3.232   7.457
 8094WAT      O24523   8.344   6.009   2.244
 8094WAT     H124524   8.420   5.947   2.267
 8094WAT     H224525   8.289   6.025   2.326
 8095WAT      O24526   5.767   9.623   2.349
 8095WAT     H124527   5.738   9.636   2.254
 8095WAT     H224528   5.720   9.690   2.407
 8096WAT      O24529   5.983   5.508   7.414
 8096WAT     H124530   6.066   5.474   7.459
 8096WAT     H224531   5.908   5.443   7.428
 8097WAT      O24532   1.345   0.253   2.329
 8097WAT     H124533   1.350   0.163   2.371
 8097WAT     H224534   1.392   0.320   2.386
 8098WAT      O24535   4.611   9.449   3.640
 8098WAT     H124536   4.612   9.462   3.739
 8098WAT     H224537   4.698   9.481   3.601
 8099WAT      O24538   7.410   8.464   0.862
 8099WAT     H124539   7.439   8.555   0.833
 8099WAT     H224540   7.489   8.413   0.895
 8100WAT      O24541   3.277   7.162   9.614
 8100WAT     H124542   3.295   7.255   9.647
 8100WAT     H224543   3.280   7.161   9.514
 8101WAT      O24544   3.557   4.000   4.169
 8101WAT     H124545   3.486   4.071   4.171
 8101WAT     H224546   3.605   3.999   4.257
 8102WAT      O24547   7.712   0.471   2.820
 8102WAT     H124548   7.811   0.479   2.838
 8102WAT     H224549   7.686   0.375   2.815
 8103WAT      O24550   4.465   2.944   7.616
 8103WAT     H124551   4.534   3.016   7.612
 8103WAT     H224552   4.508   2.858   7.642
 8104WAT      O24553   1.968   8.266   3.123
 8104WAT     H124554   1.873   8.297   3.136
 8104WAT     H224555   2.005   8.309   3.041
 8105WAT      O24556   9.037   5.128   1.738
 8105WAT     H124557   8.946   5.087   1.745
 8105WAT     H224558   9.107   5.058   1.751
 8106WAT      O24559   0.019   5.998   2.283
 8106WAT     H124560   0.077   5.996   2.201
 8106WAT     H224561   0.067   6.045   2.357
 8107WAT      O24562   8.683   7.680   7.156
 8107WAT     H124563   8.609   7.653   7.095
 8107WAT     H224564   8.750   7.735   7.105
 8108WAT      O24565   2.212   3.700   6.620
 8108WAT     H124566   2.185   3.641   6.696
 8108WAT     H224567   2.169   3.790   6.630
 8109WAT      O24568   5.158   7.258   9.055
 8109WAT     H124569   5.239   7.201   9.064
 8109WAT     H224570   5.179   7.337   8.997
 8110WAT      O24571   1.259   9.520   8.381
 8110WAT     H124572   1.276   9.448   8.313
 8110WAT     H224573   1.266   9.481   8.473
 8111WAT      O24574   9.786   1.177   3.405
 8111WAT     H124575   9.841   1.193   3.488
 8111WAT     H224576   9.810   1.245   3.336
 8112WAT      O24577   8.543   6.148   3.097
 8112WAT     H124578   8.551   6.093   3.180
 8112WAT     H224579   8.617   6.216   3.094
 8113WAT      O24580   1.400   1.541   2.183
 8113WAT     H124581   1.322   1.603   2.193
 8113WAT     H224582   1.384   1.478   2.107
 8114WAT      O24583   6.881   7.571   1.082
 8114WAT     H124584   6.977   7.586   1.058
 8114WAT     H224585   6.863   7.473   1.087
 8115WAT      O24586   4.335   1.593   9.703
 8115WAT     H124587   4.409   1.611   9.638
 8115WAT     H224588   4.275   1.522   9.665
 8116WAT      O24589   0.651   0.212   9.792
 8116WAT     H124590   0.741   0.170   9.805
 8116WAT     H224591   0.648   0.259   9.704
 8117WAT      O24592   5.104   2.626   0.975
 8117WAT     H124593   5.200   2.642   1.000
 8117WAT     H224594   5.048   2.626   1.058
 8118WAT      O24595   1.299   1.716   6.717
 8118WAT     H124596   1.342   1.677   6.798
 8118WAT     H224597   1.216   1.766   6.743
 8119WAT      O24598   2.905   8.355   8.519
 8119WAT     H124599   2.932   8.314   8.606
 8119WAT     H224600   2.809   8.335   8.500
 8120WAT      O24601   4.191   8.338   5.326
 8120WAT     H124602   4.146   8.398   5.392
 8120WAT     H224603   4.206   8.249   5.368
 8121WAT      O24604   9.342   8.488   9.389
 8121WAT     H124605   9.399   8.445   9.460
 8121WAT     H224606   9.397   8.505   9.307
 8122WAT      O24607   2.925   1.208   7.211
 8122WAT     H124608   2.995   1.174   7.273
 8122WAT     H224609   2.965   1.274   7.147
 8123WAT      O24610   9.692   2.466   4.305
 8123WAT     H124611   9.709   2.439   4.400
 8123WAT     H224612   9.717   2.562   4.293
 8124WAT      O24613   6.960   6.250   4.108
 8124WAT     H124614   6.962   6.153   4.086
 8124WAT     H224615   6.961   6.304   4.023
 8125WAT      O24616   4.844   0.515   4.720
 8125WAT     H124617   4.924   0.547   4.671
 8125WAT     H224618   4.844   0.415   4.722
 8126WAT      O24619   9.781   7.261   5.258
 8126WAT     H124620   9.844   7.264   5.336
 8126WAT     H224621   9.687   7.256   5.292
 8127WAT      O24622   0.681   4.443   0.302
 8127WAT     H124623   0.747   4.383   0.259
 8127WAT     H224624   0.721   4.484   0.384
 8128WAT      O24625   6.518   9.507   1.485
 8128WAT     H124626   6.535   9.599   1.450
 8128WAT     H224627   6.597   9.476   1.538
 8129WAT      O24628   6.352   9.776   3.091
 8129WAT     H124629   6.440   9.730   3.082
 8129WAT     H224630   6.305   9.775   3.003
 8130WAT      O24631   1.382   2.050   9.385
 8130WAT     H124632   1.400   1.956   9.354
 8130WAT     H224633   1.453   2.077   9.451
 8131WAT      O24634   8.922   1.979   3.556
 8131WAT     H124635   8.950   1.890   3.591
 8131WAT     H224636   9.002   2.031   3.528
 8132WAT      O24637   4.102   0.582   7.261
 8132WAT     H124638   4.199   0.606   7.255
 8132WAT     H224639   4.092   0.482   7.259
 8133WAT      O24640   2.573   9.577   6.946
 8133WAT     H124641   2.588   9.551   7.042
 8133WAT     H224642   2.498   9.642   6.941
 8134WAT      O24643   5.214   6.455   7.548
 8134WAT     H124644   5.254   6.499   7.629
 8134WAT     H224645   5.125   6.495   7.529
 8135WAT      O24646   7.805   0.647   1.424
 8135WAT     H124647   7.871   0.652   1.349
 8135WAT     H224648   7.853   0.624   1.509
 8136WAT      O24649   6.561   2.882   0.141
 8136WAT     H124650   6.591   2.868   0.235
 8136WAT     H224651   6.602   2.813   0.082
 8137WAT      O24652   4.690   0.010   3.098
 8137WAT     H124653   4.713   0.102   3.068
 8137WAT     H224654   4.591  -0.005   3.086
 8138WAT      O24655   7.746   8.046   3.841
 8138WAT     H124656   7.711   8.099   3.918
 8138WAT     H224657   7.701   8.076   3.757
 8139WAT      O24658   6.239   1.413   4.884
 8139WAT     H124659   6.287   1.335   4.845
 8139WAT     H224660   6.304   1.475   4.927
 8140WAT      O24661   8.299   4.232   9.546
 8140WAT     H124662   8.340   4.311   9.499
 8140WAT     H224663   8.233   4.265   9.614
 8141WAT      O24664   5.213   9.662   4.898
 8141WAT     H124665   5.173   9.582   4.944
 8141WAT     H224666   5.304   9.639   4.866
 8142WAT      O24667   8.301   8.744   8.708
 8142WAT     H124668   8.209   8.785   8.710
 8142WAT     H224669   8.323   8.708   8.799
 8143WAT      O24670   9.637   7.030   0.696
 8143WAT     H124671   9.632   6.939   0.737
 8143WAT     H224672   9.717   7.036   0.636
 8144WAT      O24673   7.200   3.578   3.078
 8144WAT     H124674   7.274   3.644   3.089
 8144WAT     H224675   7.217   3.523   2.996
 8145WAT      O24676   6.525   1.905   4.580
 8145WAT     H124677   6.538   1.997   4.619
 8145WAT     H224678   6.526   1.838   4.654
 8146WAT      O24679   1.951   8.105   4.469
 8146WAT     H124680   1.998   8.086   4.554
 8146WAT     H224681   2.003   8.172   4.416
 8147WAT      O24682   3.687   5.642   1.500
 8147WAT     H124683   3.702   5.700   1.580
 8147WAT     H224684   3.746   5.673   1.426
 8148WAT      O24685   6.927   7.031   3.627
 8148WAT     H124686   7.012   7.006   3.580
 8148WAT     H224687   6.879   7.101   3.575
 8149WAT      O24688   4.771   2.641   7.869
 8149WAT     H124689   4.709   2.669   7.942
 8149WAT     H224690   4.865   2.668   7.892
 8150WAT      O24691   4.280   0.227   7.276
 8150WAT     H124692   4.188   0.264   7.265
 8150WAT     H224693   4.345   0.302   7.287
 8151WAT      O24694   3.283   5.309   2.933
 8151WAT     H124695   3.237   5.396   2.915
 8151WAT     H224696   3.296   5.259   2.847
 8152WAT      O24697   4.807   1.050   3.213
 8152WAT     H124698   4.774   0.956   3.204
 8152WAT     H224699   4.905   1.049   3.237
 8153WAT      O24700   3.112   1.396   6.588
 8153WAT     H124701   3.125   1.473   6.651
 8153WAT     H224702   3.170   1.409   6.508
 8154WAT      O24703   2.463   0.480   0.432
 8154WAT     H124704   2.410   0.550   0.479
 8154WAT     H224705   2.549   0.465   0.481
 8155WAT      O24706   2.443   2.875   8.128
 8155WAT     H124707   2.426   2.911   8.220
 8155WAT     H224708   2.542   2.874   8.111
 8156WAT      O24709   9.857   1.753   6.884
 8156WAT     H124710   9.840   1.778   6.789
 8156WAT     H224711   9.846   1.833   6.942
 8157WAT      O24712   3.164   2.587   3.340
 8157WAT     H124713   3.221   2.506   3.352
 8157WAT     H224714   3.200   2.642   3.264
 8158WAT      O24715   1.606   1.348   5.062
 8158WAT     H124716   1.675   1.283   5.033
 8158WAT     H224717   1.547   1.371   4.984
 8159WAT      O24718   0.778   7.105   7.994
 8159WAT     H124719   0.792   7.139   8.087
 8159WAT     H224720   0.852   7.138   7.935
 8160WAT      O24721   0.514   6.681   5.379
 8160WAT     H124722   0.427   6.682   5.329
 8160WAT     H224723   0.503   6.629   5.463
 8161WAT      O24724   6.133   9.724   2.606
 8161WAT     H124725   6.185   9.792   2.659
 8161WAT     H224726   6.109   9.647   2.665
 8162WAT      O24727   5.078   1.050   0.558
 8162WAT     H124728   5.030   1.003   0.485
 8162WAT     H224729   5.173   1.020   0.561
 8163WAT      O24730   4.743   1.849   4.219
 8163WAT     H124731   4.795   1.842   4.135
 8163WAT     H224732   4.677   1.924   4.211
 8164WAT      O24733   1.361   4.114   6.641
 8164WAT     H124734   1.280   4.097   6.586
 8164WAT     H224735   1.418   4.032   6.642
 8165WAT      O24736   4.147   7.946   4.889
 8165WAT     H124737   4.237   7.990   4.901
 8165WAT     H224738   4.130   7.884   4.965
 8166WAT      O24739   2.102   2.398   0.540
 8166WAT     H124740   2.149   2.316   0.506
 8166WAT     H224741   2.167   2.455   0.590
 8167WAT      O24742   6.076   9.425   3.888
 8167WAT     H124743   6.168   9.392   3.867
 8167WAT     H224744   6.010   9.353   3.869
 8168WAT      O24745   5.497   9.542   9.581
 8168WAT     H124746   5.490   9.637   9.551
 8168WAT     H224747   5.407   9.510   9.611
 8169WAT      O24748   5.208   0.953   2.456
 8169WAT     H124749   5.181   1.043   2.420
 8169WAT     H224750   5.296   0.961   2.502
 8170WAT      O24751   6.544   6.519   9.373
 8170WAT     H124752   6.618   6.565   9.324
 8170WAT     H224753   6.576   6.490   9.463
 8171WAT      O24754   6.912   9.541   8.532
 8171WAT     H124755   6.886   9.526   8.627
 8171WAT     H224756   6.995   9.597   8.528
 8172WAT      O24757   6.438   6.875  -0.002
 8172WAT     H124758   6.342   6.877  -0.031
 8172WAT     H224759   6.448   6.812   0.074
 8173WAT      O24760   8.532   6.588   0.586
 8173WAT     H124761   8.448   6.632   0.618
 8173WAT     H224762   8.598   6.584   0.661
 8174WAT      O24763   2.390   5.374   2.522
 8174WAT     H124764   2.399   5.432   2.440
 8174WAT     H224765   2.294   5.370   2.550
 8175WAT      O24766   4.143   8.642   3.466
 8175WAT     H124767   4.098   8.707   3.405
 8175WAT     H224768   4.237   8.627   3.435
 8176WAT      O24769   4.159   4.025   3.797
 8176WAT     H124770   4.234   3.968   3.763
 8176WAT     H224771   4.076   3.969   3.806
 8177WAT      O24772   3.519   2.504   3.953
 8177WAT     H124773   3.536   2.546   3.864
 8177WAT     H224774   3.580   2.544   4.022
 8178WAT      O24775   1.927   6.995   3.812
 8178WAT     H124776   1.952   7.090   3.832
 8178WAT     H224777   1.883   6.955   3.892
 8179WAT      O24778   0.454   0.967   3.068
 8179WAT     H124779   0.476   0.869   3.072
 8179WAT     H224780   0.392   0.990   3.143
 8180WAT      O24781   2.508   8.944   3.512
 8180WAT     H124782   2.544   8.957   3.604
 8180WAT     H224783   2.441   9.015   3.492
 8181WAT      O24784   8.960   0.812   7.984
 8181WAT     H124785   9.030   0.761   8.034
 8181WAT     H224786   9.003   0.887   7.934
 8182WAT      O24787   8.212   6.126   2.797
 8182WAT     H124788   8.158   6.149   2.716
 8182WAT     H224789   8.204   6.198   2.865
 8183WAT      O24790   4.824   5.772   4.477
 8183WAT     H124791   4.857   5.685   4.514
 8183WAT     H224792   4.724   5.773   4.478
 8184WAT      O24793   0.824   7.569   4.978
 8184WAT     H124794   0.857   7.485   4.935
 8184WAT     H224795   0.777   7.547   5.064
 8185WAT      O24796   5.248   0.844   9.787
 8185WAT     H124797   5.259   0.818   9.691
 8185WAT     H224798   5.319   0.800   9.842
 8186WAT      O24799   3.398   2.184   0.513
 8186WAT     H124800   3.373   2.208   0.606
 8186WAT     H224801   3.344   2.106   0.483
 8187WAT      O24802   3.279   9.078   8.809
 8187WAT     H124803   3.296   8.981   8.794
 8187WAT     H224804   3.292   9.127   8.723
 8188WAT      O24805   4.034   8.960   1.900
 8188WAT     H124806   3.942   8.921   1.896
 8188WAT     H224807   4.050   8.995   1.993
 8189WAT      O24808   3.603   8.859   4.254
 8189WAT     H124809   3.645   8.849   4.164
 8189WAT     H224810   3.673   8.879   4.322
 8190WAT      O24811   2.756   5.220   7.141
 8190WAT     H124812   2.717   5.133   7.170
 8190WAT     H224813   2.855   5.220   7.157
 8191WAT      O24814   3.976   8.046   3.288
 8191WAT     H124815   4.032   8.073   3.367
 8191WAT     H224816   3.999   7.951   3.263
 8192WAT      O24817   8.275   4.005   1.239
 8192WAT     H124818   8.370   4.016   1.208
 8192WAT     H224819   8.225   4.090   1.224
 8193WAT      O24820   3.022   2.341   3.997
 8193WAT     H124821   3.047   2.276   3.924
 8193WAT     H224822   3.084   2.420   3.994
 8194WAT      O24823   4.286   1.806   6.314
 8194WAT     H124824   4.376   1.819   6.272
 8194WAT     H224825   4.272   1.876   6.385
 8195WAT      O24826   4.168   4.664   2.753
 8195WAT     H124827   4.128   4.593   2.696
 8195WAT     H224828   4.112   4.679   2.834
 8196WAT      O24829   2.730   2.791   2.876
 8196WAT     H124830   2.796   2.719   2.853
 8196WAT     H224831   2.751   2.827   2.966
 8197WAT      O24832   0.876   8.237   3.687
 8197WAT     H124833   0.885   8.332   3.658
 8197WAT     H224834   0.819   8.232   3.770
 8198WAT      O24835   3.677   9.719   4.438
 8198WAT     H124836   3.660   9.803   4.487
 8198WAT     H224837   3.606   9.704   4.369
 8199WAT      O24838   9.061   5.351   3.377
 8199WAT     H124839   8.979   5.349   3.434
 8199WAT     H224840   9.071   5.441   3.335
 8200WAT      O24841   4.571   3.694   5.122
 8200WAT     H124842   4.556   3.601   5.155
 8200WAT     H224843   4.649   3.734   5.169
 8201WAT      O24844   5.795   3.091   4.009
 8201WAT     H124845   5.744   3.009   3.982
 8201WAT     H224846   5.736   3.171   3.998
 8202WAT      O24847   9.548   1.819   3.641
 8202WAT     H124848   9.620   1.872   3.595
 8202WAT     H224849   9.591   1.754   3.704
 8203WAT      O24850   5.146   0.747   8.709
 8203WAT     H124851   5.201   0.808   8.767
 8203WAT     H224852   5.173   0.652   8.724
 8204WAT      O24853   2.954   0.521   1.400
 8204WAT     H124854   2.918   0.473   1.321
 8204WAT     H224855   2.987   0.454   1.467
 8205WAT      O24856   0.432   8.417   0.899
 8205WAT     H124857   0.525   8.390   0.875
 8205WAT     H224858   0.415   8.510   0.866
 8206WAT      O24859   0.721   6.904   7.816
 8206WAT     H124860   0.654   6.963   7.770
 8206WAT     H224861   0.750   6.947   7.901
 8207WAT      O24862   5.680   7.539   3.813
 8207WAT     H124863   5.691   7.629   3.855
 8207WAT     H224864   5.657   7.549   3.717
 8208WAT      O24865   4.307   8.052   2.722
 8208WAT     H124866   4.241   8.126   2.709
 8208WAT     H224867   4.262   7.964   2.706
 8209WAT      O24868   6.505   3.412   9.196
 8209WAT     H124869   6.483   3.346   9.268
 8209WAT     H224870   6.427   3.473   9.183
 8210WAT      O24871   2.337   6.887   1.089
 8210WAT     H124872   2.255   6.927   1.131
 8210WAT     H224873   2.413   6.892   1.153
 8211WAT      O24874   7.722   8.045   0.635
 8211WAT     H124875   7.783   8.117   0.669
 8211WAT     H224876   7.696   7.986   0.710
 8212WAT      O24877   7.324   0.278   5.802
 8212WAT     H124878   7.231   0.315   5.797
 8212WAT     H224879   7.348   0.236   5.715
 8213WAT      O24880   2.003   4.851   9.627
 8213WAT     H124881   1.930   4.785   9.611
 8213WAT     H224882   2.008   4.915   9.550
 8214WAT      O24883   3.621   1.095   9.705
 8214WAT     H124884   3.616   0.998   9.683
 8214WAT     H224885   3.562   1.146   9.642
 8215WAT      O24886   1.545   8.118   7.159
 8215WAT     H124887   1.605   8.149   7.233
 8215WAT     H224888   1.597   8.066   7.092
 8216WAT      O24889   3.604   7.185   3.507
 8216WAT     H124890   3.521   7.240   3.520
 8216WAT     H224891   3.677   7.243   3.470
 8217WAT      O24892   9.583   4.096   6.732
 8217WAT     H124893   9.590   4.146   6.818
 8217WAT     H224894   9.603   3.999   6.748
 8218WAT      O24895   3.101   9.133   5.057
 8218WAT     H124896   3.030   9.166   4.995
 8218WAT     H224897   3.084   9.037   5.079
 8219WAT      O24898   3.831   5.933   4.167
 8219WAT     H124899   3.831   5.860   4.236
 8219WAT     H224900   3.910   5.993   4.182
 8220WAT      O24901   0.434   2.855   8.017
 8220WAT     H124902   0.354   2.796   8.015
 8220WAT     H224903   0.508   2.814   7.964
 8221WAT      O24904   5.174   1.277   2.441
 8221WAT     H124905   5.115   1.261   2.520
 8221WAT     H224906   5.118   1.303   2.363
 8222WAT      O24907   1.142   3.877   3.712
 8222WAT     H124908   1.123   3.939   3.787
 8222WAT     H224909   1.140   3.783   3.745
 8223WAT      O24910   1.166   3.449   5.017
 8223WAT     H124911   1.144   3.354   5.043
 8223WAT     H224912   1.157   3.459   4.918
 8224WAT      O24913   2.613   9.547   3.816
 8224WAT     H124914   2.543   9.480   3.791
 8224WAT     H224915   2.599   9.630   3.762
 8225WAT      O24916   1.608   3.053   4.697
 8225WAT     H124917   1.639   3.046   4.792
 8225WAT     H224918   1.508   3.046   4.694
 8226WAT      O24919   6.355   0.895   5.773
 8226WAT     H124920   6.398   0.883   5.862
 8226WAT     H224921   6.258   0.873   5.780
 8227WAT      O24922   4.043   9.143   6.108
 8227WAT     H124923   4.094   9.060   6.130
 8227WAT     H224924   4.078   9.182   6.022
 8228WAT      O24925   8.875   5.246   5.358
 8228WAT     H124926   8.796   5.204   5.314
 8228WAT     H224927   8.934   5.287   5.288
 8229WAT      O24928   5.913   7.933   2.710
 8229WAT     H124929   5.922   7.848   2.659
 8229WAT     H224930   5.824   7.936   2.755
 8230WAT      O24931   4.029   7.224   0.677
 8230WAT     H124932   3.945   7.199   0.630
 8230WAT     H224933   4.105   7.221   0.613
 8231WAT      O24934   6.027   0.343   8.453
 8231WAT     H124935   6.093   0.334   8.527
 8231WAT     H224936   5.941   0.380   8.488
 8232WAT      O24937   6.856   4.097   6.263
 8232WAT     H124938   6.795   4.163   6.307
 8232WAT     H224939   6.905   4.141   6.188
 8233WAT      O24940   9.405   7.908   9.316
 8233WAT     H124941   9.459   7.826   9.293
 8233WAT     H224942   9.310   7.882   9.331
 8234WAT      O24943   5.388   9.625   1.371
 8234WAT     H124944   5.342   9.689   1.432
 8234WAT     H224945   5.438   9.676   1.301
 8235WAT      O24946   7.111   8.405   8.473
 8235WAT     H124947   7.036   8.468   8.495
 8235WAT     H224948   7.179   8.453   8.417
 8236WAT      O24949   5.471   9.196   0.014
 8236WAT     H124950   5.491   9.179  -0.083
 8236WAT     H224951   5.500   9.117   0.068
 8237WAT      O24952   6.872   1.436   1.101
 8237WAT     H124953   6.808   1.361   1.119
 8237WAT     H224954   6.892   1.483   1.186
 8238WAT      O24955   6.376   1.208   0.618
 8238WAT     H124956   6.456   1.167   0.574
 8238WAT     H224957   6.388   1.208   0.717
 8239WAT      O24958   2.188   9.374   3.558
 8239WAT     H124959   2.211   9.279   3.536
 8239WAT     H224960   2.101   9.377   3.607
 8240WAT      O24961   3.085   6.851   4.551
 8240WAT     H124962   3.022   6.804   4.612
 8240WAT     H224963   3.045   6.939   4.524
 8241WAT      O24964   5.083   0.557   5.786
 8241WAT     H124965   5.024   0.638   5.797
 8241WAT     H224966   5.115   0.552   5.691
 8242WAT      O24967   1.446   9.170   2.480
 8242WAT     H124968   1.446   9.140   2.384
 8242WAT     H224969   1.540   9.170   2.514
 8243WAT      O24970   5.337   6.373   1.741
 8243WAT     H124971   5.311   6.467   1.720
 8243WAT     H224972   5.333   6.318   1.658
 8244WAT      O24973   7.024   3.225   7.107
 8244WAT     H124974   6.956   3.295   7.130
 8244WAT     H224975   7.097   3.265   7.052
 8245WAT      O24976   3.494   6.086   4.777
 8245WAT     H124977   3.507   6.129   4.687
 8245WAT     H224978   3.544   6.138   4.846
 8246WAT      O24979   0.213   6.148   0.585
 8246WAT     H124980   0.219   6.055   0.551
 8246WAT     H224981   0.129   6.159   0.637
 8247WAT      O24982   5.290   4.580   7.284
 8247WAT     H124983   5.321   4.491   7.251
 8247WAT     H224984   5.257   4.571   7.378
 8248WAT      O24985   3.437   7.882   8.075
 8248WAT     H124986   3.407   7.972   8.043
 8248WAT     H224987   3.468   7.889   8.170
 8249WAT      O24988   1.921   1.350   5.960
 8249WAT     H124989   1.963   1.305   6.039
 8249WAT     H224990   1.992   1.376   5.894
 8250WAT      O24991   4.389   4.093   4.001
 8250WAT     H124992   4.289   4.095   3.990
 8250WAT     H224993   4.431   4.159   3.939
 8251WAT      O24994   8.735   0.894   6.900
 8251WAT     H124995   8.783   0.836   6.834
 8251WAT     H224996   8.641   0.862   6.911
 8252WAT      O24997   3.588   5.994   1.373
 8252WAT     H124998   3.540   5.979   1.286
 8252WAT     H224999   3.554   5.928   1.441
 8253WAT      O25000   8.018   5.250   6.251
 8253WAT     H125001   8.073   5.332   6.233
 8253WAT     H225002   7.923   5.268   6.226
 8254WAT      O25003   9.155   1.539   3.066
 8254WAT     H125004   9.162   1.639   3.057
 8254WAT     H225005   9.097   1.503   2.992
 8255WAT      O25006   8.258   7.250   5.222
 8255WAT     H125007   8.282   7.281   5.314
 8255WAT     H225008   8.340   7.212   5.178
 8256WAT      O25009   3.262   4.004   8.999
 8256WAT     H125010   3.307   4.047   9.077
 8256WAT     H225011   3.285   4.054   8.916
 8257WAT      O25012   2.016   5.629   6.838
 8257WAT     H125013   1.935   5.606   6.784
 8257WAT     H225014   2.069   5.546   6.857
 8258WAT      O25015   7.699   1.256   7.728
 8258WAT     H125016   7.746   1.273   7.815
 8258WAT     H225017   7.720   1.163   7.697
 8259WAT      O25018   8.930   4.865   6.149
 8259WAT     H125019   8.929   4.831   6.243
 8259WAT     H225020   9.014   4.833   6.104
 8260WAT      O25021   6.565   1.423   2.949
 8260WAT     H125022   6.608   1.512   2.928
 8260WAT     H225023   6.630   1.350   2.928
 8261WAT      O25024   8.968   6.677   7.434
 8261WAT     H125025   8.947   6.580   7.448
 8261WAT     H225026   9.067   6.690   7.435
 8262WAT      O25027   2.394   0.410   3.379
 8262WAT     H125028   2.432   0.483   3.321
 8262WAT     H225029   2.407   0.434   3.475
 8263WAT      O25030   6.921   6.281   3.494
 8263WAT     H125031   6.851   6.271   3.424
 8263WAT     H225032   6.879   6.270   3.584
 8264WAT      O25033   8.868   1.036   2.243
 8264WAT     H125034   8.933   1.087   2.299
 8264WAT     H225035   8.843   0.951   2.289
 8265WAT      O25036   5.917   4.979   6.233
 8265WAT     H125037   5.965   4.919   6.169
 8265WAT     H225038   5.979   5.052   6.263
 8266WAT      O25039   2.202   3.616   5.816
 8266WAT     H125040   2.170   3.620   5.722
 8266WAT     H225041   2.288   3.667   5.825
 8267WAT      O25042   3.735   5.778   0.378
 8267WAT     H125043   3.832   5.773   0.356
 8267WAT     H225044   3.700   5.869   0.354
 8268WAT      O25045   2.052   5.983   8.627
 8268WAT     H125046   2.104   6.003   8.544
 8268WAT     H225047   2.028   6.069   8.672
 8269WAT      O25048   4.421   8.005   6.964
 8269WAT     H125049   4.369   8.077   7.009
 8269WAT     H225050   4.442   7.933   7.030
 8270WAT      O25051   6.583   7.261   6.082
 8270WAT     H125052   6.483   7.263   6.087
 8270WAT     H225053   6.612   7.186   6.021
 8271WAT      O25054   2.110   9.694   8.896
 8271WAT     H125055   2.201   9.654   8.903
 8271WAT     H225056   2.116   9.793   8.896
 8272WAT      O25057   3.463   2.634   9.499
 8272WAT     H125058   3.436   2.729   9.485
 8272WAT     H225059   3.422   2.600   9.584
 8273WAT      O25060   4.688   1.700   6.375
 8273WAT     H125061   4.637   1.633   6.429
 8273WAT     H225062   4.697   1.785   6.426
 8274WAT      O25063   3.210   6.964   4.943
 8274WAT     H125064   3.186   7.042   4.885
 8274WAT     H225065   3.183   6.983   5.038
 8275WAT      O25066   6.898   4.201   9.686
 8275WAT     H125067   6.867   4.110   9.659
 8275WAT     H225068   6.854   4.226   9.773
 8276WAT      O25069   0.807   7.647   0.192
 8276WAT     H125070   0.818   7.740   0.226
 8276WAT     H225071   0.747   7.647   0.112
 8277WAT      O25072   2.735   1.794   6.292
 8277WAT     H125073   2.729   1.893   6.308
 8277WAT     H225074   2.678   1.770   6.214
 8278WAT      O25075   4.545   7.012   4.118
 8278WAT     H125076   4.464   7.065   4.144
 8278WAT     H225077   4.599   7.065   4.052
 8279WAT      O25078   9.216   4.466   3.068
 8279WAT     H125079   9.204   4.405   2.990
 8279WAT     H225080   9.284   4.428   3.130
 8280WAT      O25081   7.202   6.816   9.545
 8280WAT     H125082   7.151   6.901   9.533
 8280WAT     H225083   7.291   6.824   9.501
 8281WAT      O25084   0.053   4.532   3.003
 8281WAT     H125085   0.096   4.522   2.914
 8281WAT     H225086   0.078   4.621   3.042
 8282WAT      O25087   6.174   2.478   2.053
 8282WAT     H125088   6.189   2.489   1.955
 8282WAT     H225089   6.143   2.566   2.092
 8283WAT      O25090   1.244   1.777   3.377
 8283WAT     H125091   1.234   1.688   3.421
 8283WAT     H225092   1.201   1.774   3.286
 8284WAT      O25093   8.524   7.645   1.109
 8284WAT     H125094   8.614   7.683   1.132
 8284WAT     H225095   8.453   7.699   1.156
 8285WAT      O25096   5.002   9.266   3.463
 8285WAT     H125097   5.010   9.183   3.408
 8285WAT     H225098   5.031   9.345   3.409
 8286WAT      O25099   1.584   6.779   0.164
 8286WAT     H125100   1.637   6.799   0.246
 8286WAT     H225101   1.486   6.779   0.188
 8287WAT      O25102   7.327   8.255   4.156
 8287WAT     H125103   7.346   8.352   4.147
 8287WAT     H225104   7.265   8.225   4.083
 8288WAT      O25105   2.111   5.695   1.961
 8288WAT     H125106   2.109   5.629   2.036
 8288WAT     H225107   2.026   5.689   1.909
 8289WAT      O25108   7.348   3.358   4.097
 8289WAT     H125109   7.402   3.325   4.020
 8289WAT     H225110   7.267   3.406   4.063
 8290WAT      O25111   2.620   5.713   6.384
 8290WAT     H125112   2.579   5.632   6.342
 8290WAT     H225113   2.659   5.689   6.473
 8291WAT      O25114   3.775   7.808   6.496
 8291WAT     H125115   3.832   7.726   6.494
 8291WAT     H225116   3.824   7.883   6.541
 8292WAT      O25117   7.559   1.018   6.126
 8292WAT     H125118   7.504   1.086   6.174
 8292WAT     H225119   7.655   1.029   6.150
 8293WAT      O25120   0.527   8.732   7.301
 8293WAT     H125121   0.462   8.732   7.224
 8293WAT     H225122   0.530   8.641   7.342
 8294WAT      O25123   5.654   8.038   2.340
 8294WAT     H125124   5.723   7.978   2.299
 8294WAT     H225125   5.692   8.082   2.421
 8295WAT      O25126   8.857   2.377   6.676
 8295WAT     H125127   8.822   2.469   6.694
 8295WAT     H225128   8.936   2.383   6.614
 8296WAT      O25129   2.519   8.825   1.239
 8296WAT     H125130   2.453   8.878   1.186
 8296WAT     H225131   2.602   8.810   1.184
 8297WAT      O25132   4.578   3.898   3.493
 8297WAT     H125133   4.636   3.902   3.574
 8297WAT     H225134   4.604   3.971   3.429
 8298WAT      O25135   8.077   7.225   6.406
 8298WAT     H125136   8.095   7.131   6.435
 8298WAT     H225137   7.985   7.252   6.435
 8299WAT      O25138   0.300   7.715   0.266
 8299WAT     H125139   0.298   7.650   0.189
 8299WAT     H225140   0.395   7.731   0.293
 8300WAT      O25141   4.308   3.527   8.933
 8300WAT     H125142   4.334   3.622   8.917
 8300WAT     H225143   4.321   3.505   9.030
 8301WAT      O25144   8.604   8.556   9.746
 8301WAT     H125145   8.584   8.462   9.773
 8301WAT     H225146   8.702   8.565   9.726
 8302WAT      O25147   1.111   4.354   1.105
 8302WAT     H125148   1.034   4.310   1.151
 8302WAT     H225149   1.184   4.287   1.091
 8303WAT      O25150   9.305   1.942   3.621
 8303WAT     H125151   9.307   1.945   3.721
 8303WAT     H225152   9.380   1.884   3.589
 8304WAT      O25153   6.584   8.673   7.819
 8304WAT     H125154   6.576   8.763   7.860
 8304WAT     H225155   6.532   8.607   7.872
 8305WAT      O25156   7.925   3.687   3.881
 8305WAT     H125157   7.888   3.652   3.795
 8305WAT     H225158   7.877   3.646   3.958
 8306WAT      O25159   2.332   2.110   8.701
 8306WAT     H125160   2.331   2.192   8.758
 8306WAT     H225161   2.399   2.121   8.628
 8307WAT      O25162   1.723   1.402   3.935
 8307WAT     H125163   1.665   1.334   3.980
 8307WAT     H225164   1.667   1.480   3.906
 8308WAT      O25165   1.316   1.840   1.130
 8308WAT     H125166   1.311   1.927   1.082
 8308WAT     H225167   1.301   1.854   1.227
 8309WAT      O25168   8.457   0.489   8.201
 8309WAT     H125169   8.445   0.456   8.108
 8309WAT     H225170   8.498   0.417   8.257
 8310WAT      O25171   4.959   6.048   5.836
 8310WAT     H125172   4.946   6.121   5.904
 8310WAT     H225173   4.930   6.081   5.746
 8311WAT      O25174   2.760   2.942   9.450
 8311WAT     H125175   2.825   3.018   9.441
 8311WAT     H225176   2.786   2.885   9.528
 8312WAT      O25177   7.121   3.264   1.570
 8312WAT     H125178   7.121   3.251   1.471
 8312WAT     H225179   7.045   3.213   1.611
 8313WAT      O25180   6.167   1.956   4.424
 8313WAT     H125181   6.080   1.989   4.389
 8313WAT     H225182   6.231   2.033   4.432
 8314WAT      O25183   5.050   9.569   4.402
 8314WAT     H125184   4.954   9.556   4.427
 8314WAT     H225185   5.079   9.661   4.427
 8315WAT      O25186   7.998   7.512   7.110
 8315WAT     H125187   8.039   7.595   7.071
 8315WAT     H225188   7.908   7.534   7.146
 8316WAT      O25189   0.653   6.078   1.379
 8316WAT     H125190   0.642   6.131   1.295
 8316WAT     H225191   0.690   6.138   1.451
 8317WAT      O25192   7.925   1.901   1.620
 8317WAT     H125193   7.859   1.880   1.692
 8317WAT     H225194   7.912   1.995   1.588
 8318WAT      O25195   1.397   9.709   3.353
 8318WAT     H125196   1.307   9.747   3.333
 8318WAT     H225197   1.467   9.779   3.340
 8319WAT      O25198   6.462   0.627   4.070
 8319WAT     H125199   6.448   0.652   3.974
 8319WAT     H225200   6.415   0.693   4.128
 8320WAT      O25201   6.793   1.426   4.440
 8320WAT     H125202   6.718   1.490   4.421
 8320WAT     H225203   6.761   1.358   4.506
 8321WAT      O25204   8.219   9.641   3.700
 8321WAT     H125205   8.136   9.687   3.729
 8321WAT     H225206   8.236   9.562   3.758
 8322WAT      O25207   8.482   3.624   2.891
 8322WAT     H125208   8.460   3.596   2.984
 8322WAT     H225209   8.575   3.660   2.887
 8323WAT      O25210   9.537   0.065   7.342
 8323WAT     H125211   9.502   0.111   7.260
 8323WAT     H225212   9.566   0.134   7.409
 8324WAT      O25213   9.521   3.573   9.890
 8324WAT     H125214   9.432   3.572   9.843
 8324WAT     H225215   9.521   3.505   9.963
 8325WAT      O25216   2.756   5.160   9.283
 8325WAT     H125217   2.800   5.146   9.372
 8325WAT     H225218   2.810   5.225   9.229
 8326WAT      O25219   4.615   9.352   8.597
 8326WAT     H125220   4.660   9.381   8.513
 8326WAT     H225221   4.679   9.358   8.673
 8327WAT      O25222   2.535   0.681   5.621
 8327WAT     H125223   2.460   0.728   5.666
 8327WAT     H225224   2.499   0.615   5.555
 8328WAT      O25225   9.554   3.726   1.298
 8328WAT     H125226   9.651   3.734   1.278
 8328WAT     H225227   9.501   3.749   1.216
 8329WAT      O25228   5.032   0.346   6.768
 8329WAT     H125229   5.125   0.331   6.737
 8329WAT     H225230   5.002   0.438   6.743
 8330WAT      O25231   7.489   5.819   2.579
 8330WAT     H125232   7.395   5.839   2.606
 8330WAT     H225233   7.493   5.806   2.480
 8331WAT      O25234   4.865   0.562   9.364
 8331WAT     H125235   4.776   0.524   9.391
 8331WAT     H225236   4.867   0.576   9.265
 8332WAT      O25237   6.612   0.592   9.727
 8332WAT     H125238   6.610   0.685   9.764
 8332WAT     H225239   6.586   0.527   9.798
 8333WAT      O25240   0.790   5.306   4.101
 8333WAT     H125241   0.723   5.248   4.054
 8333WAT     H225242   0.803   5.273   4.195
 8334WAT      O25243   3.840   0.550   0.875
 8334WAT     H125244   3.915   0.514   0.930
 8334WAT     H225245   3.854   0.648   0.859
 8335WAT      O25246   3.217   1.873   0.619
 8335WAT     H125247   3.302   1.853   0.668
 8335WAT     H225248   3.238   1.922   0.534
 8336WAT      O25249   2.571   5.978   0.230
 8336WAT     H125250   2.644   6.029   0.276
 8336WAT     H225251   2.483   6.021   0.249
 8337WAT      O25252   7.449   9.668   6.659
 8337WAT     H125253   7.386   9.597   6.627
 8337WAT     H225254   7.543   9.640   6.640
 8338WAT      O25255   6.654   6.379   3.664
 8338WAT     H125256   6.701   6.294   3.688
 8338WAT     H225257   6.675   6.450   3.731
 8339WAT      O25258   3.666   2.933   6.675
 8339WAT     H125259   3.748   2.917   6.620
 8339WAT     H225260   3.585   2.920   6.618
 8340WAT      O25261   7.907   7.310   9.098
 8340WAT     H125262   7.843   7.385   9.080
 8340WAT     H225263   7.856   7.224   9.104
 8341WAT      O25264   0.180   8.065   5.906
 8341WAT     H125265   0.182   8.131   5.981
 8341WAT     H225266   0.085   8.041   5.886
 8342WAT      O25267   4.429   9.183   7.826
 8342WAT     H125268   4.409   9.272   7.868
 8342WAT     H225269   4.344   9.137   7.805
 8343WAT      O25270   7.476   5.858   6.214
 8343WAT     H125271   7.504   5.887   6.306
 8343WAT     H225272   7.418   5.777   6.221
 8344WAT      O25273   5.941   9.107   3.136
 8344WAT     H125274   5.850   9.147   3.129
 8344WAT     H225275   5.944   9.021   3.086
 8345WAT      O25276   6.435   5.272   7.011
 8345WAT     H125277   6.378   5.259   7.092
 8345WAT     H225278   6.394   5.226   6.933
 8346WAT      O25279   2.943   9.741   7.937
 8346WAT     H125280   2.874   9.714   8.004
 8346WAT     H225281   3.016   9.672   7.934
 8347WAT      O25282   5.945   4.126   4.256
 8347WAT     H125283   5.921   4.216   4.293
 8347WAT     H225284   5.891   4.110   4.173
 8348WAT      O25285   8.030   6.706   1.294
 8348WAT     H125286   8.113   6.651   1.300
 8348WAT     H225287   7.984   6.706   1.383
 8349WAT      O25288   7.501   1.745   1.080
 8349WAT     H125289   7.444   1.827   1.091
 8349WAT     H225290   7.591   1.771   1.045
 8350WAT      O25291   1.088   2.592   1.709
 8350WAT     H125292   1.086   2.687   1.679
 8350WAT     H225293   1.065   2.587   1.806
 8351WAT      O25294   7.349   6.132   6.180
 8351WAT     H125295   7.413   6.056   6.190
 8351WAT     H225296   7.296   6.142   6.264
 8352WAT      O25297   5.711   3.962   5.800
 8352WAT     H125298   5.783   3.933   5.737
 8352WAT     H225299   5.743   3.955   5.894
 8353WAT      O25300   0.618   9.314   4.391
 8353WAT     H125301   0.523   9.284   4.393
 8353WAT     H225302   0.678   9.237   4.412
 8354WAT      O25303   2.501   3.020   4.442
 8354WAT     H125304   2.463   3.068   4.521
 8354WAT     H225305   2.519   3.086   4.368
 8355WAT      O25306   2.282   5.906   7.928
 8355WAT     H125307   2.269   5.947   8.018
 8355WAT     H225308   2.380   5.907   7.905
 8356WAT      O25309   1.889   6.230   9.131
 8356WAT     H125310   1.815   6.292   9.106
 8356WAT     H225311   1.899   6.159   9.061
 8357WAT      O25312   1.423   0.895   2.325
 8357WAT     H125313   1.425   0.963   2.252
 8357WAT     H225314   1.447   0.806   2.288
 8358WAT      O25315   5.461   8.288   1.333
 8358WAT     H125316   5.507   8.321   1.416
 8358WAT     H225317   5.530   8.261   1.266
 8359WAT      O25318   8.332   8.432   4.781
 8359WAT     H125319   8.377   8.405   4.696
 8359WAT     H225320   8.362   8.372   4.855
 8360WAT      O25321   0.053   7.271   7.758
 8360WAT     H125322   0.003   7.187   7.740
 8360WAT     H225323   0.096   7.303   7.674
 8361WAT      O25324   0.242   7.587   8.018
 8361WAT     H125325   0.233   7.487   8.020
 8361WAT     H225326   0.157   7.629   8.049
 8362WAT      O25327   4.130   5.086   1.770
 8362WAT     H125328   4.221   5.053   1.795
 8362WAT     H225329   4.061   5.041   1.827
 8363WAT      O25330   7.735   8.899   1.363
 8363WAT     H125331   7.783   8.867   1.281
 8363WAT     H225332   7.725   8.824   1.428
 8364WAT      O25333   4.322   7.169   3.870
 8364WAT     H125334   4.223   7.162   3.882
 8364WAT     H225335   4.358   7.081   3.838
 8365WAT      O25336   8.884   9.498   5.536
 8365WAT     H125337   8.927   9.409   5.521
 8365WAT     H225338   8.795   9.485   5.579
 8366WAT      O25339   8.613   2.233   0.829
 8366WAT     H125340   8.554   2.214   0.750
 8366WAT     H225341   8.618   2.153   0.888
 8367WAT      O25342   7.052   0.081   7.479
 8367WAT     H125343   7.072   0.140   7.558
 8367WAT     H225344   6.982   0.015   7.504
 8368WAT      O25345   8.721   2.995   2.754
 8368WAT     H125346   8.727   2.925   2.826
 8368WAT     H225347   8.813   3.019   2.723
 8369WAT      O25348   0.634   3.686   2.582
 8369WAT     H125349   0.606   3.736   2.500
 8369WAT     H225350   0.721   3.724   2.615
 8370WAT      O25351   6.670   5.003   6.119
 8370WAT     H125352   6.747   4.971   6.175
 8370WAT     H225353   6.643   4.931   6.056
 8371WAT      O25354   6.202   8.488   5.505
 8371WAT     H125355   6.157   8.490   5.594
 8371WAT     H225356   6.140   8.523   5.435
 8372WAT      O25357   2.465   6.252   6.798
 8372WAT     H125358   2.488   6.242   6.701
 8372WAT     H225359   2.536   6.210   6.854
 8373WAT      O25360   9.276   2.192   2.278
 8373WAT     H125361   9.290   2.207   2.376
 8373WAT     H225362   9.183   2.220   2.253
 8374WAT      O25363   3.968   9.702   8.237
 8374WAT     H125364   4.012   9.614   8.254
 8374WAT     H225365   3.869   9.689   8.230
 8375WAT      O25366   7.058   0.917   9.751
 8375WAT     H125367   7.106   0.898   9.837
 8375WAT     H225368   7.125   0.938   9.680
 8376WAT      O25369   2.977   3.395   3.416
 8376WAT     H125370   2.980   3.469   3.349
 8376WAT     H225371   3.058   3.400   3.475
 8377WAT      O25372   7.042   2.517   2.711
 8377WAT     H125373   7.054   2.615   2.724
 8377WAT     H225374   6.989   2.479   2.787
 8378WAT      O25375   0.458   5.834   2.122
 8378WAT     H125376   0.524   5.890   2.071
 8378WAT     H225377   0.503   5.792   2.200
 8379WAT      O25378   3.291   4.712   0.362
 8379WAT     H125379   3.246   4.791   0.403
 8379WAT     H225380   3.289   4.721   0.262
 8380WAT      O25381   6.630   9.631   7.066
 8380WAT     H125382   6.610   9.705   7.130
 8380WAT     H225383   6.676   9.668   6.986
 8381WAT      O25384   4.297   9.065   5.923
 8381WAT     H125385   4.302   8.965   5.918
 8381WAT     H225386   4.216   9.096   5.873
 8382WAT      O25387   2.733   4.590   3.460
 8382WAT     H125388   2.739   4.499   3.419
 8382WAT     H225389   2.644   4.630   3.440
 8383WAT      O25390   1.864   3.601   0.496
 8383WAT     H125391   1.826   3.674   0.553
 8383WAT     H225392   1.790   3.558   0.444
 8384WAT      O25393   2.796   0.889   7.374
 8384WAT     H125394   2.789   0.950   7.453
 8384WAT     H225395   2.739   0.923   7.300
 8385WAT      O25396   0.610   7.286   6.665
 8385WAT     H125397   0.684   7.346   6.633
 8385WAT     H225398   0.648   7.197   6.689
 8386WAT      O25399   9.481   5.117   6.629
 8386WAT     H125400   9.553   5.169   6.583
 8386WAT     H225401   9.397   5.122   6.575
 8387WAT      O25402   6.316   5.348   0.891
 8387WAT     H125403   6.280   5.437   0.919
 8387WAT     H225404   6.414   5.344   0.910
 8388WAT      O25405   9.081   3.325   2.328
 8388WAT     H125406   9.153   3.280   2.276
 8388WAT     H225407   9.072   3.420   2.297
 8389WAT      O25408   8.935   4.340   0.228
 8389WAT     H125409   8.959   4.298   0.315
 8389WAT     H225410   8.989   4.298   0.155
 8390WAT      O25411   0.031   7.074   5.709
 8390WAT     H125412   0.096   7.017   5.760
 8390WAT     H225413  -0.053   7.022   5.695
 8391WAT      O25414   5.544   6.876   0.112
 8391WAT     H125415   5.617   6.841   0.052
 8391WAT     H225416   5.554   6.975   0.123
 8392WAT      O25417   9.319   3.328   2.122
 8392WAT     H125418   9.367   3.408   2.157
 8392WAT     H225419   9.384   3.266   2.078
 8393WAT      O25420   4.037   1.491   2.592
 8393WAT     H125421   4.117   1.439   2.623
 8393WAT     H225422   3.981   1.433   2.532
 8394WAT      O25423   8.216   1.526   6.285
 8394WAT     H125424   8.169   1.574   6.359
 8394WAT     H225425   8.315   1.525   6.304
 8395WAT      O25426   2.634   6.104   7.036
 8395WAT     H125427   2.723   6.103   6.991
 8395WAT     H225428   2.641   6.061   7.126
 8396WAT      O25429   8.472   6.472   5.037
 8396WAT     H125430   8.424   6.531   4.972
 8396WAT     H225431   8.557   6.439   4.996
 8397WAT      O25432   3.630   7.024   6.399
 8397WAT     H125433   3.641   6.946   6.336
 8397WAT     H225434   3.585   7.099   6.351
 8398WAT      O25435   0.772   0.470   9.227
 8398WAT     H125436   0.772   0.410   9.307
 8398WAT     H225437   0.857   0.459   9.176
 8399WAT      O25438   8.694   7.583   6.789
 8399WAT     H125439   8.653   7.492   6.798
 8399WAT     H225440   8.623   7.653   6.791
 8400WAT      O25441   4.384   0.563   0.140
 8400WAT     H125442   4.415   0.654   0.113
 8400WAT     H225443   4.453   0.519   0.197
 8401WAT      O25444   0.657   8.250   3.893
 8401WAT     H125445   0.681   8.334   3.942
 8401WAT     H225446   0.607   8.190   3.955
 8402WAT      O25447   8.616   4.322   1.624
 8402WAT     H125448   8.676   4.242   1.633
 8402WAT     H225449   8.666   4.404   1.652
 8403WAT      O25450   8.614   3.212   1.780
 8403WAT     H125451   8.622   3.219   1.879
 8403WAT     H225452   8.529   3.257   1.750
 8404WAT      O25453   6.195   7.936   4.357
 8404WAT     H125454   6.247   7.917   4.440
 8404WAT     H225455   6.251   7.991   4.295
 8405WAT      O25456   0.120   2.762   6.203
 8405WAT     H125457   0.069   2.773   6.118
 8405WAT     H225458   0.196   2.699   6.189
 8406WAT      O25459   5.711   0.993   2.049
 8406WAT     H125460   5.660   0.934   2.112
 8406WAT     H225461   5.713   1.086   2.085
 8407WAT      O25462   7.145   1.498   9.089
 8407WAT     H125463   7.048   1.484   9.068
 8407WAT     H225464   7.197   1.501   9.004
 8408WAT      O25465   7.406   0.322   9.346
 8408WAT     H125466   7.327   0.365   9.391
 8408WAT     H225467   7.445   0.253   9.407
 8409WAT      O25468   1.467   1.619   2.433
 8409WAT     H125469   1.460   1.614   2.333
 8409WAT     H225470   1.435   1.533   2.473
 8410WAT      O25471   3.529   6.128   3.451
 8410WAT     H125472   3.581   6.213   3.441
 8410WAT     H225473   3.449   6.144   3.509
 8411WAT      O25474   4.408   1.483   4.989
 8411WAT     H125475   4.354   1.461   4.908
 8411WAT     H225476   4.451   1.573   4.978
 8412WAT      O25477   1.878   1.183   2.044
 8412WAT     H125478   1.838   1.188   1.953
 8412WAT     H225479   1.931   1.099   2.053
 8413WAT      O25480   7.185   4.857   0.312
 8413WAT     H125481   7.204   4.938   0.256
 8413WAT     H225482   7.221   4.871   0.404
 8414WAT      O25483   6.066   6.619   2.984
 8414WAT     H125484   6.100   6.697   3.036
 8414WAT     H225485   5.980   6.587   3.023
 8415WAT      O25486   3.641   8.457   6.363
 8415WAT     H125487   3.543   8.476   6.368
 8415WAT     H225488   3.659   8.365   6.398
 8416WAT      O25489   7.546   7.950   9.301
 8416WAT     H125490   7.472   7.979   9.241
 8416WAT     H225491   7.571   8.024   9.363
 8417WAT      O25492   7.932   0.405   1.105
 8417WAT     H125493   7.888   0.343   1.169
 8417WAT     H225494   7.895   0.389   1.013
 8418WAT      O25495   8.736   1.235   6.860
 8418WAT     H125496   8.821   1.267   6.901
 8418WAT     H225497   8.678   1.195   6.931
 8419WAT      O25498   3.586   5.776   7.416
 8419WAT     H125499   3.582   5.869   7.377
 8419WAT     H225500   3.651   5.775   7.492
 8420WAT      O25501   3.749   7.550   6.318
 8420WAT     H125502   3.804   7.550   6.402
 8420WAT     H225503   3.809   7.567   6.240
 8421WAT      O25504   4.201   3.978   6.825
 8421WAT     H125505   4.177   4.030   6.907
 8421WAT     H225506   4.145   3.895   6.821
 8422WAT      O25507   9.310   5.800   3.832
 8422WAT     H125508   9.382   5.869   3.823
 8422WAT     H225509   9.351   5.711   3.848
 8423WAT      O25510   6.056   1.849   5.353
 8423WAT     H125511   6.005   1.772   5.315
 8423WAT     H225512   6.152   1.823   5.367
 8424WAT      O25513   7.844   2.510   5.511
 8424WAT     H125514   7.851   2.467   5.421
 8424WAT     H225515   7.845   2.610   5.501
 8425WAT      O25516   5.753   7.496   6.656
 8425WAT     H125517   5.814   7.427   6.695
 8425WAT     H225518   5.700   7.538   6.729
 8426WAT      O25519   0.509   9.090   7.583
 8426WAT     H125520   0.464   9.139   7.657
 8426WAT     H225521   0.583   9.033   7.619
 8427WAT      O25522   1.388   9.431   7.497
 8427WAT     H125523   1.361   9.460   7.405
 8427WAT     H225524   1.325   9.362   7.531
 8428WAT      O25525   8.982   5.555   3.033
 8428WAT     H125526   8.999   5.487   2.961
 8428WAT     H225527   8.966   5.644   2.992
 8429WAT      O25528   3.695   3.432   8.381
 8429WAT     H125529   3.627   3.470   8.318
 8429WAT     H225530   3.648   3.381   8.453
 8430WAT      O25531   8.273   4.508   7.450
 8430WAT     H125532   8.324   4.590   7.424
 8430WAT     H225533   8.331   4.449   7.506
 8431WAT      O25534   6.560   9.152   6.297
 8431WAT     H125535   6.483   9.142   6.234
 8431WAT     H225536   6.610   9.236   6.276
 8432WAT      O25537   1.084   5.946   1.056
 8432WAT     H125538   1.049   5.870   1.110
 8432WAT     H225539   1.072   5.926   0.959
 8433WAT      O25540   2.843   7.637   5.723
 8433WAT     H125541   2.834   7.608   5.818
 8433WAT     H225542   2.780   7.712   5.704
 8434WAT      O25543   3.016   3.551   0.783
 8434WAT     H125544   2.967   3.558   0.697
 8434WAT     H225545   3.045   3.642   0.813
 8435WAT      O25546   8.277   6.602   0.835
 8435WAT     H125547   8.332   6.682   0.810
 8435WAT     H225548   8.268   6.598   0.934
 8436WAT      O25549   9.018   4.241   6.438
 8436WAT     H125550   9.090   4.172   6.426
 8436WAT     H225551   8.999   4.285   6.351
 8437WAT      O25552   8.956   1.873   3.945
 8437WAT     H125553   8.917   1.929   3.872
 8437WAT     H225554   8.931   1.912   4.034
 8438WAT      O25555   8.421   1.808   2.859
 8438WAT     H125556   8.431   1.854   2.947
 8438WAT     H225557   8.482   1.850   2.792
 8439WAT      O25558   4.971   2.875   4.261
 8439WAT     H125559   5.013   2.868   4.351
 8439WAT     H225560   5.042   2.896   4.193
 8440WAT      O25561   4.934   8.764   1.868
 8440WAT     H125562   4.906   8.697   1.801
 8440WAT     H225563   4.988   8.720   1.940
 8441WAT      O25564   1.083   5.845   1.546
 8441WAT     H125565   0.986   5.822   1.546
 8441WAT     H225566   1.128   5.798   1.623
 8442WAT      O25567   8.277   0.284   3.882
 8442WAT     H125568   8.252   0.353   3.814
 8442WAT     H225569   8.303   0.330   3.967
 8443WAT      O25570   6.732   1.210   2.938
 8443WAT     H125571   6.796   1.230   3.012
 8443WAT     H225572   6.771   1.141   2.877
 8444WAT      O25573   3.267   1.819   6.146
 8444WAT     H125574   3.252   1.825   6.047
 8444WAT     H225575   3.180   1.803   6.192
 8445WAT      O25576   3.190   6.691   4.896
 8445WAT     H125577   3.249   6.651   4.965
 8445WAT     H225578   3.191   6.791   4.905
 8446WAT      O25579   9.700   1.330   0.595
 8446WAT     H125580   9.714   1.323   0.496
 8446WAT     H225581   9.680   1.425   0.619
 8447WAT      O25582   2.760   1.761   2.819
 8447WAT     H125583   2.790   1.667   2.802
 8447WAT     H225584   2.839   1.823   2.814
 8448WAT      O25585   4.377   2.722   7.293
 8448WAT     H125586   4.321   2.775   7.357
 8448WAT     H225587   4.435   2.659   7.343
 8449WAT      O25588   5.031   0.514   5.011
 8449WAT     H125589   4.946   0.555   4.978
 8449WAT     H225590   5.108   0.572   4.985
 8450WAT      O25591   3.637   6.565   3.624
 8450WAT     H125592   3.640   6.521   3.714
 8450WAT     H225593   3.653   6.663   3.635
 8451WAT      O25594   9.759   9.618   4.483
 8451WAT     H125595   9.728   9.601   4.390
 8451WAT     H225596   9.685   9.598   4.547
 8452WAT      O25597   6.726   3.847   0.892
 8452WAT     H125598   6.774   3.931   0.866
 8452WAT     H225599   6.649   3.832   0.830
 8453WAT      O25600   6.020   8.182   6.749
 8453WAT     H125601   5.927   8.154   6.724
 8453WAT     H225602   6.070   8.209   6.666
 8454WAT      O25603   5.342   8.003   6.490
 8454WAT     H125604   5.259   8.059   6.485
 8454WAT     H225605   5.421   8.060   6.467
 8455WAT      O25606   6.971   8.157   8.540
 8455WAT     H125607   6.885   8.198   8.510
 8455WAT     H225608   7.048   8.211   8.507
 8456WAT      O25609   6.880   2.786   5.273
 8456WAT     H125610   6.785   2.815   5.262
 8456WAT     H225611   6.935   2.821   5.197
 8457WAT      O25612   3.823   4.454   6.747
 8457WAT     H125613   3.789   4.377   6.693
 8457WAT     H225614   3.894   4.502   6.696
 8458WAT      O25615   0.644   1.366   0.541
 8458WAT     H125616   0.607   1.303   0.472
 8458WAT     H225617   0.605   1.457   0.527
 8459WAT      O25618   3.438   3.436   6.662
 8459WAT     H125619   3.528   3.449   6.620
 8459WAT     H225620   3.394   3.356   6.622
 8460WAT      O25621   2.167   4.819   4.274
 8460WAT     H125622   2.089   4.814   4.337
 8460WAT     H225623   2.144   4.770   4.189
 8461WAT      O25624   2.329   0.159   4.890
 8461WAT     H125625   2.335   0.066   4.854
 8461WAT     H225626   2.298   0.221   4.818
 8462WAT      O25627   0.652   0.127   1.929
 8462WAT     H125628   0.637   0.114   1.831
 8462WAT     H225629   0.571   0.096   1.979
 8463WAT      O25630   6.232   5.194   0.437
 8463WAT     H125631   6.134   5.214   0.432
 8463WAT     H225632   6.256   5.171   0.531
 8464WAT      O25633   0.740   9.537   2.516
 8464WAT     H125634   0.822   9.575   2.560
 8464WAT     H225635   0.713   9.453   2.564
 8465WAT      O25636   1.755   1.103   6.177
 8465WAT     H125637   1.752   1.032   6.248
 8465WAT     H225638   1.846   1.144   6.175
 8466WAT      O25639   8.625   0.826   3.217
 8466WAT     H125640   8.650   0.922   3.215
 8466WAT     H225641   8.535   0.815   3.259
 8467WAT      O25642   7.314   4.773   5.904
 8467WAT     H125643   7.347   4.726   5.823
 8467WAT     H225644   7.274   4.707   5.968
 8468WAT      O25645   8.321   7.831   4.901
 8468WAT     H125646   8.302   7.920   4.942
 8468WAT     H225647   8.410   7.834   4.855
 8469WAT      O25648   5.694   2.907   4.435
 8469WAT     H125649   5.750   2.953   4.366
 8469WAT     H225650   5.645   2.831   4.392
 8470WAT      O25651   7.996   4.867   2.165
 8470WAT     H125652   8.086   4.907   2.182
 8470WAT     H225653   7.943   4.866   2.250
 8471WAT      O25654   5.951   1.766   1.528
 8471WAT     H125655   5.894   1.843   1.496
 8471WAT     H225656   5.969   1.777   1.625
 8472WAT      O25657   2.400   5.641   3.721
 8472WAT     H125658   2.474   5.642   3.654
 8472WAT     H225659   2.433   5.680   3.807
 8473WAT      O25660   1.152   1.268   4.298
 8473WAT     H125661   1.170   1.303   4.390
 8473WAT     H225662   1.187   1.175   4.290
 8474WAT      O25663   0.555   7.999   2.557
 8474WAT     H125664   0.627   7.996   2.487
 8474WAT     H225665   0.508   8.087   2.553
 8475WAT      O25666   2.391   4.833   3.552
 8475WAT     H125667   2.440   4.774   3.487
 8475WAT     H225668   2.433   4.924   3.552
 8476WAT      O25669   1.383   3.881   5.150
 8476WAT     H125670   1.291   3.878   5.189
 8476WAT     H225671   1.386   3.822   5.069
 8477WAT      O25672   1.382   3.605   4.767
 8477WAT     H125673   1.439   3.533   4.727
 8477WAT     H225674   1.401   3.612   4.865
 8478WAT      O25675   7.675   0.754   0.786
 8478WAT     H125676   7.737   0.831   0.800
 8478WAT     H225677   7.615   0.772   0.709
 8479WAT      O25678   9.542   6.686   2.496
 8479WAT     H125679   9.531   6.615   2.566
 8479WAT     H225680   9.452   6.712   2.461
 8480WAT      O25681   0.741   4.058   4.120
 8480WAT     H125682   0.817   4.007   4.161
 8480WAT     H225683   0.776   4.141   4.077
 8481WAT      O25684   8.326   5.610   9.244
 8481WAT     H125685   8.422   5.581   9.245
 8481WAT     H225686   8.309   5.667   9.164
 8482WAT      O25687   1.946   6.892   9.667
 8482WAT     H125688   1.939   6.833   9.747
 8482WAT     H225689   1.856   6.902   9.625
 8483WAT      O25690   4.746   7.102   3.895
 8483WAT     H125691   4.684   7.177   3.872
 8483WAT     H225692   4.744   7.033   3.823
 8484WAT      O25693   7.837   5.485   7.895
 8484WAT     H125694   7.879   5.437   7.971
 8484WAT     H225695   7.895   5.560   7.866
 8485WAT      O25696   7.019   5.479   6.473
 8485WAT     H125697   7.033   5.445   6.380
 8485WAT     H225698   7.045   5.409   6.539
 8486WAT      O25699   5.721   0.766   2.837
 8486WAT     H125700   5.641   0.714   2.866
 8486WAT     H225701   5.789   0.704   2.799
 8487WAT      O25702   2.763   9.654   8.133
 8487WAT     H125703   2.675   9.619   8.101
 8487WAT     H225704   2.824   9.578   8.152
 8488WAT      O25705   9.684   5.211   1.941
 8488WAT     H125706   9.741   5.292   1.955
 8488WAT     H225707   9.666   5.199   1.844
 8489WAT      O25708   8.933   7.986   8.797
 8489WAT     H125709   9.010   8.029   8.845
 8489WAT     H225710   8.937   8.010   8.700
 8490WAT      O25711   1.745   0.142   6.369
 8490WAT     H125712   1.739   0.171   6.464
 8490WAT     H225713   1.814   0.070   6.360
 8491WAT      O25714   0.710   4.735   0.025
 8491WAT     H125715   0.747   4.828   0.014
 8491WAT     H225716   0.647   4.733   0.103
 8492WAT      O25717   2.416   0.167   2.083
 8492WAT     H125718   2.428   0.068   2.090
 8492WAT     H225719   2.402   0.205   2.174
 8493WAT      O25720   3.181   6.932   1.190
 8493WAT     H125721   3.266   6.950   1.241
 8493WAT     H225722   3.153   6.837   1.205
 8494WAT      O25723   0.205   8.358   1.627
 8494WAT     H125724   0.219   8.310   1.540
 8494WAT     H225725   0.150   8.301   1.688
 8495WAT      O25726   1.578   4.307   2.287
 8495WAT     H125727   1.536   4.306   2.378
 8495WAT     H225728   1.530   4.244   2.227
 8496WAT      O25729   4.303   7.992   3.359
 8496WAT     H125730   4.354   7.913   3.326
 8496WAT     H225731   4.309   8.066   3.293
 8497WAT      O25732   4.789   6.827   6.308
 8497WAT     H125733   4.722   6.773   6.360
 8497WAT     H225734   4.880   6.786   6.319
 8498WAT      O25735   1.836   5.826   6.161
 8498WAT     H125736   1.925   5.808   6.204
 8498WAT     H225737   1.810   5.921   6.178
 8499WAT      O25738   1.516   5.609   9.553
 8499WAT     H125739   1.613   5.622   9.538
 8499WAT     H225740   1.502   5.554   9.635
 8500WAT      O25741   6.114   0.939   1.594
 8500WAT     H125742   6.128   0.875   1.518
 8500WAT     H225743   6.201   0.985   1.615
 8501WAT      O25744   6.427   3.497   7.138
 8501WAT     H125745   6.410   3.444   7.221
 8501WAT     H225746   6.340   3.514   7.092
 8502WAT      O25747   0.885   7.227   4.088
 8502WAT     H125748   0.971   7.206   4.135
 8502WAT     H225749   0.901   7.238   3.990
 8503WAT      O25750   9.342   8.691   1.620
 8503WAT     H125751   9.294   8.623   1.677
 8503WAT     H225752   9.428   8.716   1.663
 8504WAT      O25753   7.981   7.107   2.613
 8504WAT     H125754   8.019   7.122   2.704
 8504WAT     H225755   8.010   7.017   2.579
 8505WAT      O25756   4.376   1.118   8.647
 8505WAT     H125757   4.331   1.182   8.710
 8505WAT     H225758   4.328   1.119   8.559
 8506WAT      O25759   6.616   8.904   1.347
 8506WAT     H125760   6.698   8.958   1.366
 8506WAT     H225761   6.542   8.934   1.407
 8507WAT      O25762   0.292   9.642   7.549
 8507WAT     H125763   0.298   9.572   7.478
 8507WAT     H225764   0.218   9.619   7.613
 8508WAT      O25765   2.026   7.730   4.342
 8508WAT     H125766   1.984   7.645   4.374
 8508WAT     H225767   1.990   7.753   4.252
 8509WAT      O25768   3.497   9.710   2.887
 8509WAT     H125769   3.487   9.727   2.985
 8509WAT     H225770   3.591   9.732   2.859
 8510WAT      O25771   3.509   8.695   0.300
 8510WAT     H125772   3.444   8.766   0.328
 8510WAT     H225773   3.500   8.679   0.202
 8511WAT      O25774   4.400   0.620   2.462
 8511WAT     H125775   4.385   0.689   2.391
 8511WAT     H225776   4.495   0.623   2.492
 8512WAT      O25777   4.256   1.695   8.658
 8512WAT     H125778   4.177   1.748   8.691
 8512WAT     H225779   4.293   1.641   8.733
 8513WAT      O25780   3.639   9.583   0.167
 8513WAT     H125781   3.677   9.492   0.184
 8513WAT     H225782   3.613   9.625   0.254
 8514WAT      O25783   8.687   2.966   5.659
 8514WAT     H125784   8.745   3.042   5.686
 8514WAT     H225785   8.713   2.934   5.567
 8515WAT      O25786   4.904   9.285   8.622
 8515WAT     H125787   4.989   9.249   8.583
 8515WAT     H225788   4.909   9.384   8.627
 8516WAT      O25789   5.233   7.962   8.221
 8516WAT     H125790   5.177   7.885   8.251
 8516WAT     H225791   5.174   8.039   8.197
 8517WAT      O25792   8.817   6.330   9.683
 8517WAT     H125793   8.802   6.266   9.607
 8517WAT     H225794   8.896   6.302   9.736
 8518WAT      O25795   5.725   8.610   5.977
 8518WAT     H125796   5.812   8.571   6.009
 8518WAT     H225797   5.665   8.625   6.056
 8519WAT      O25798   8.281   0.847   1.060
 8519WAT     H125799   8.209   0.826   0.994
 8519WAT     H225800   8.329   0.930   1.032
 8520WAT      O25801   9.581   9.336   6.609
 8520WAT     H125802   9.529   9.270   6.663
 8520WAT     H225803   9.522   9.376   6.539
 8521WAT      O25804   9.894   5.256   2.156
 8521WAT     H125805   9.819   5.244   2.221
 8521WAT     H225806   9.878   5.338   2.102
 8522WAT      O25807   7.812   6.952   7.914
 8522WAT     H125808   7.780   6.974   7.822
 8522WAT     H225809   7.735   6.957   7.978
 8523WAT      O25810   8.047   8.441   2.343
 8523WAT     H125811   8.076   8.537   2.339
 8523WAT     H225812   7.948   8.436   2.331
 8524WAT      O25813   9.262   8.006   1.671
 8524WAT     H125814   9.350   7.977   1.708
 8524WAT     H225815   9.263   8.105   1.657
 8525WAT      O25816   7.099   5.724   7.027
 8525WAT     H125817   7.188   5.713   7.071
 8525WAT     H225818   7.100   5.805   6.968
 8526WAT      O25819   9.786   0.105   5.913
 8526WAT     H125820   9.705   0.064   5.955
 8526WAT     H225821   9.789   0.080   5.816
 8527WAT      O25822   3.595   3.197   0.849
 8527WAT     H125823   3.637   3.237   0.768
 8527WAT     H225824   3.507   3.242   0.866
 8528WAT      O25825   8.150   1.418   2.733
 8528WAT     H125826   8.058   1.398   2.769
 8528WAT     H225827   8.163   1.517   2.727
 8529WAT      O25828   5.366   2.955   0.718
 8529WAT     H125829   5.447   2.919   0.671
 8529WAT     H225830   5.359   3.053   0.702
 8530WAT      O25831   1.800   3.533   2.452
 8530WAT     H125832   1.861   3.459   2.480
 8530WAT     H225833   1.719   3.533   2.510
 8531WAT      O25834   8.519   6.627   4.645
 8531WAT     H125835   8.497   6.645   4.741
 8531WAT     H225836   8.492   6.705   4.589
 8532WAT      O25837   2.420   7.227   1.127
 8532WAT     H125838   2.513   7.205   1.156
 8532WAT     H225839   2.415   7.227   1.027
 8533WAT      O25840   6.575   4.908   1.787
 8533WAT     H125841   6.526   4.981   1.835
 8533WAT     H225842   6.523   4.881   1.706
 8534WAT      O25843   1.176   3.173   7.874
 8534WAT     H125844   1.096   3.127   7.837
 8534WAT     H225845   1.246   3.181   7.803
 8535WAT      O25846   8.361   2.591   2.037
 8535WAT     H125847   8.435   2.658   2.034
 8535WAT     H225848   8.346   2.553   1.946
 8536WAT      O25849   2.534   8.357   1.406
 8536WAT     H125850   2.494   8.354   1.498
 8536WAT     H225851   2.631   8.379   1.413
 8537WAT      O25852   2.720   0.342   3.204
 8537WAT     H125853   2.790   0.334   3.132
 8537WAT     H225854   2.634   0.370   3.162
 8538WAT      O25855   5.292   8.524   8.917
 8538WAT     H125856   5.252   8.445   8.870
 8538WAT     H225857   5.376   8.552   8.871
 8539WAT      O25858   2.040   2.848   1.915
 8539WAT     H125859   1.988   2.765   1.936
 8539WAT     H225860   1.995   2.898   1.841
 8540WAT      O25861   2.160   5.218   3.699
 8540WAT     H125862   2.105   5.301   3.703
 8540WAT     H225863   2.164   5.176   3.790
 8541WAT      O25864   9.486   9.701   1.082
 8541WAT     H125865   9.576   9.674   1.115
 8541WAT     H225866   9.426   9.621   1.078
 8542WAT      O25867   4.632   8.209   9.278
 8542WAT     H125868   4.633   8.186   9.376
 8542WAT     H225869   4.618   8.125   9.225
 8543WAT      O25870   5.625   5.443   2.231
 8543WAT     H125871   5.585   5.388   2.157
 8543WAT     H225872   5.722   5.456   2.214
 8544WAT      O25873   5.586   5.020   2.292
 8544WAT     H125874   5.576   5.117   2.315
 8544WAT     H225875   5.616   4.970   2.373
 8545WAT      O25876   9.414   5.640   7.965
 8545WAT     H125877   9.369   5.673   8.048
 8545WAT     H225878   9.433   5.542   7.973
 8546WAT      O25879   3.443   9.082   3.606
 8546WAT     H125880   3.525   9.116   3.653
 8546WAT     H225881   3.392   9.159   3.568
 8547WAT      O25882   0.332   7.916   8.822
 8547WAT     H125883   0.395   7.991   8.804
 8547WAT     H225884   0.259   7.917   8.752
 8548WAT      O25885   1.500   8.809   3.753
 8548WAT     H125886   1.474   8.845   3.843
 8548WAT     H225887   1.419   8.774   3.707
 8549WAT      O25888   7.707   3.682   7.496
 8549WAT     H125889   7.780   3.631   7.541
 8549WAT     H225890   7.746   3.754   7.440
 8550WAT      O25891   7.936   0.505   9.253
 8550WAT     H125892   7.873   0.523   9.177
 8550WAT     H225893   8.030   0.502   9.218
 8551WAT      O25894   2.297   0.709   0.915
 8551WAT     H125895   2.254   0.798   0.899
 8551WAT     H225896   2.264   0.644   0.846
 8552WAT      O25897   1.220   8.553   6.123
 8552WAT     H125898   1.288   8.588   6.188
 8552WAT     H225899   1.261   8.547   6.032
 8553WAT      O25900   4.506   6.379   4.385
 8553WAT     H125901   4.516   6.436   4.466
 8553WAT     H225902   4.426   6.319   4.395
 8554WAT      O25903   9.289   8.477   2.226
 8554WAT     H125904   9.364   8.480   2.159
 8554WAT     H225905   9.206   8.445   2.182
 8555WAT      O25906   7.177   2.263   3.139
 8555WAT     H125907   7.114   2.266   3.216
 8555WAT     H225908   7.128   2.284   3.054
 8556WAT      O25909   4.051   6.589   0.505
 8556WAT     H125910   4.082   6.538   0.425
 8556WAT     H225911   3.979   6.653   0.478
 8557WAT      O25912   7.515   7.094   5.339
 8557WAT     H125913   7.493   7.136   5.428
 8557WAT     H225914   7.431   7.061   5.296
 8558WAT      O25915   0.452   1.568   2.712
 8558WAT     H125916   0.530   1.551   2.652
 8558WAT     H225917   0.379   1.614   2.660
 8559WAT      O25918   9.751   3.799   3.646
 8559WAT     H125919   9.657   3.824   3.621
 8559WAT     H225920   9.752   3.705   3.679
 8560WAT      O25921   7.396   2.416   3.105
 8560WAT     H125922   7.344   2.339   3.143
 8560WAT     H225923   7.356   2.444   3.018
 8561WAT      O25924   4.274   0.060   3.593
 8561WAT     H125925   4.200   0.095   3.534
 8561WAT     H225926   4.308   0.134   3.651
 8562WAT      O25927   5.248   5.871   2.653
 8562WAT     H125928   5.280   5.835   2.565
 8562WAT     H225929   5.327   5.890   2.711
 8563WAT      O25930   9.766   5.117   1.020
 8563WAT     H125931   9.782   5.203   1.068
 8563WAT     H225932   9.804   5.124   0.927
 8564WAT      O25933   8.688   4.313   5.596
 8564WAT     H125934   8.638   4.228   5.583
 8564WAT     H225935   8.760   4.320   5.527
 8565WAT      O25936   8.912   2.548   7.447
 8565WAT     H125937   8.934   2.452   7.464
 8565WAT     H225938   8.835   2.554   7.383
 8566WAT      O25939   1.158   5.023   7.414
 8566WAT     H125940   1.246   4.981   7.394
 8566WAT     H225941   1.120   5.063   7.331
 8567WAT      O25942   2.573   4.360   0.544
 8567WAT     H125943   2.613   4.299   0.476
 8567WAT     H225944   2.497   4.314   0.590
 8568WAT      O25945   1.186   4.178   9.793
 8568WAT     H125946   1.257   4.169   9.862
 8568WAT     H225947   1.129   4.096   9.792
 8569WAT      O25948   8.965   9.051   2.752
 8569WAT     H125949   9.026   9.059   2.830
 8569WAT     H225950   8.873   9.081   2.778
 8570WAT      O25951   8.727   3.854   7.122
 8570WAT     H125952   8.817   3.897   7.108
 8570WAT     H225953   8.737   3.754   7.116
 8571WAT      O25954   5.918   4.073   8.813
 8571WAT     H125955   5.934   4.157   8.760
 8571WAT     H225956   5.994   4.059   8.876
 8572WAT      O25957   9.467   2.194   9.367
 8572WAT     H125958   9.530   2.135   9.317
 8572WAT     H225959   9.390   2.140   9.402
 8573WAT      O25960   1.006   0.187   4.834
 8573WAT     H125961   1.093   0.155   4.872
 8573WAT     H225962   1.017   0.279   4.798
 8574WAT      O25963   8.833   5.515   9.631
 8574WAT     H125964   8.899   5.567   9.577
 8574WAT     H225965   8.877   5.432   9.666
 8575WAT      O25966   9.537   0.757   3.106
 8575WAT     H125967   9.579   0.846   3.122
 8575WAT     H225968   9.502   0.721   3.193
 8576WAT      O25969   8.222   2.433   6.415
 8576WAT     H125970   8.275   2.428   6.330
 8576WAT     H225971   8.226   2.526   6.451
 8577WAT      O25972   5.134   5.058   4.522
 8577WAT     H125973   5.077   5.139   4.508
 8577WAT     H225974   5.215   5.082   4.576
 8578WAT      O25975   1.322   2.447   7.501
 8578WAT     H125976   1.313   2.522   7.567
 8578WAT     H225977   1.309   2.360   7.547
 8579WAT      O25978   0.373   3.245   2.757
 8579WAT     H125979   0.413   3.337   2.754
 8579WAT     H225980   0.427   3.183   2.701
 8580WAT      O25981   3.944   5.403   3.097
 8580WAT     H125982   3.994   5.366   3.176
 8580WAT     H225983   3.942   5.502   3.102
 8581WAT      O25984   5.258   0.509   0.119
 8581WAT     H125985   5.326   0.438   0.098
 8581WAT     H225986   5.168   0.466   0.129
 8582WAT      O25987   2.316   3.165   0.596
 8582WAT     H125988   2.311   3.072   0.561
 8582WAT     H225989   2.257   3.225   0.542
 8583WAT      O25990   6.563   6.775   8.296
 8583WAT     H125991   6.556   6.699   8.361
 8583WAT     H225992   6.488   6.839   8.312
 8584WAT      O25993   2.130   4.512   6.251
 8584WAT     H125994   2.142   4.610   6.232
 8584WAT     H225995   2.090   4.500   6.341
 8585WAT      O25996   5.053   9.561   7.307
 8585WAT     H125997   5.070   9.660   7.302
 8585WAT     H225998   5.031   9.537   7.402
 8586WAT      O25999   6.707   4.909   8.136
 8586WAT     H126000   6.805   4.923   8.122
 8586WAT     H226001   6.685   4.919   8.233
 8587WAT      O26002   6.789   4.932   3.936
 8587WAT     H126003   6.815   4.885   4.020
 8587WAT     H226004   6.733   5.012   3.958
 8588WAT      O26005   8.619   5.079   4.949
 8588WAT     H126006   8.532   5.075   4.997
 8588WAT     H226007   8.694   5.080   5.015
 8589WAT      O26008   1.828   0.330   1.932
 8589WAT     H126009   1.763   0.255   1.920
 8589WAT     H226010   1.922   0.294   1.924
 8590WAT      O26011   8.246   0.450   4.783
 8590WAT     H126012   8.251   0.406   4.694
 8590WAT     H226013   8.151   0.454   4.814
 8591WAT      O26014   3.223   4.238   4.918
 8591WAT     H126015   3.145   4.175   4.922
 8591WAT     H226016   3.302   4.196   4.962
 8592WAT      O26017   1.957   3.000   0.578
 8592WAT     H126018   1.995   3.033   0.665
 8592WAT     H226019   1.926   3.079   0.524
 8593WAT      O26020   4.061   5.307   3.321
 8593WAT     H126021   4.155   5.339   3.304
 8593WAT     H226022   4.064   5.220   3.371
 8594WAT      O26023   6.807   5.100   0.982
 8594WAT     H126024   6.778   5.069   0.891
 8594WAT     H226025   6.867   5.179   0.973
 8595WAT      O26026   1.508   4.418   0.888
 8595WAT     H126027   1.571   4.385   0.959
 8595WAT     H226028   1.536   4.510   0.859
 8596WAT      O26029   6.469   8.844   6.778
 8596WAT     H126030   6.497   8.918   6.717
 8596WAT     H226031   6.497   8.756   6.739
 8597WAT      O26032   3.417   2.141   3.054
 8597WAT     H126033   3.485   2.154   3.126
 8597WAT     H226034   3.463   2.107   2.971
 8598WAT      O26035   9.121   6.100   2.693
 8598WAT     H126036   9.182   6.172   2.659
 8598WAT     H226037   9.154   6.011   2.663
 8599WAT      O26038   3.904   3.073   8.439
 8599WAT     H126039   3.830   3.020   8.481
 8599WAT     H226040   3.963   3.012   8.386
 8600WAT      O26041   4.689   8.623   1.565
 8600WAT     H126042   4.695   8.627   1.664
 8600WAT     H226043   4.724   8.535   1.533
 8601WAT      O26044   6.967   3.834   4.519
 8601WAT     H126045   7.061   3.833   4.485
 8601WAT     H226046   6.957   3.907   4.587
 8602WAT      O26047   1.224   3.615   3.103
 8602WAT     H126048   1.308   3.612   3.049
 8602WAT     H226049   1.147   3.585   3.046
 8603WAT      O26050   8.799   2.070   3.182
 8603WAT     H126051   8.883   2.023   3.210
 8603WAT     H226052   8.738   2.006   3.136
 8604WAT      O26053   6.447   4.004   4.112
 8604WAT     H126054   6.452   3.948   4.029
 8604WAT     H226055   6.493   3.957   4.187
 8605WAT      O26056   4.669   0.082   5.459
 8605WAT     H126057   4.654   0.181   5.466
 8605WAT     H226058   4.697   0.047   5.548
 8606WAT      O26059   9.560   2.344   4.820
 8606WAT     H126060   9.547   2.439   4.848
 8606WAT     H226061   9.584   2.288   4.900
 8607WAT      O26062   2.660   9.616   2.754
 8607WAT     H126063   2.757   9.640   2.749
 8607WAT     H226064   2.635   9.563   2.672
 8608WAT      O26065   4.114   0.620   1.888
 8608WAT     H126066   4.050   0.549   1.919
 8608WAT     H226067   4.181   0.579   1.826
 8609WAT      O26068   9.448   6.926   3.426
 8609WAT     H126069   9.388   6.955   3.351
 8609WAT     H226070   9.450   6.997   3.496
 8610WAT      O26071   0.282   3.926   0.907
 8610WAT     H126072   0.325   3.866   0.974
 8610WAT     H226073   0.199   3.965   0.947
 8611WAT      O26074   2.597   6.960   5.494
 8611WAT     H126075   2.559   7.053   5.495
 8611WAT     H226076   2.597   6.924   5.588
 8612WAT      O26077   5.041   8.539   4.961
 8612WAT     H126078   4.954   8.562   5.004
 8612WAT     H226079   5.070   8.448   4.992
 8613WAT      O26080   6.186   7.507   4.826
 8613WAT     H126081   6.257   7.454   4.780
 8613WAT     H226082   6.190   7.602   4.796
 8614WAT      O26083   9.341   7.310   3.926
 8614WAT     H126084   9.279   7.254   3.871
 8614WAT     H226085   9.435   7.278   3.913
 8615WAT      O26086   9.665   6.565   1.930
 8615WAT     H126087   9.716   6.598   1.851
 8615WAT     H226088   9.572   6.543   1.902
 8616WAT      O26089   1.407   3.761   1.981
 8616WAT     H126090   1.459   3.792   2.061
 8616WAT     H226091   1.471   3.728   1.911
 8617WAT      O26092   4.691   5.279   7.802
 8617WAT     H126093   4.760   5.331   7.751
 8617WAT     H226094   4.614   5.338   7.823
 8618WAT      O26095   8.881   5.668   2.574
 8618WAT     H126096   8.920   5.652   2.483
 8618WAT     H226097   8.953   5.699   2.636
 8619WAT      O26098   4.991   0.242   1.431
 8619WAT     H126099   5.030   0.333   1.441
 8619WAT     H226100   4.912   0.233   1.491
 8620WAT      O26101   5.987   5.499   8.369
 8620WAT     H126102   6.070   5.501   8.424
 8620WAT     H226103   5.956   5.593   8.352
 8621WAT      O26104   3.643   7.378   9.080
 8621WAT     H126105   3.604   7.287   9.096
 8621WAT     H226106   3.597   7.421   9.002
 8622WAT      O26107   2.641   0.844   3.685
 8622WAT     H126108   2.598   0.934   3.686
 8622WAT     H226109   2.572   0.774   3.669
 8623WAT      O26110   9.197   4.219   7.881
 8623WAT     H126111   9.109   4.178   7.904
 8623WAT     H226112   9.271   4.159   7.912
 8624WAT      O26113   2.784   0.191   8.668
 8624WAT     H126114   2.805   0.112   8.726
 8624WAT     H226115   2.724   0.254   8.718
 8625WAT      O26116   5.828   2.070   1.782
 8625WAT     H126117   5.827   2.158   1.830
 8625WAT     H226118   5.778   2.003   1.837
 8626WAT      O26119   7.005   6.089   4.791
 8626WAT     H126120   6.947   6.161   4.827
 8626WAT     H226121   7.076   6.129   4.732
 8627WAT      O26122   9.173   4.884   6.826
 8627WAT     H126123   9.168   4.912   6.730
 8627WAT     H226124   9.122   4.799   6.838
 8628WAT      O26125   2.578   2.797   6.711
 8628WAT     H126126   2.535   2.817   6.623
 8628WAT     H226127   2.601   2.882   6.757
 8629WAT      O26128   1.846   7.114   6.009
 8629WAT     H126129   1.807   7.107   6.101
 8629WAT     H226130   1.818   7.034   5.955
 8630WAT      O26131   9.427   6.596   9.455
 8630WAT     H126132   9.380   6.602   9.367
 8630WAT     H226133   9.417   6.681   9.505
 8631WAT      O26134   9.705   3.228   1.931
 8631WAT     H126135   9.709   3.277   1.844
 8631WAT     H226136   9.610   3.218   1.959
 8632WAT      O26137   2.093   4.816   8.178
 8632WAT     H126138   2.154   4.831   8.100
 8632WAT     H226139   2.065   4.904   8.216
 8633WAT      O26140   0.959   8.093   7.877
 8633WAT     H126141   0.967   8.125   7.783
 8633WAT     H226142   0.873   8.127   7.916
 8634WAT      O26143   5.153   5.784   3.935
 8634WAT     H126144   5.175   5.875   3.972
 8634WAT     H226145   5.194   5.714   3.992
 8635WAT      O26146   7.914   4.805   4.212
 8635WAT     H126147   7.864   4.822   4.297
 8635WAT     H226148   8.000   4.855   4.212
 8636WAT      O26149   9.043   0.734   0.333
 8636WAT     H126150   9.117   0.675   0.365
 8636WAT     H226151   9.081   0.806   0.275
 8637WAT      O26152   9.759   6.603   0.594
 8637WAT     H126153   9.819   6.539   0.643
 8637WAT     H226154   9.757   6.580   0.497
 8638WAT      O26155   2.193   7.486   1.081
 8638WAT     H126156   2.171   7.580   1.110
 8638WAT     H226157   2.194   7.426   1.161
 8639WAT      O26158   4.295   1.691   6.773
 8639WAT     H126159   4.245   1.761   6.824
 8639WAT     H226160   4.389   1.722   6.757
 8640WAT      O26161   1.259   6.349   4.352
 8640WAT     H126162   1.318   6.314   4.279
 8640WAT     H226163   1.199   6.419   4.315
 8641WAT      O26164   1.290   0.693   5.774
 8641WAT     H126165   1.283   0.698   5.874
 8641WAT     H226166   1.374   0.737   5.744
 8642WAT      O26167   7.947   4.715   2.613
 8642WAT     H126168   7.997   4.793   2.651
 8642WAT     H226169   8.012   4.645   2.584
 8643WAT      O26170   1.299   2.612   5.207
 8643WAT     H126171   1.289   2.545   5.280
 8643WAT     H226172   1.285   2.567   5.119
 8644WAT      O26173   0.651   6.777   7.483
 8644WAT     H126174   0.656   6.802   7.386
 8644WAT     H226175   0.739   6.797   7.527
 8645WAT      O26176   1.216   1.550   7.783
 8645WAT     H126177   1.214   1.601   7.697
 8645WAT     H226178   1.286   1.479   7.778
 8646WAT      O26179   7.313   6.430   5.051
 8646WAT     H126180   7.317   6.330   5.056
 8646WAT     H226181   7.376   6.463   4.981
 8647WAT      O26182   7.861   2.470   3.611
 8647WAT     H126183   7.806   2.388   3.599
 8647WAT     H226184   7.921   2.482   3.532
 8648WAT      O26185   4.509   0.461   3.643
 8648WAT     H126186   4.456   0.435   3.562
 8648WAT     H226187   4.600   0.492   3.616
 8649WAT      O26188   6.956   9.784   0.319
 8649WAT     H126189   6.872   9.744   0.354
 8649WAT     H226190   6.964   9.879   0.352
 8650WAT      O26191   0.477   3.140   5.934
 8650WAT     H126192   0.514   3.103   5.848
 8650WAT     H226193   0.386   3.101   5.949
 8651WAT      O26194   7.632   5.666   7.811
 8651WAT     H126195   7.657   5.609   7.889
 8651WAT     H226196   7.698   5.652   7.737
 8652WAT      O26197   3.621   6.636   1.458
 8652WAT     H126198   3.688   6.595   1.519
 8652WAT     H226199   3.663   6.714   1.410
 8653WAT      O26200   7.282   3.320   4.951
 8653WAT     H126201   7.240   3.410   4.936
 8653WAT     H226202   7.360   3.309   4.890
 8654WAT      O26203   1.830   2.976   4.018
 8654WAT     H126204   1.831   3.012   4.111
 8654WAT     H226205   1.766   2.898   4.013
 8655WAT      O26206   8.966   0.051   7.466
 8655WAT     H126207   9.065   0.062   7.455
 8655WAT     H226208   8.927   0.135   7.503
 8656WAT      O26209   0.132   2.578   0.466
 8656WAT     H126210   0.057   2.645   0.472
 8656WAT     H226211   0.103   2.503   0.407
 8657WAT      O26212   4.637   3.562   6.443
 8657WAT     H126213   4.600   3.481   6.488
 8657WAT     H226214   4.582   3.641   6.468
 8658WAT      O26215   8.593   0.662   2.196
 8658WAT     H126216   8.594   0.753   2.155
 8658WAT     H226217   8.545   0.599   2.135
 8659WAT      O26218   1.371   4.646   0.104
 8659WAT     H126219   1.300   4.706   0.067
 8659WAT     H226220   1.356   4.553   0.072
 8660WAT      O26221   2.235   1.242   0.421
 8660WAT     H126222   2.293   1.161   0.422
 8660WAT     H226223   2.220   1.274   0.515
 8661WAT      O26224   6.656   9.741   3.606
 8661WAT     H126225   6.621   9.833   3.589
 8661WAT     H226226   6.582   9.675   3.590
 8662WAT      O26227   9.018   8.682   3.850
 8662WAT     H126228   9.054   8.703   3.941
 8662WAT     H226229   9.055   8.747   3.784
 8663WAT      O26230   1.524   6.676   6.720
 8663WAT     H126231   1.463   6.652   6.645
 8663WAT     H226232   1.479   6.659   6.807
 8664WAT      O26233   5.774   0.731   3.798
 8664WAT     H126234   5.744   0.739   3.703
 8664WAT     H226235   5.698   0.698   3.854
 8665WAT      O26236   0.736   7.209   8.792
 8665WAT     H126237   0.671   7.136   8.812
 8665WAT     H226238   0.687   7.295   8.777
 8666WAT      O26239   0.523   8.511   5.751
 8666WAT     H126240   0.455   8.542   5.685
 8666WAT     H226241   0.515   8.412   5.763
 8667WAT      O26242   3.312   6.602   1.119
 8667WAT     H126243   3.311   6.503   1.104
 8667WAT     H226244   3.243   6.627   1.187
 8668WAT      O26245   3.421   8.192   4.981
 8668WAT     H126246   3.393   8.258   5.050
 8668WAT     H226247   3.473   8.238   4.909
 8669WAT      O26248   2.666   7.091   9.774
 8669WAT     H126249   2.685   7.076   9.677
 8669WAT     H226250   2.669   7.004   9.822
 8670WAT      O26251   1.297   1.382   2.545
 8670WAT     H126252   1.246   1.394   2.630
 8670WAT     H226253   1.233   1.370   2.469
 8671WAT      O26254   5.739   7.218   6.823
 8671WAT     H126255   5.744   7.162   6.740
 8671WAT     H226256   5.824   7.270   6.833
 8672WAT      O26257   4.914   4.688   1.785
 8672WAT     H126258   4.889   4.642   1.870
 8672WAT     H226259   4.933   4.620   1.715
 8673WAT      O26260   6.078   5.700   1.046
 8673WAT     H126261   5.997   5.717   0.989
 8673WAT     H226262   6.090   5.602   1.058
 8674WAT      O26263   0.286   0.035   5.622
 8674WAT     H126264   0.253   0.039   5.717
 8674WAT     H226265   0.347  -0.044   5.611
 8675WAT      O26266   9.290   1.380   4.254
 8675WAT     H126267   9.242   1.333   4.328
 8675WAT     H226268   9.381   1.406   4.285
 8676WAT      O26269   9.667   7.989   8.940
 8676WAT     H126270   9.741   8.027   8.996
 8676WAT     H226271   9.662   7.890   8.956
 8677WAT      O26272   5.773   7.758   1.713
 8677WAT     H126273   5.681   7.768   1.753
 8677WAT     H226274   5.840   7.802   1.772
 8678WAT      O26275   6.733   1.290   3.368
 8678WAT     H126276   6.653   1.307   3.425
 8678WAT     H226277   6.712   1.219   3.301
 8679WAT      O26278   3.749   3.676   6.837
 8679WAT     H126279   3.805   3.612   6.784
 8679WAT     H226280   3.737   3.760   6.785
 8680WAT      O26281   3.093   3.049   7.494
 8680WAT     H126282   3.033   3.025   7.417
 8680WAT     H226283   3.153   2.972   7.515
 8681WAT      O26284   4.154   9.459   5.229
 8681WAT     H126285   4.239   9.423   5.192
 8681WAT     H226286   4.078   9.399   5.205
 8682WAT      O26287   3.208   7.939   7.319
 8682WAT     H126288   3.287   7.911   7.265
 8682WAT     H226289   3.144   7.989   7.261
 8683WAT      O26290   5.555   9.016   8.738
 8683WAT     H126291   5.482   9.013   8.671
 8683WAT     H226292   5.520   9.053   8.824
 8684WAT      O26293   2.077   2.091   7.773
 8684WAT     H126294   1.994   2.137   7.803
 8684WAT     H226295   2.149   2.158   7.756
 8685WAT      O26296   4.107   9.181   5.773
 8685WAT     H126297   4.058   9.110   5.723
 8685WAT     H226298   4.080   9.271   5.739
 8686WAT      O26299   0.183   3.828   5.820
 8686WAT     H126300   0.157   3.785   5.734
 8686WAT     H226301   0.156   3.769   5.897
 8687WAT      O26302   1.807   2.085   5.295
 8687WAT     H126303   1.730   2.103   5.357
 8687WAT     H226304   1.840   2.172   5.258
 8688WAT      O26305   1.829   1.687   9.457
 8688WAT     H126306   1.914   1.718   9.499
 8688WAT     H226307   1.785   1.620   9.516
 8689WAT      O26308   7.144   7.730   1.149
 8689WAT     H126309   7.204   7.711   1.227
 8689WAT     H226310   7.166   7.819   1.110
 8690WAT      O26311   3.059   2.563   5.431
 8690WAT     H126312   3.054   2.479   5.376
 8690WAT     H226313   3.013   2.548   5.518
 8691WAT      O26314   3.005   2.977   8.417
 8691WAT     H126315   3.035   3.014   8.328
 8691WAT     H226316   2.932   3.036   8.454
 8692WAT      O26317   1.354   5.542   5.759
 8692WAT     H126318   1.388   5.467   5.815
 8692WAT     H226319   1.381   5.529   5.664
 8693WAT      O26320   6.762   8.063   1.885
 8693WAT     H126321   6.821   8.092   1.960
 8693WAT     H226322   6.699   8.138   1.862
 8694WAT      O26323   4.751   9.046   8.496
 8694WAT     H126324   4.766   8.958   8.541
 8694WAT     H226325   4.790   9.119   8.552
 8695WAT      O26326   8.814   1.689   8.452
 8695WAT     H126327   8.839   1.786   8.453
 8695WAT     H226328   8.771   1.665   8.539
 8696WAT      O26329   0.903   2.913   5.552
 8696WAT     H126330   0.817   2.883   5.594
 8696WAT     H226331   0.955   2.967   5.619
 8697WAT      O26332   0.223   9.539   9.604
 8697WAT     H126333   0.146   9.478   9.624
 8697WAT     H226334   0.308   9.486   9.609
 8698WAT      O26335   1.790   6.866   1.583
 8698WAT     H126336   1.744   6.780   1.565
 8698WAT     H226337   1.887   6.848   1.601
 8699WAT      O26338   6.013   1.085   7.982
 8699WAT     H126339   6.072   1.005   7.970
 8699WAT     H226340   6.068   1.168   7.976
 8700WAT      O26341   7.473   8.477   9.349
 8700WAT     H126342   7.397   8.412   9.348
 8700WAT     H226343   7.487   8.514   9.257
 8701WAT      O26344   8.425   6.148   5.459
 8701WAT     H126345   8.460   6.165   5.367
 8701WAT     H226346   8.472   6.069   5.498
 8702WAT      O26347   7.103   9.139   7.946
 8702WAT     H126348   7.185   9.194   7.930
 8702WAT     H226349   7.031   9.197   7.984
 8703WAT      O26350   7.601   9.590   6.056
 8703WAT     H126351   7.515   9.641   6.059
 8703WAT     H226352   7.617   9.556   5.963
 8704WAT      O26353   7.731   5.051   6.368
 8704WAT     H126354   7.723   4.982   6.297
 8704WAT     H226355   7.670   5.028   6.444
 8705WAT      O26356   7.050   2.965   1.467
 8705WAT     H126357   6.983   2.956   1.541
 8705WAT     H226358   7.018   3.032   1.401
 8706WAT      O26359   2.055   8.570   7.938
 8706WAT     H126360   2.034   8.617   7.852
 8706WAT     H226361   2.066   8.638   8.011
 8707WAT      O26362   6.222   0.261   8.267
 8707WAT     H126363   6.184   0.253   8.175
 8707WAT     H226364   6.154   0.300   8.329
 8708WAT      O26365   9.681   5.325   5.261
 8708WAT     H126366   9.744   5.267   5.209
 8708WAT     H226367   9.642   5.273   5.336
 8709WAT      O26368   2.488   3.983   8.293
 8709WAT     H126369   2.536   4.043   8.358
 8709WAT     H226370   2.554   3.920   8.251
 8710WAT      O26371   2.180   0.321   0.675
 8710WAT     H126372   2.222   0.281   0.593
 8710WAT     H226373   2.115   0.256   0.714
 8711WAT      O26374   5.737   6.226   3.516
 8711WAT     H126375   5.704   6.215   3.422
 8711WAT     H226376   5.686   6.300   3.561
 8712WAT      O26377   7.720   2.420   0.472
 8712WAT     H126378   7.793   2.385   0.532
 8712WAT     H226379   7.656   2.475   0.526
 8713WAT      O26380   1.433   9.341   0.700
 8713WAT     H126381   1.469   9.370   0.789
 8713WAT     H226382   1.333   9.346   0.701
 8714WAT      O26383   4.609   0.935   6.425
 8714WAT     H126384   4.600   0.838   6.448
 8714WAT     H226385   4.521   0.970   6.392
 8715WAT      O26386   0.752   0.402   6.820
 8715WAT     H126387   0.770   0.304   6.827
 8715WAT     H226388   0.762   0.444   6.910
 8716WAT      O26389   8.828   9.029   1.928
 8716WAT     H126390   8.776   9.036   2.013
 8716WAT     H226391   8.863   9.120   1.903
 8717WAT      O26392   9.128   1.253   7.189
 8717WAT     H126393   9.190   1.302   7.251
 8717WAT     H226394   9.182   1.194   7.128
 8718WAT      O26395   9.196   6.264   6.825
 8718WAT     H126396   9.209   6.168   6.853
 8718WAT     H226397   9.195   6.322   6.907
 8719WAT      O26398   5.698   2.927   7.800
 8719WAT     H126399   5.753   2.993   7.749
 8719WAT     H226400   5.708   2.836   7.760
 8720WAT      O26401   1.915   8.903   3.942
 8720WAT     H126402   1.884   8.987   3.898
 8720WAT     H226403   1.836   8.852   3.977
 8721WAT      O26404   8.647   0.875   9.655
 8721WAT     H126405   8.679   0.780   9.659
 8721WAT     H226406   8.722   0.936   9.681
 8722WAT      O26407   2.328   0.467   1.502
 8722WAT     H126408   2.371   0.402   1.440
 8722WAT     H226409   2.399   0.520   1.549
 8723WAT      O26410   0.176   6.332   4.241
 8723WAT     H126411   0.269   6.369   4.232
 8723WAT     H226412   0.181   6.233   4.250
 8724WAT      O26413   2.645   6.431   6.411
 8724WAT     H126414   2.702   6.472   6.482
 8724WAT     H226415   2.699   6.423   6.327
 8725WAT      O26416   6.532   7.350   6.539
 8725WAT     H126417   6.551   7.431   6.595
 8725WAT     H226418   6.434   7.330   6.539
 8726WAT      O26419   9.654   9.073   0.351
 8726WAT     H126420   9.617   9.114   0.267
 8726WAT     H226421   9.586   9.078   0.423
 8727WAT      O26422   4.662   3.805   9.540
 8727WAT     H126423   4.602   3.732   9.573
 8727WAT     H226424   4.606   3.882   9.509
 8728WAT      O26425   8.309   8.607   3.779
 8728WAT     H126426   8.258   8.645   3.702
 8728WAT     H226427   8.286   8.656   3.863
 8729WAT      O26428   1.172   0.238   5.986
 8729WAT     H126429   1.171   0.323   5.933
 8729WAT     H226430   1.267   0.217   6.012
 8730WAT      O26431   1.306   3.214   2.821
 8730WAT     H126432   1.372   3.234   2.893
 8730WAT     H226433   1.222   3.178   2.861
 8731WAT      O26434   4.964   3.162   5.147
 8731WAT     H126435   4.892   3.093   5.161
 8731WAT     H226436   4.932   3.251   5.181
 8732WAT      O26437   1.561   0.418   5.058
 8732WAT     H126438   1.500   0.470   5.117
 8732WAT     H226439   1.654   0.423   5.094
 8733WAT      O26440   6.982   7.605   0.648
 8733WAT     H126441   6.941   7.539   0.585
 8733WAT     H226442   7.064   7.644   0.607
 8734WAT      O26443   2.032   9.378   5.568
 8734WAT     H126444   2.014   9.326   5.485
 8734WAT     H226445   1.952   9.374   5.628
 8735WAT      O26446   3.277   9.267   6.558
 8735WAT     H126447   3.283   9.357   6.514
 8735WAT     H226448   3.181   9.243   6.570
 8736WAT      O26449   7.810   8.525   9.291
 8736WAT     H126450   7.772   8.613   9.318
 8736WAT     H226451   7.865   8.488   9.367
 8737WAT      O26452   3.227   1.954   4.649
 8737WAT     H126453   3.299   1.976   4.584
 8737WAT     H226454   3.254   1.873   4.702
 8738WAT      O26455   1.697   1.232   0.540
 8738WAT     H126456   1.646   1.317   0.528
 8738WAT     H226457   1.757   1.217   0.462
 8739WAT      O26458   3.495   5.531   5.542
 8739WAT     H126459   3.573   5.512   5.483
 8739WAT     H226460   3.481   5.630   5.548
 8740WAT      O26461   8.254   5.153   6.039
 8740WAT     H126462   8.221   5.228   6.097
 8740WAT     H226463   8.228   5.170   5.944
 8741WAT      O26464   7.156   4.292   2.794
 8741WAT     H126465   7.219   4.322   2.723
 8741WAT     H226466   7.177   4.198   2.820
 8742WAT      O26467   4.141   3.790   7.119
 8742WAT     H126468   4.060   3.830   7.162
 8742WAT     H226469   4.115   3.706   7.072
 8743WAT      O26470   5.073   9.701   8.646
 8743WAT     H126471   5.080   9.799   8.667
 8743WAT     H226472   5.165   9.662   8.640
 8744WAT      O26473   3.353   0.658   3.292
 8744WAT     H126474   3.379   0.616   3.378
 8744WAT     H226475   3.348   0.758   3.303
 8745WAT      O26476   4.551   9.210   5.393
 8745WAT     H126477   4.534   9.132   5.454
 8745WAT     H226478   4.649   9.217   5.376
 8746WAT      O26479   7.258   8.666   4.715
 8746WAT     H126480   7.306   8.703   4.635
 8746WAT     H226481   7.160   8.662   4.697
 8747WAT      O26482   2.072   3.875   4.715
 8747WAT     H126483   2.078   3.940   4.791
 8747WAT     H226484   1.976   3.863   4.689
 8748WAT      O26485   5.810   6.205   8.759
 8748WAT     H126486   5.833   6.215   8.662
 8748WAT     H226487   5.759   6.120   8.772
 8749WAT      O26488   7.339   1.439   1.641
 8749WAT     H126489   7.409   1.380   1.603
 8749WAT     H226490   7.357   1.455   1.738
 8750WAT      O26491   8.933   4.330   4.078
 8750WAT     H126492   8.929   4.304   3.981
 8750WAT     H226493   9.014   4.387   4.093
 8751WAT      O26494   3.971   1.289   0.351
 8751WAT     H126495   3.934   1.196   0.355
 8751WAT     H226496   3.931   1.344   0.424
 8752WAT      O26497   0.366   8.644   4.386
 8752WAT     H126498   0.334   8.732   4.351
 8752WAT     H226499   0.323   8.625   4.475
 8753WAT      O26500   5.642   3.188   6.490
 8753WAT     H126501   5.575   3.114   6.491
 8753WAT     H226502   5.703   3.178   6.569
 8754WAT      O26503   7.001   7.021   9.500
 8754WAT     H126504   6.934   6.956   9.467
 8754WAT     H226505   6.977   7.113   9.469
 8755WAT      O26506   6.172   2.493   3.064
 8755WAT     H126507   6.198   2.396   3.060
 8755WAT     H226508   6.253   2.549   3.077
 8756WAT      O26509   6.135   6.432   9.419
 8756WAT     H126510   6.184   6.458   9.502
 8756WAT     H226511   6.074   6.506   9.391
 8757WAT      O26512   7.876   7.780   2.925
 8757WAT     H126513   7.858   7.808   3.020
 8757WAT     H226514   7.839   7.849   2.863
 8758WAT      O26515   1.701   5.494   0.048
 8758WAT     H126516   1.798   5.513   0.030
 8758WAT     H226517   1.656   5.577   0.080
 8759WAT      O26518   8.092   9.208   8.201
 8759WAT     H126519   8.159   9.159   8.146
 8759WAT     H226520   8.137   9.285   8.246
 8760WAT      O26521   9.606   1.093   5.652
 8760WAT     H126522   9.570   1.052   5.735
 8760WAT     H226523   9.617   1.022   5.582
 8761WAT      O26524   6.527   7.194   8.696
 8761WAT     H126525   6.477   7.118   8.654
 8761WAT     H226526   6.469   7.241   8.762
 8762WAT      O26527   3.018   8.646   8.054
 8762WAT     H126528   3.049   8.629   8.148
 8762WAT     H226529   3.091   8.690   8.003
 8763WAT      O26530   3.676   8.095   1.100
 8763WAT     H126531   3.594   8.134   1.143
 8763WAT     H226532   3.715   8.161   1.037
 8764WAT      O26533   6.373   5.262   8.424
 8764WAT     H126534   6.294   5.233   8.370
 8764WAT     H226535   6.390   5.196   8.497
 8765WAT      O26536   8.689   7.199   4.586
 8765WAT     H126537   8.614   7.258   4.555
 8765WAT     H226538   8.651   7.115   4.626
 8766WAT      O26539   2.205   2.651   5.164
 8766WAT     H126540   2.125   2.699   5.199
 8766WAT     H226541   2.278   2.653   5.232
 8767WAT      O26542   7.624   3.484   8.347
 8767WAT     H126543   7.657   3.437   8.429
 8767WAT     H226544   7.624   3.421   8.269
 8768WAT      O26545   8.323   9.665   2.160
 8768WAT     H126546   8.300   9.763   2.157
 8768WAT     H226547   8.421   9.655   2.178
 8769WAT      O26548   2.690   4.242   6.544
 8769WAT     H126549   2.769   4.272   6.491
 8769WAT     H226550   2.697   4.143   6.562
 8770WAT      O26551   6.062   6.906   3.540
 8770WAT     H126552   6.026   6.813   3.533
 8770WAT     H226553   6.160   6.905   3.520
 8771WAT      O26554   6.046   8.744   4.728
 8771WAT     H126555   5.997   8.778   4.808
 8771WAT     H226556   6.114   8.677   4.757
 8772WAT      O26557   1.600   0.560   7.833
 8772WAT     H126558   1.613   0.545   7.735
 8772WAT     H226559   1.534   0.494   7.868
 8773WAT      O26560   7.050   0.405   6.339
 8773WAT     H126561   6.959   0.412   6.379
 8773WAT     H226562   7.082   0.497   6.313
 8774WAT      O26563   3.083   8.405   3.731
 8774WAT     H126564   3.011   8.388   3.663
 8774WAT     H226565   3.104   8.503   3.733
 8775WAT      O26566   9.827   2.888   7.161
 8775WAT     H126567   9.861   2.842   7.079
 8775WAT     H226568   9.734   2.921   7.144
 8776WAT      O26569   0.795   6.580   3.272
 8776WAT     H126570   0.826   6.675   3.281
 8776WAT     H226571   0.814   6.531   3.357
 8777WAT      O26572   5.418   6.012   2.860
 8777WAT     H126573   5.453   5.922   2.885
 8777WAT     H226574   5.492   6.066   2.818
 8778WAT      O26575   8.112   3.343   7.766
 8778WAT     H126576   8.209   3.343   7.787
 8778WAT     H226577   8.060   3.337   7.851
 8779WAT      O26578   4.449   5.797   9.207
 8779WAT     H126579   4.392   5.834   9.133
 8779WAT     H226580   4.405   5.815   9.295
 8780WAT      O26581   2.878   9.049   2.565
 8780WAT     H126582   2.944   9.124   2.561
 8780WAT     H226583   2.876   9.002   2.477
 8781WAT      O26584   4.437   3.279   9.837
 8781WAT     H126585   4.420   3.193   9.885
 8781WAT     H226586   4.436   3.263   9.739
 8782WAT      O26587   5.284   7.578   7.205
 8782WAT     H126588   5.212   7.632   7.248
 8782WAT     H226589   5.284   7.485   7.244
 8783WAT      O26590   7.838   8.917   0.925
 8783WAT     H126591   7.739   8.927   0.937
 8783WAT     H226592   7.876   9.003   0.890
 8784WAT      O26593   2.352   9.380   2.883
 8784WAT     H126594   2.260   9.348   2.905
 8784WAT     H226595   2.417   9.344   2.950
 8785WAT      O26596   7.947   2.805   9.066
 8785WAT     H126597   7.896   2.850   9.140
 8785WAT     H226598   7.883   2.757   9.006
 8786WAT      O26599   1.068   6.338   5.626
 8786WAT     H126600   1.112   6.258   5.668
 8786WAT     H226601   1.114   6.360   5.540
 8787WAT      O26602   7.335   9.770   8.071
 8787WAT     H126603   7.378   9.793   7.984
 8787WAT     H226604   7.368   9.681   8.103
 8788WAT      O26605   3.258   1.206   4.485
 8788WAT     H126606   3.216   1.294   4.460
 8788WAT     H226607   3.233   1.183   4.579
 8789WAT      O26608   9.205   4.743   7.089
 8789WAT     H126609   9.140   4.767   7.016
 8789WAT     H226610   9.297   4.736   7.050
 8790WAT      O26611   1.051   7.343   2.575
 8790WAT     H126612   1.037   7.345   2.674
 8790WAT     H226613   0.991   7.275   2.534
 8791WAT      O26614   9.402   4.414   5.494
 8791WAT     H126615   9.350   4.351   5.437
 8791WAT     H226616   9.383   4.395   5.591
 8792WAT      O26617   2.690   6.453   4.802
 8792WAT     H126618   2.591   6.473   4.803
 8792WAT     H226619   2.727   6.469   4.894
 8793WAT      O26620   3.656   0.349   2.126
 8793WAT     H126621   3.705   0.295   2.194
 8793WAT     H226622   3.599   0.288   2.070
 8794WAT      O26623   6.195   9.787   6.183
 8794WAT     H126624   6.216   9.883   6.201
 8794WAT     H226625   6.280   9.739   6.160
 8795WAT      O26626   4.933   1.279   0.571
 8795WAT     H126627   4.838   1.278   0.539
 8795WAT     H226628   4.965   1.184   0.580
 8796WAT      O26629   6.154   2.968   2.203
 8796WAT     H126630   6.125   3.057   2.168
 8796WAT     H226631   6.147   2.967   2.303
 8797WAT      O26632   2.880   5.988   2.661
 8797WAT     H126633   2.857   5.937   2.578
 8797WAT     H226634   2.811   5.968   2.731
 8798WAT      O26635   8.022   7.396   5.282
 8798WAT     H126636   8.000   7.302   5.258
 8798WAT     H226637   8.021   7.406   5.382
 8799WAT      O26638   0.696   4.887   0.815
 8799WAT     H126639   0.733   4.803   0.855
 8799WAT     H226640   0.642   4.864   0.734
 8800WAT      O26641   5.528   2.454   4.695
 8800WAT     H126642   5.512   2.378   4.757
 8800WAT     H226643   5.450   2.463   4.633
 8801WAT      O26644   9.002   3.305   9.554
 8801WAT     H126645   8.969   3.269   9.642
 8801WAT     H226646   9.049   3.232   9.505
 8802WAT      O26647   8.260   0.649   5.715
 8802WAT     H126648   8.225   0.596   5.792
 8802WAT     H226649   8.359   0.658   5.722
 8803WAT      O26650   4.491   6.886   5.782
 8803WAT     H126651   4.519   6.962   5.841
 8803WAT     H226652   4.478   6.804   5.837
 8804WAT      O26653   4.096   0.428   9.366
 8804WAT     H126654   4.195   0.415   9.375
 8804WAT     H226655   4.049   0.367   9.430
 8805WAT      O26656   7.451   2.790   4.066
 8805WAT     H126657   7.431   2.854   3.992
 8805WAT     H226658   7.550   2.781   4.076
 8806WAT      O26659   2.107   4.727   5.478
 8806WAT     H126660   2.144   4.812   5.514
 8806WAT     H226661   2.175   4.683   5.418
 8807WAT      O26662   0.205   3.937   5.156
 8807WAT     H126663   0.134   3.950   5.086
 8807WAT     H226664   0.179   3.862   5.217
 8808WAT      O26665   9.046   5.309   0.100
 8808WAT     H126666   9.027   5.235   0.164
 8808WAT     H226667   8.984   5.303   0.021
 8809WAT      O26668   6.286   6.358   4.180
 8809WAT     H126669   6.274   6.279   4.240
 8809WAT     H226670   6.373   6.349   4.131
 8810WAT      O26671   0.174   7.342   7.241
 8810WAT     H126672   0.163   7.400   7.160
 8810WAT     H226673   0.127   7.255   7.226
 8811WAT      O26674   0.889   9.329   6.541
 8811WAT     H126675   0.825   9.402   6.519
 8811WAT     H226676   0.843   9.240   6.533
 8812WAT      O26677   0.535   3.666   1.298
 8812WAT     H126678   0.491   3.726   1.365
 8812WAT     H226679   0.489   3.577   1.298
 8813WAT      O26680   2.315   8.977   7.737
 8813WAT     H126681   2.368   8.978   7.822
 8813WAT     H226682   2.353   8.908   7.675
 8814WAT      O26683   9.097   2.896   0.737
 8814WAT     H126684   9.157   2.827   0.695
 8814WAT     H226685   9.037   2.935   0.667
 8815WAT      O26686   1.537   6.696   8.885
 8815WAT     H126687   1.536   6.596   8.876
 8815WAT     H226688   1.447   6.732   8.860
 8816WAT      O26689   0.932   0.454   0.069
 8816WAT     H126690   0.949   0.512   0.149
 8816WAT     H226691   0.913   0.361   0.099
 8817WAT      O26692   3.061   3.104   8.903
 8817WAT     H126693   2.983   3.063   8.855
 8817WAT     H226694   3.101   3.036   8.964
 8818WAT      O26695   5.241   5.137   6.292
 8818WAT     H126696   5.273   5.065   6.354
 8818WAT     H226697   5.312   5.159   6.226
 8819WAT      O26698   1.162   9.584   1.192
 8819WAT     H126699   1.102   9.561   1.115
 8819WAT     H226700   1.121   9.548   1.276
 8820WAT      O26701   0.785   3.913   2.356
 8820WAT     H126702   0.873   3.885   2.395
 8820WAT     H226703   0.765   4.007   2.384
 8821WAT      O26704   3.083   3.001   1.960
 8821WAT     H126705   3.006   3.026   2.020
 8821WAT     H226706   3.051   2.998   1.865
 8822WAT      O26707   7.490   2.915   2.305
 8822WAT     H126708   7.551   2.960   2.241
 8822WAT     H226709   7.396   2.942   2.287
 8823WAT      O26710   2.630   0.722   2.425
 8823WAT     H126711   2.664   0.816   2.432
 8823WAT     H226712   2.677   0.675   2.351
 8824WAT      O26713   8.754   2.564   5.175
 8824WAT     H126714   8.821   2.639   5.180
 8824WAT     H226715   8.702   2.571   5.090
 8825WAT      O26716   9.044   1.896   3.228
 8825WAT     H126717   9.119   1.879   3.164
 8825WAT     H226718   9.049   1.830   3.303
 8826WAT      O26719   4.334   0.209   6.153
 8826WAT     H126720   4.241   0.231   6.123
 8826WAT     H226721   4.333   0.185   6.250
 8827WAT      O26722   1.557   7.921   4.217
 8827WAT     H126723   1.500   7.917   4.135
 8827WAT     H226724   1.498   7.926   4.298
 8828WAT      O26725   3.100   6.025   4.142
 8828WAT     H126726   3.187   5.981   4.121
 8828WAT     H226727   3.065   6.070   4.060
 8829WAT      O26728   5.985   5.040   5.255
 8829WAT     H126729   6.048   4.971   5.218
 8829WAT     H226730   5.947   5.094   5.180
 8830WAT      O26731   5.800   9.267   7.342
 8830WAT     H126732   5.792   9.305   7.434
 8830WAT     H226733   5.809   9.167   7.347
 8831WAT      O26734   2.842   0.541   1.954
 8831WAT     H126735   2.746   0.564   1.964
 8831WAT     H226736   2.885   0.602   1.888
 8832WAT      O26737   0.806   3.733   1.986
 8832WAT     H126738   0.841   3.820   2.020
 8832WAT     H226739   0.706   3.732   1.992
 8833WAT      O26740   6.866   3.219   5.732
 8833WAT     H126741   6.932   3.238   5.805
 8833WAT     H226742   6.862   3.297   5.669
 8834WAT      O26743   7.988   3.038   6.704
 8834WAT     H126744   7.934   3.115   6.738
 8834WAT     H226745   8.078   3.039   6.748
 8835WAT      O26746   8.703   4.566   4.527
 8835WAT     H126747   8.799   4.591   4.510
 8835WAT     H226748   8.689   4.549   4.624
 8836WAT      O26749   8.580   7.318   6.784
 8836WAT     H126750   8.608   7.300   6.878
 8836WAT     H226751   8.651   7.284   6.722
 8837WAT      O26752   4.243   3.098   8.298
 8837WAT     H126753   4.219   3.155   8.376
 8837WAT     H226754   4.293   3.017   8.330
 8838WAT      O26755   3.056   5.857   1.282
 8838WAT     H126756   2.988   5.787   1.256
 8838WAT     H226757   3.087   5.905   1.200
 8839WAT      O26758   8.245   2.230   7.233
 8839WAT     H126759   8.235   2.248   7.136
 8839WAT     H226760   8.260   2.132   7.247
 8840WAT      O26761   6.390   2.604   3.193
 8840WAT     H126762   6.380   2.604   3.292
 8840WAT     H226763   6.452   2.530   3.166
 8841WAT      O26764   7.090   2.821   9.483
 8841WAT     H126765   7.046   2.800   9.395
 8841WAT     H226766   7.095   2.920   9.495
 8842WAT      O26767   4.641   9.588   1.017
 8842WAT     H126768   4.634   9.510   1.080
 8842WAT     H226769   4.561   9.647   1.028
 8843WAT      O26770   6.381   9.207   1.204
 8843WAT     H126771   6.387   9.170   1.297
 8843WAT     H226772   6.461   9.265   1.187
 8844WAT      O26773   5.670   4.969   4.674
 8844WAT     H126774   5.614   4.893   4.705
 8844WAT     H226775   5.611   5.048   4.653
 8845WAT      O26776   2.650   2.861   0.142
 8845WAT     H126777   2.584   2.794   0.177
 8845WAT     H226778   2.735   2.814   0.117
 8846WAT      O26779   8.132   8.388   7.150
 8846WAT     H126780   8.135   8.461   7.218
 8846WAT     H226781   8.162   8.424   7.062
 8847WAT      O26782   6.238   0.467   1.521
 8847WAT     H126783   6.324   0.422   1.497
 8847WAT     H226784   6.233   0.556   1.476
 8848WAT      O26785   6.849   7.893   9.747
 8848WAT     H126786   6.834   7.794   9.746
 8848WAT     H226787   6.764   7.940   9.726
 8849WAT      O26788   3.057   7.354   1.402
 8849WAT     H126789   3.138   7.309   1.440
 8849WAT     H226790   3.085   7.440   1.358
 8850WAT      O26791   3.659   7.875   1.801
 8850WAT     H126792   3.734   7.847   1.742
 8850WAT     H226793   3.616   7.957   1.763
 8851WAT      O26794   1.561   8.462   2.090
 8851WAT     H126795   1.625   8.391   2.059
 8851WAT     H226796   1.571   8.542   2.031
 8852WAT      O26797   9.711   4.032   2.332
 8852WAT     H126798   9.663   4.120   2.342
 8852WAT     H226799   9.683   3.971   2.406
 8853WAT      O26800   6.851   0.651   0.406
 8853WAT     H126801   6.773   0.590   0.421
 8853WAT     H226802   6.889   0.680   0.494
 8854WAT      O26803   0.777   0.662   4.758
 8854WAT     H126804   0.737   0.694   4.843
 8854WAT     H226805   0.877   0.669   4.763
 8855WAT      O26806   3.073   8.195   5.195
 8855WAT     H126807   3.024   8.261   5.138
 8855WAT     H226808   3.091   8.236   5.284
 8856WAT      O26809   2.505   4.732   4.815
 8856WAT     H126810   2.599   4.748   4.787
 8856WAT     H226811   2.485   4.634   4.811
 8857WAT      O26812   2.968   1.076   6.300
 8857WAT     H126813   2.928   0.997   6.253
 8857WAT     H226814   2.894   1.137   6.329
 8858WAT      O26815   8.757   1.124   4.246
 8858WAT     H126816   8.806   1.093   4.327
 8858WAT     H226817   8.659   1.111   4.259
 8859WAT      O26818   9.622   0.582   0.580
 8859WAT     H126819   9.543   0.523   0.597
 8859WAT     H226820   9.706   0.528   0.582
 8860WAT      O26821   6.514   3.989   9.801
 8860WAT     H126822   6.424   4.026   9.780
 8860WAT     H226823   6.505   3.897   9.840
 8861WAT      O26824   4.924   2.759   1.636
 8861WAT     H126825   4.854   2.808   1.583
 8861WAT     H226826   4.973   2.824   1.694
 8862WAT      O26827   0.938   4.020   7.285
 8862WAT     H126828   0.977   4.106   7.251
 8862WAT     H226829   0.891   4.038   7.372
 8863WAT      O26830   6.442   4.792   1.080
 8863WAT     H126831   6.461   4.713   1.139
 8863WAT     H226832   6.492   4.872   1.113
 8864WAT      O26833   5.678   4.797   1.602
 8864WAT     H126834   5.589   4.785   1.647
 8864WAT     H226835   5.703   4.893   1.603
 8865WAT      O26836   6.391   7.417   5.189
 8865WAT     H126837   6.378   7.333   5.242
 8865WAT     H226838   6.305   7.443   5.146
 8866WAT      O26839   1.533   9.774   7.906
 8866WAT     H126840   1.518   9.698   7.843
 8866WAT     H226841   1.631   9.789   7.918
 8867WAT      O26842   1.149   8.249   6.465
 8867WAT     H126843   1.083   8.301   6.518
 8867WAT     H226844   1.239   8.255   6.509
 8868WAT      O26845   3.530   2.506   4.350
 8868WAT     H126846   3.524   2.445   4.270
 8868WAT     H226847   3.443   2.552   4.363
 8869WAT      O26848   2.089   9.768   3.687
 8869WAT     H126849   2.001   9.798   3.724
 8869WAT     H226850   2.077   9.737   3.592
 8870WAT      O26851   5.182   3.056   7.825
 8870WAT     H126852   5.082   3.062   7.827
 8870WAT     H226853   5.220   3.141   7.789
 8871WAT      O26854   8.993   5.785   0.236
 8871WAT     H126855   9.056   5.748   0.167
 8871WAT     H226856   8.905   5.738   0.229
 8872WAT      O26857   3.921   9.476   6.583
 8872WAT     H126858   3.911   9.481   6.682
 8872WAT     H226859   4.000   9.418   6.560
 8873WAT      O26860   5.436   9.267   5.883
 8873WAT     H126861   5.533   9.285   5.895
 8873WAT     H226862   5.391   9.348   5.844
 8874WAT      O26863   0.205   7.324   7.991
 8874WAT     H126864   0.122   7.305   8.044
 8874WAT     H226865   0.185   7.314   7.894
 8875WAT      O26866   9.346   7.865   0.062
 8875WAT     H126867   9.248   7.880   0.075
 8875WAT     H226868   9.392   7.870   0.151
 8876WAT      O26869   8.303   9.100   9.051
 8876WAT     H126870   8.358   9.075   8.971
 8876WAT     H226871   8.266   9.192   9.039
 8877WAT      O26872   7.303   8.555   8.332
 8877WAT     H126873   7.386   8.575   8.383
 8877WAT     H226874   7.239   8.632   8.341
 8878WAT      O26875   3.985   6.075   3.334
 8878WAT     H126876   3.971   5.981   3.365
 8878WAT     H226877   4.038   6.075   3.249
 8879WAT      O26878   7.179   7.723   4.200
 8879WAT     H126879   7.133   7.806   4.230
 8879WAT     H226880   7.278   7.736   4.206
 8880WAT      O26881   7.530   2.406   2.755
 8880WAT     H126882   7.546   2.424   2.657
 8880WAT     H226883   7.464   2.472   2.790
 8881WAT      O26884   2.606   0.152   5.245
 8881WAT     H126885   2.610   0.237   5.297
 8881WAT     H226886   2.699   0.122   5.223
 8882WAT      O26887   0.869   7.443   6.140
 8882WAT     H126888   0.860   7.442   6.040
 8882WAT     H226889   0.910   7.358   6.171
 8883WAT      O26890   4.581   6.115   5.579
 8883WAT     H126891   4.630   6.177   5.517
 8883WAT     H226892   4.520   6.057   5.526
 8884WAT      O26893   1.889   8.730   6.897
 8884WAT     H126894   1.978   8.775   6.909
 8884WAT     H226895   1.903   8.634   6.876
 8885WAT      O26896   8.906   7.234   4.247
 8885WAT     H126897   8.996   7.252   4.207
 8885WAT     H226898   8.917   7.209   4.344
 8886WAT      O26899   4.702   3.993   6.986
 8886WAT     H126900   4.788   3.989   7.037
 8886WAT     H226901   4.636   4.048   7.037
 8887WAT      O26902   0.315   1.889   6.172
 8887WAT     H126903   0.269   1.843   6.096
 8887WAT     H226904   0.364   1.821   6.228
 8888WAT      O26905   5.099   2.516   2.209
 8888WAT     H126906   5.140   2.585   2.268
 8888WAT     H226907   5.000   2.523   2.213
 8889WAT      O26908   5.293   9.524   1.012
 8889WAT     H126909   5.324   9.618   1.026
 8889WAT     H226910   5.197   9.524   0.986
 8890WAT      O26911   5.549   7.391   1.539
 8890WAT     H126912   5.606   7.470   1.516
 8890WAT     H226913   5.457   7.422   1.563
 8891WAT      O26914   7.426   4.007   0.715
 8891WAT     H126915   7.418   3.929   0.652
 8891WAT     H226916   7.426   4.092   0.662
 8892WAT      O26917   0.825   9.533   9.652
 8892WAT     H126918   0.923   9.538   9.669
 8892WAT     H226919   0.775   9.578   9.726
 8893WAT      O26920   5.976   8.185   5.033
 8893WAT     H126921   6.001   8.114   4.967
 8893WAT     H226922   5.920   8.145   5.106
 8894WAT      O26923   1.380   5.499   3.406
 8894WAT     H126924   1.473   5.476   3.377
 8894WAT     H226925   1.333   5.545   3.331
 8895WAT      O26926   5.291   7.876   4.449
 8895WAT     H126927   5.231   7.931   4.508
 8895WAT     H226928   5.330   7.802   4.503
 8896WAT      O26929   4.999   8.075   1.455
 8896WAT     H126930   4.928   8.006   1.440
 8896WAT     H226931   5.022   8.119   1.368
 8897WAT      O26932   2.287   9.440   2.425
 8897WAT     H126933   2.200   9.488   2.433
 8897WAT     H226934   2.322   9.420   2.517
 8898WAT      O26935   9.195   3.169   3.874
 8898WAT     H126936   9.246   3.254   3.880
 8898WAT     H226937   9.253   3.098   3.832
 8899WAT      O26938   4.174   1.488   1.927
 8899WAT     H126939   4.198   1.489   1.830
 8899WAT     H226940   4.080   1.457   1.939
 8900WAT      O26941   2.371   5.569   4.643
 8900WAT     H126942   2.320   5.640   4.690
 8900WAT     H226943   2.365   5.582   4.544
 8901WAT      O26944   0.792   8.679   3.006
 8901WAT     H126945   0.763   8.588   2.978
 8901WAT     H226946   0.838   8.725   2.929
 8902WAT      O26947   1.192   7.968   2.326
 8902WAT     H126948   1.192   7.951   2.424
 8902WAT     H226949   1.226   8.061   2.308
 8903WAT      O26950   2.917   2.034   8.676
 8903WAT     H126951   2.970   2.086   8.743
 8903WAT     H226952   2.821   2.034   8.702
 8904WAT      O26953   0.169   9.420   4.110
 8904WAT     H126954   0.080   9.378   4.128
 8904WAT     H226955   0.157   9.501   4.053
 8905WAT      O26956   1.536   9.032   8.854
 8905WAT     H126957   1.598   8.955   8.841
 8905WAT     H226958   1.572   9.112   8.805
 8906WAT      O26959   1.591   4.862   5.514
 8906WAT     H126960   1.629   4.878   5.423
 8906WAT     H226961   1.582   4.949   5.562
 8907WAT      O26962   9.429   9.266   2.466
 8907WAT     H126963   9.493   9.268   2.390
 8907WAT     H226964   9.357   9.334   2.450
 8908WAT      O26965   3.705   1.425   6.816
 8908WAT     H126966   3.722   1.524   6.821
 8908WAT     H226967   3.683   1.391   6.907
 8909WAT      O26968   4.642   7.333   0.914
 8909WAT     H126969   4.565   7.317   0.853
 8909WAT     H226970   4.640   7.267   0.989
 8910WAT      O26971   3.832   7.778   3.962
 8910WAT     H126972   3.869   7.718   3.891
 8910WAT     H226973   3.736   7.797   3.942
 8911WAT      O26974   3.372   8.225   8.910
 8911WAT     H126975   3.342   8.130   8.903
 8911WAT     H226976   3.329   8.268   8.989
 8912WAT      O26977   8.937   2.768   4.037
 8912WAT     H126978   8.881   2.849   4.055
 8912WAT     H226979   8.934   2.746   3.940
 8913WAT      O26980   3.688   4.444   2.121
 8913WAT     H126981   3.645   4.504   2.053
 8913WAT     H226982   3.618   4.383   2.160
 8914WAT      O26983   6.239   1.631   8.230
 8914WAT     H126984   6.242   1.658   8.134
 8914WAT     H226985   6.177   1.692   8.280
 8915WAT      O26986   6.211   7.755   4.766
 8915WAT     H126987   6.162   7.818   4.828
 8915WAT     H226988   6.239   7.805   4.684
 8916WAT      O26989   1.958   3.975   7.505
 8916WAT     H126990   1.949   3.902   7.437
 8916WAT     H226991   2.046   4.022   7.492
 8917WAT      O26992   6.818   1.105   6.154
 8917WAT     H126993   6.799   1.201   6.133
 8917WAT     H226994   6.894   1.100   6.219
 8918WAT      O26995   1.607   5.904   9.646
 8918WAT     H126996   1.702   5.873   9.637
 8918WAT     H226997   1.545   5.832   9.615
 8919WAT      O26998   6.470   9.453   9.762
 8919WAT     H126999   6.384   9.489   9.799
 8919WAT     H227000   6.543   9.519   9.779
 8920WAT      O27001   0.922   4.074   7.983
 8920WAT     H127002   0.915   3.993   8.041
 8920WAT     H227003   0.898   4.049   7.889
 8921WAT      O27004   1.855   3.204   9.178
 8921WAT     H127005   1.892   3.186   9.087
 8921WAT     H227006   1.755   3.204   9.174
 8922WAT      O27007   3.160   9.540   5.030
 8922WAT     H127008   3.071   9.524   4.987
 8922WAT     H227009   3.228   9.559   4.959
 8923WAT      O27010   6.835   7.425   8.539
 8923WAT     H127011   6.909   7.361   8.522
 8923WAT     H227012   6.867   7.518   8.526
 8924WAT      O27013   5.302   0.890   4.225
 8924WAT     H127014   5.286   0.901   4.127
 8924WAT     H227015   5.395   0.917   4.248
 8925WAT      O27016   8.216   3.637   8.025
 8925WAT     H127017   8.201   3.625   8.123
 8925WAT     H227018   8.251   3.552   7.986
 8926WAT      O27019   6.709   6.540   3.861
 8926WAT     H127020   6.729   6.626   3.815
 8926WAT     H227021   6.658   6.559   3.946
 8927WAT      O27022   1.528   5.827   8.131
 8927WAT     H127023   1.461   5.802   8.201
 8927WAT     H227024   1.597   5.754   8.123
 8928WAT      O27025   0.723   6.030   0.540
 8928WAT     H127026   0.645   6.068   0.589
 8928WAT     H227027   0.753   6.094   0.469
 8929WAT      O27028   9.420   7.024   9.237
 8929WAT     H127029   9.504   7.004   9.288
 8929WAT     H227030   9.352   6.954   9.255
 8930WAT      O27031   6.748   6.399   0.269
 8930WAT     H127032   6.720   6.311   0.231
 8930WAT     H227033   6.809   6.383   0.347
 8931WAT      O27034   0.441   0.857   0.705
 8931WAT     H127035   0.506   0.791   0.666
 8931WAT     H227036   0.489   0.914   0.772
 8932WAT      O27037   6.500   1.567   0.780
 8932WAT     H127038   6.552   1.482   0.781
 8932WAT     H227039   6.445   1.571   0.697
 8933WAT      O27040   8.181   0.517   0.146
 8933WAT     H127041   8.189   0.608   0.186
 8933WAT     H227042   8.113   0.464   0.197
 8934WAT      O27043   2.361   2.206   4.968
 8934WAT     H127044   2.300   2.223   5.045
 8934WAT     H227045   2.314   2.227   4.883
 8935WAT      O27046   5.005   9.473   6.040
 8935WAT     H127047   5.105   9.483   6.043
 8935WAT     H227048   4.971   9.454   6.132
 8936WAT      O27049   9.886   2.428   7.709
 8936WAT     H127050   9.817   2.386   7.767
 8936WAT     H227051   9.949   2.357   7.675
 8937WAT      O27052   6.215   7.169   3.577
 8937WAT     H127053   6.272   7.175   3.495
 8937WAT     H227054   6.121   7.148   3.550
 8938WAT      O27055   6.376   6.939   1.726
 8938WAT     H127056   6.280   6.913   1.719
 8938WAT     H227057   6.407   6.979   1.640
 8939WAT      O27058   4.748   1.102   7.003
 8939WAT     H127059   4.807   1.023   7.018
 8939WAT     H227060   4.751   1.129   6.907
 8940WAT      O27061   0.174   1.452   6.162
 8940WAT     H127062   0.127   1.365   6.147
 8940WAT     H227063   0.252   1.437   6.224
 8941WAT      O27064   7.151   2.195   9.885
 8941WAT     H127065   7.142   2.277   9.829
 8941WAT     H227066   7.241   2.192   9.927
 8942WAT      O27067   3.110   6.589   5.580
 8942WAT     H127068   3.065   6.509   5.619
 8942WAT     H227069   3.209   6.583   5.597
 8943WAT      O27070   0.926   2.740   0.720
 8943WAT     H127071   0.933   2.696   0.810
 8943WAT     H227072   0.994   2.813   0.714
 8944WAT      O27073   4.077   6.015   3.746
 8944WAT     H127074   4.034   5.935   3.788
 8944WAT     H227075   4.130   5.986   3.666
 8945WAT      O27076   3.274   5.419   4.235
 8945WAT     H127077   3.244   5.324   4.241
 8945WAT     H227078   3.370   5.422   4.207
 8946WAT      O27079   9.777   9.238   3.240
 8946WAT     H127080   9.741   9.271   3.153
 8946WAT     H227081   9.779   9.312   3.307
 8947WAT      O27082   3.492   3.055   0.011
 8947WAT     H127083   3.515   2.963  -0.021
 8947WAT     H227084   3.464   3.111  -0.067
 8948WAT      O27085   3.091   7.734   4.014
 8948WAT     H127086   3.019   7.685   4.062
 8948WAT     H227087   3.138   7.796   4.077
 8949WAT      O27088   7.183   3.349   1.227
 8949WAT     H127089   7.187   3.428   1.165
 8949WAT     H227090   7.097   3.300   1.212
 8950WAT      O27091   0.036   3.907   6.982
 8950WAT     H127092   0.032   3.832   7.048
 8950WAT     H227093  -0.054   3.947   6.971
 8951WAT      O27094   3.960   6.225   5.506
 8951WAT     H127095   4.022   6.294   5.470
 8951WAT     H227096   3.980   6.137   5.463
 8952WAT      O27097   4.410   4.810   2.783
 8952WAT     H127098   4.326   4.761   2.760
 8952WAT     H227099   4.470   4.751   2.837
 8953WAT      O27100   8.935   8.578   1.884
 8953WAT     H127101   8.851   8.566   1.937
 8953WAT     H227102   8.946   8.674   1.859
 8954WAT      O27103   9.766   7.732   7.297
 8954WAT     H127104   9.698   7.790   7.253
 8954WAT     H227105   9.855   7.777   7.296
 8955WAT      O27106   1.122   7.446   0.254
 8955WAT     H127107   1.218   7.470   0.263
 8955WAT     H227108   1.074   7.516   0.201
 8956WAT      O27109   4.672   7.860   2.220
 8956WAT     H127110   4.602   7.810   2.272
 8956WAT     H227111   4.647   7.862   2.123
 8957WAT      O27112   3.307   1.153   7.514
 8957WAT     H127113   3.220   1.131   7.470
 8957WAT     H227114   3.368   1.074   7.511
 8958WAT      O27115   6.272   1.345   0.419
 8958WAT     H127116   6.323   1.286   0.482
 8958WAT     H227117   6.180   1.308   0.406
 8959WAT      O27118   4.321   1.990   4.767
 8959WAT     H127119   4.413   1.997   4.729
 8959WAT     H227120   4.259   1.953   4.698
 8960WAT      O27121   5.486   5.219   6.159
 8960WAT     H127122   5.564   5.227   6.221
 8960WAT     H227123   5.461   5.309   6.125
 8961WAT      O27124   1.739   6.455   5.839
 8961WAT     H127125   1.663   6.410   5.793
 8961WAT     H227126   1.704   6.526   5.901
 8962WAT      O27127   2.408   5.321   3.669
 8962WAT     H127128   2.418   5.345   3.572
 8962WAT     H227129   2.311   5.319   3.693
 8963WAT      O27130   8.387   9.417   7.074
 8963WAT     H127131   8.350   9.339   7.023
 8963WAT     H227132   8.315   9.486   7.086
 8964WAT      O27133   8.604   1.245   6.597
 8964WAT     H127134   8.631   1.244   6.693
 8964WAT     H227135   8.504   1.245   6.591
 8965WAT      O27136   6.919   5.822   4.795
 8965WAT     H127137   6.943   5.918   4.782
 8965WAT     H227138   6.820   5.813   4.807
 8966WAT      O27139   8.069   2.545   2.679
 8966WAT     H127140   8.062   2.480   2.754
 8966WAT     H227141   8.165   2.566   2.661
 8967WAT      O27142   6.694   0.355   8.709
 8967WAT     H127143   6.732   0.268   8.677
 8967WAT     H227144   6.752   0.430   8.679
 8968WAT      O27145   9.001   8.886   1.551
 8968WAT     H127146   9.085   8.907   1.501
 8968WAT     H227147   9.023   8.848   1.641
 8969WAT      O27148   1.307   9.116   4.184
 8969WAT     H127149   1.248   9.058   4.128
 8969WAT     H227150   1.395   9.129   4.137
 8970WAT      O27151   7.459   8.005   6.315
 8970WAT     H127152   7.554   8.026   6.290
 8970WAT     H227153   7.400   8.082   6.292
 8971WAT      O27154   7.152   4.910   9.715
 8971WAT     H127155   7.116   4.863   9.635
 8971WAT     H227156   7.224   4.974   9.687
 8972WAT      O27157   2.513   6.101   8.325
 8972WAT     H127158   2.468   6.128   8.410
 8972WAT     H227159   2.552   6.182   8.281
 8973WAT      O27160   0.375   8.552   4.725
 8973WAT     H127161   0.346   8.457   4.714
 8973WAT     H227162   0.467   8.562   4.687
 8974WAT      O27163   5.492   1.940   8.728
 8974WAT     H127164   5.554   1.914   8.802
 8974WAT     H227165   5.523   1.899   8.642
 8975WAT      O27166   9.257   2.837   7.616
 8975WAT     H127167   9.265   2.937   7.610
 8975WAT     H227168   9.195   2.804   7.545
 8976WAT      O27169   1.155   5.917   4.948
 8976WAT     H127170   1.133   5.984   5.019
 8976WAT     H227171   1.187   5.965   4.866
 8977WAT      O27172   1.965   5.891   9.520
 8977WAT     H127173   1.960   5.908   9.422
 8977WAT     H227174   1.986   5.977   9.568
 8978WAT      O27175   8.889   0.972   4.491
 8978WAT     H127176   8.874   0.876   4.467
 8978WAT     H227177   8.905   0.979   4.590
 8979WAT      O27178   3.354   4.958   6.139
 8979WAT     H127179   3.284   4.930   6.074
 8979WAT     H227180   3.441   4.915   6.116
 8980WAT      O27181   7.549   2.433   6.341
 8980WAT     H127182   7.517   2.352   6.390
 8980WAT     H227183   7.481   2.459   6.273
 8981WAT      O27184   7.714   9.446   5.845
 8981WAT     H127185   7.749   9.383   5.776
 8981WAT     H227186   7.785   9.463   5.914
 8982WAT      O27187   2.018   3.411   7.726
 8982WAT     H127188   1.985   3.479   7.791
 8982WAT     H227189   1.971   3.324   7.742
 8983WAT      O27190   8.645   0.525   7.003
 8983WAT     H127191   8.700   0.545   7.084
 8983WAT     H227192   8.675   0.582   6.927
 8984WAT      O27193   9.055   9.405   0.400
 8984WAT     H127194   9.000   9.451   0.469
 8984WAT     H227195   9.151   9.404   0.430
 8985WAT      O27196   5.458   5.963   1.532
 8985WAT     H127197   5.544   6.002   1.565
 8985WAT     H227198   5.454   5.866   1.557
 8986WAT      O27199   8.067   9.377   3.609
 8986WAT     H127200   8.065   9.278   3.594
 8986WAT     H227201   8.011   9.421   3.539
 8987WAT      O27202   5.630   2.859   5.995
 8987WAT     H127203   5.673   2.791   6.055
 8987WAT     H227204   5.582   2.927   6.050
 8988WAT      O27205   8.632   9.298   1.747
 8988WAT     H127206   8.596   9.220   1.799
 8988WAT     H227207   8.612   9.286   1.650
 8989WAT      O27208   7.706   9.244   3.737
 8989WAT     H127209   7.718   9.145   3.749
 8989WAT     H227210   7.611   9.263   3.713
 8990WAT      O27211   1.393   5.037   3.954
 8990WAT     H127212   1.411   4.946   3.918
 8990WAT     H227213   1.460   5.102   3.916
 8991WAT      O27214   6.889   8.793   6.697
 8991WAT     H127215   6.861   8.887   6.677
 8991WAT     H227216   6.984   8.780   6.668
 8992WAT      O27217   9.479   4.275   4.366
 8992WAT     H127218   9.380   4.271   4.349
 8992WAT     H227219   9.528   4.251   4.283
 8993WAT      O27220   5.451   9.188   8.456
 8993WAT     H127221   5.449   9.242   8.540
 8993WAT     H227222   5.425   9.094   8.477
 8994WAT      O27223   3.685   2.661   3.361
 8994WAT     H127224   3.675   2.691   3.456
 8994WAT     H227225   3.606   2.692   3.308
 8995WAT      O27226   2.783   7.683   3.301
 8995WAT     H127227   2.822   7.631   3.225
 8995WAT     H227228   2.685   7.697   3.285
 8996WAT      O27229   6.886   3.595   6.370
 8996WAT     H127230   6.951   3.519   6.366
 8996WAT     H227231   6.794   3.560   6.380
 8997WAT      O27232   7.074   6.635   5.984
 8997WAT     H127233   7.129   6.552   5.971
 8997WAT     H227234   7.023   6.654   5.900
 8998WAT      O27235   3.354   7.330   4.529
 8998WAT     H127236   3.271   7.286   4.496
 8998WAT     H227237   3.379   7.405   4.468
 8999WAT      O27238   6.924   5.571   8.470
 8999WAT     H127239   6.862   5.596   8.544
 8999WAT     H227240   6.889   5.607   8.383
 9000WAT      O27241   4.275   6.066   5.945
 9000WAT     H127242   4.290   6.084   6.042
 9000WAT     H227243   4.180   6.084   5.921
 9001WAT      O27244   1.494   6.385   7.987
 9001WAT     H127245   1.425   6.334   7.935
 9001WAT     H227246   1.574   6.402   7.929
 9002WAT      O27247   6.073   4.212   6.939
 9002WAT     H127248   6.001   4.265   6.893
 9002WAT     H227249   6.110   4.144   6.875
 9003WAT      O27250   2.813   7.404   1.503
 9003WAT     H127251   2.907   7.386   1.473
 9003WAT     H227252   2.813   7.482   1.566
 9004WAT      O27253   0.290   5.715   1.475
 9004WAT     H127254   0.319   5.661   1.553
 9004WAT     H227255   0.311   5.811   1.490
 9005WAT      O27256   9.281   9.831   2.257
 9005WAT     H127257   9.294   9.837   2.158
 9005WAT     H227258   9.221   9.755   2.279
 9006WAT      O27259   0.349   0.746   0.200
 9006WAT     H127260   0.406   0.818   0.240
 9006WAT     H227261   0.277   0.788   0.144
 9007WAT      O27262   3.375   9.619   2.035
 9007WAT     H127263   3.389   9.655   1.943
 9007WAT     H227264   3.326   9.532   2.030
 9008WAT      O27265   0.470   6.971   1.462
 9008WAT     H127266   0.380   6.946   1.496
 9008WAT     H227267   0.465   7.059   1.414
 9009WAT      O27268   3.677   4.993   9.593
 9009WAT     H127269   3.737   5.037   9.660
 9009WAT     H227270   3.731   4.963   9.515
 9010WAT      O27271   7.621   2.140   0.498
 9010WAT     H127272   7.704   2.103   0.455
 9010WAT     H227273   7.620   2.240   0.486
 9011WAT      O27274   2.702   1.957   1.716
 9011WAT     H127275   2.716   2.016   1.795
 9011WAT     H227276   2.649   2.006   1.647
 9012WAT      O27277   8.518   6.280   1.707
 9012WAT     H127278   8.492   6.267   1.803
 9012WAT     H227279   8.614   6.255   1.695
 9013WAT      O27280   0.726   5.002   3.739
 9013WAT     H127281   0.814   4.974   3.778
 9013WAT     H227282   0.675   5.055   3.806
 9014WAT      O27283   0.102   6.861   0.786
 9014WAT     H127284   0.054   6.815   0.860
 9014WAT     H227285   0.037   6.884   0.714
 9015WAT      O27286   3.352   4.146   6.894
 9015WAT     H127287   3.408   4.071   6.859
 9015WAT     H227288   3.260   4.139   6.857
 9016WAT      O27289   3.387   0.847   6.703
 9016WAT     H127290   3.359   0.769   6.648
 9016WAT     H227291   3.397   0.927   6.644
 9017WAT      O27292   3.094   0.521   6.784
 9017WAT     H127293   3.090   0.564   6.874
 9017WAT     H227294   3.073   0.589   6.714
 9018WAT      O27295   6.615   1.740   9.512
 9018WAT     H127296   6.588   1.730   9.416
 9018WAT     H227297   6.540   1.784   9.563
 9019WAT      O27298   3.577   8.089   1.644
 9019WAT     H127299   3.642   8.131   1.581
 9019WAT     H227300   3.547   8.157   1.711
 9020WAT      O27301   8.389   5.945   8.228
 9020WAT     H127302   8.325   5.869   8.241
 9020WAT     H227303   8.341   6.032   8.234
 9021WAT      O27304   3.294   6.224   0.480
 9021WAT     H127305   3.245   6.297   0.529
 9021WAT     H227306   3.260   6.135   0.511
 9022WAT      O27307   2.684   8.273   9.012
 9022WAT     H127308   2.683   8.187   8.961
 9022WAT     H227309   2.706   8.255   9.107
 9023WAT      O27310   5.600   5.894   9.544
 9023WAT     H127311   5.589   5.845   9.630
 9023WAT     H227312   5.551   5.846   9.471
 9024WAT      O27313   3.194   4.318   1.186
 9024WAT     H127314   3.131   4.323   1.108
 9024WAT     H227315   3.282   4.283   1.154
 9025WAT      O27316   5.013   7.326   7.923
 9025WAT     H127317   5.015   7.257   7.851
 9025WAT     H227318   5.075   7.299   7.997
 9026WAT      O27319   2.639   0.903   0.465
 9026WAT     H127320   2.674   0.813   0.439
 9026WAT     H227321   2.697   0.942   0.536
 9027WAT      O27322   6.634   8.656   6.645
 9027WAT     H127323   6.707   8.724   6.650
 9027WAT     H227324   6.674   8.564   6.652
 9028WAT      O27325   0.685   5.603   5.330
 9028WAT     H127326   0.702   5.685   5.275
 9028WAT     H227327   0.772   5.566   5.362
 9029WAT      O27328   3.500   7.744   3.259
 9029WAT     H127329   3.499   7.838   3.293
 9029WAT     H227330   3.408   7.718   3.228
 9030WAT      O27331   9.123   7.729   9.073
 9030WAT     H127332   9.207   7.675   9.083
 9030WAT     H227333   9.146   7.818   9.033
 9031WAT      O27334   6.109   0.397   5.247
 9031WAT     H127335   6.201   0.398   5.286
 9031WAT     H227336   6.065   0.485   5.262
 9032WAT      O27337   3.015   3.046   0.326
 9032WAT     H127338   2.939   2.989   0.361
 9032WAT     H227339   3.089   2.986   0.294
 9033WAT      O27340   2.658   7.384   7.985
 9033WAT     H127341   2.658   7.286   7.966
 9033WAT     H227342   2.752   7.415   7.999
 9034WAT      O27343   9.856   9.019   1.735
 9034WAT     H127344   9.940   9.074   1.738
 9034WAT     H227345   9.833   8.988   1.827
 9035WAT      O27346   9.197   1.845   6.642
 9035WAT     H127347   9.176   1.770   6.579
 9035WAT     H227348   9.177   1.817   6.736
 9036WAT      O27349   2.282   1.037   3.248
 9036WAT     H127350   2.201   1.066   3.299
 9036WAT     H227351   2.364   1.062   3.299
 9037WAT      O27352   2.378   4.888   7.767
 9037WAT     H127353   2.303   4.870   7.704
 9037WAT     H227354   2.440   4.809   7.767
 9038WAT      O27355   2.086   0.952   6.120
 9038WAT     H127356   2.032   0.921   6.042
 9038WAT     H227357   2.057   1.044   6.146
 9039WAT      O27358   5.026   6.615   2.425
 9039WAT     H127359   4.965   6.694   2.431
 9039WAT     H227360   4.989   6.540   2.479
 9040WAT      O27361   0.950   6.939   5.422
 9040WAT     H127362   0.914   7.031   5.438
 9040WAT     H227363   0.896   6.895   5.350
 9041WAT      O27364   0.864   0.123   4.291
 9041WAT     H127365   0.792   0.110   4.359
 9041WAT     H227366   0.950   0.086   4.326
 9042WAT      O27367   8.010   8.191   4.411
 9042WAT     H127368   8.061   8.105   4.416
 9042WAT     H227369   7.978   8.204   4.317
 9043WAT      O27370   6.693   5.942   4.006
 9043WAT     H127371   6.641   6.014   3.960
 9043WAT     H227372   6.639   5.858   4.007
 9044WAT      O27373   4.841   3.352   6.618
 9044WAT     H127374   4.837   3.358   6.717
 9044WAT     H227375   4.918   3.407   6.584
 9045WAT      O27376   7.389   9.090   9.152
 9045WAT     H127377   7.440   9.069   9.236
 9045WAT     H227378   7.451   9.129   9.084
 9046WAT      O27379   3.454   3.138   3.015
 9046WAT     H127380   3.373   3.173   3.061
 9046WAT     H227381   3.447   3.157   2.917
 9047WAT      O27382   8.731   6.824   3.899
 9047WAT     H127383   8.829   6.813   3.916
 9047WAT     H227384   8.712   6.803   3.803
 9048WAT      O27385   7.593   4.596   0.232
 9048WAT     H127386   7.624   4.529   0.299
 9048WAT     H227387   7.498   4.578   0.209
 9049WAT      O27388   7.744   8.561   0.189
 9049WAT     H127389   7.825   8.503   0.183
 9049WAT     H227390   7.665   8.505   0.216
 9050WAT      O27391   3.046   6.370   6.796
 9050WAT     H127392   2.983   6.416   6.860
 9050WAT     H227393   3.004   6.368   6.705
 9051WAT      O27394   3.953   7.222   1.637
 9051WAT     H127395   3.890   7.161   1.686
 9051WAT     H227396   3.920   7.316   1.642
 9052WAT      O27397   8.282   0.812   1.626
 9052WAT     H127398   8.203   0.851   1.673
 9052WAT     H227399   8.303   0.867   1.545
 9053WAT      O27400   2.746   4.026   0.674
 9053WAT     H127401   2.667   4.006   0.732
 9053WAT     H227402   2.815   4.076   0.728
 9054WAT      O27403   6.074   2.619   2.465
 9054WAT     H127404   5.977   2.600   2.451
 9054WAT     H227405   6.107   2.568   2.544
 9055WAT      O27406   8.752   5.461   3.159
 9055WAT     H127407   8.827   5.520   3.130
 9055WAT     H227408   8.781   5.365   3.154
 9056WAT      O27409   3.435   6.121   0.048
 9056WAT     H127410   3.411   6.167   0.134
 9056WAT     H227411   3.397   6.028   0.049
 9057WAT      O27412   8.696   2.503   4.874
 9057WAT     H127413   8.634   2.446   4.820
 9057WAT     H227414   8.765   2.446   4.918
 9058WAT      O27415   6.927   3.675   0.940
 9058WAT     H127416   6.856   3.745   0.941
 9058WAT     H227417   6.893   3.593   0.893
 9059WAT      O27418   5.629   2.618   2.787
 9059WAT     H127419   5.633   2.706   2.834
 9059WAT     H227420   5.644   2.544   2.853
 9060WAT      O27421   2.922   7.010   1.113
 9060WAT     H127422   3.015   6.975   1.124
 9060WAT     H227423   2.870   6.949   1.052
 9061WAT      O27424   4.318   9.793   8.543
 9061WAT     H127425   4.355   9.778   8.635
 9061WAT     H227426   4.339   9.886   8.514
 9062WAT      O27427   8.786   3.501   6.146
 9062WAT     H127428   8.746   3.419   6.186
 9062WAT     H227429   8.723   3.578   6.157
 9063WAT      O27430   6.120   8.462   9.840
 9063WAT     H127431   6.161   8.371   9.832
 9063WAT     H227432   6.108   8.501   9.748
 9064WAT      O27433   0.519   6.272   7.016
 9064WAT     H127434   0.617   6.254   7.019
 9064WAT     H227435   0.502   6.369   7.032
 9065WAT      O27436   2.492   3.732   5.873
 9065WAT     H127437   2.569   3.680   5.836
 9065WAT     H227438   2.513   3.757   5.968
 9066WAT      O27439   0.743   2.056   6.449
 9066WAT     H127440   0.648   2.085   6.450
 9066WAT     H227441   0.792   2.098   6.526
 9067WAT      O27442   2.434   3.456   5.422
 9067WAT     H127443   2.484   3.371   5.407
 9067WAT     H227444   2.470   3.502   5.504
 9068WAT      O27445   2.872   7.756   7.912
 9068WAT     H127446   2.878   7.667   7.956
 9068WAT     H227447   2.838   7.824   7.978
 9069WAT      O27448   6.058   9.261   9.297
 9069WAT     H127449   6.076   9.178   9.243
 9069WAT     H227450   6.144   9.307   9.317
 9070WAT      O27451   4.248   7.027   7.662
 9070WAT     H127452   4.255   7.058   7.567
 9070WAT     H227453   4.328   6.971   7.685
 9071WAT      O27454   3.801   4.126   2.069
 9071WAT     H127455   3.802   4.028   2.050
 9071WAT     H227456   3.719   4.167   2.030
 9072WAT      O27457   2.481   4.658   3.361
 9072WAT     H127458   2.427   4.585   3.318
 9072WAT     H227459   2.500   4.729   3.293
 9073WAT      O27460   3.337   6.235   7.110
 9073WAT     H127461   3.250   6.207   7.151
 9073WAT     H227462   3.402   6.159   7.114
 9074WAT      O27463   4.768   1.383   1.219
 9074WAT     H127464   4.780   1.455   1.151
 9074WAT     H227465   4.720   1.306   1.178
 9075WAT      O27466   6.363   2.532   9.808
 9075WAT     H127467   6.331   2.440   9.787
 9075WAT     H227468   6.432   2.559   9.740
 9076WAT      O27469   7.324   7.526   6.311
 9076WAT     H127470   7.326   7.540   6.212
 9076WAT     H227471   7.245   7.574   6.350
 9077WAT      O27472   1.276   4.130   5.539
 9077WAT     H127473   1.207   4.201   5.524
 9077WAT     H227474   1.329   4.117   5.456
 9078WAT      O27475   3.835   4.655   2.505
 9078WAT     H127476   3.928   4.635   2.474
 9078WAT     H227477   3.831   4.650   2.605
 9079WAT      O27478   8.915   7.253   7.312
 9079WAT     H127479   8.925   7.168   7.364
 9079WAT     H227480   9.005   7.283   7.282
 9080WAT      O27481   6.782   5.434   9.650
 9080WAT     H127482   6.738   5.351   9.685
 9080WAT     H227483   6.869   5.448   9.698
 9081WAT      O27484   7.529   2.809   3.753
 9081WAT     H127485   7.596   2.738   3.774
 9081WAT     H227486   7.437   2.771   3.757
 9082WAT      O27487   5.616   0.365   4.498
 9082WAT     H127488   5.686   0.426   4.534
 9082WAT     H227489   5.568   0.410   4.423
 9083WAT      O27490   6.331   2.553   3.470
 9083WAT     H127491   6.234   2.538   3.489
 9083WAT     H227492   6.382   2.471   3.491
 9084WAT      O27493   3.174   0.166   2.688
 9084WAT     H127494   3.250   0.127   2.635
 9084WAT     H227495   3.181   0.135   2.783
 9085WAT      O27496   9.395   2.240   6.436
 9085WAT     H127497   9.397   2.319   6.374
 9085WAT     H227498   9.400   2.272   6.530
 9086WAT      O27499   7.187   6.512   0.701
 9086WAT     H127500   7.214   6.415   0.709
 9086WAT     H227501   7.088   6.520   0.714
 9087WAT      O27502   5.214   8.253   9.686
 9087WAT     H127503   5.295   8.222   9.736
 9087WAT     H227504   5.133   8.240   9.743
 9088WAT      O27505   6.217   9.230   4.854
 9088WAT     H127506   6.205   9.320   4.896
 9088WAT     H227507   6.275   9.238   4.773
 9089WAT      O27508   6.339   4.632   7.142
 9089WAT     H127509   6.240   4.641   7.137
 9089WAT     H227510   6.378   4.714   7.185
 9090WAT      O27511   3.770   6.205   9.143
 9090WAT     H127512   3.835   6.232   9.071
 9090WAT     H227513   3.762   6.279   9.210
 9091WAT      O27514   2.428   2.299   3.617
 9091WAT     H127515   2.339   2.258   3.595
 9091WAT     H227516   2.418   2.399   3.619
 9092WAT      O27517   0.542   6.990   8.821
 9092WAT     H127518   0.498   7.020   8.736
 9092WAT     H227519   0.473   6.961   8.887
 9093WAT      O27520   3.882   5.082   3.226
 9093WAT     H127521   3.920   5.174   3.216
 9093WAT     H227522   3.802   5.072   3.167
 9094WAT      O27523   2.781   3.538   3.724
 9094WAT     H127524   2.726   3.603   3.672
 9094WAT     H227525   2.824   3.473   3.661
 9095WAT      O27526   1.556   6.083   5.528
 9095WAT     H127527   1.633   6.053   5.471
 9095WAT     H227528   1.586   6.156   5.589
 9096WAT      O27529   6.123   4.338   9.712
 9096WAT     H127530   6.033   4.305   9.741
 9096WAT     H227531   6.119   4.364   9.615
 9097WAT      O27532   0.480   2.430   7.012
 9097WAT     H127533   0.493   2.399   7.107
 9097WAT     H227534   0.537   2.511   6.996
 9098WAT      O27535   9.124   2.019   9.820
 9098WAT     H127536   9.034   1.995   9.782
 9098WAT     H227537   9.124   2.115   9.846
 9099WAT      O27538   3.185   2.697   3.620
 9099WAT     H127539   3.264   2.641   3.647
 9099WAT     H227540   3.151   2.665   3.531
 9100WAT      O27541   7.112   2.920   7.122
 9100WAT     H127542   7.041   2.856   7.151
 9100WAT     H227543   7.089   3.012   7.152
 9101WAT      O27544   1.699   5.436   8.316
 9101WAT     H127545   1.718   5.486   8.401
 9101WAT     H227546   1.733   5.488   8.238
 9102WAT      O27547   3.127   2.948   3.370
 9102WAT     H127548   3.077   2.880   3.317
 9102WAT     H227549   3.222   2.919   3.381
 9103WAT      O27550   3.922   9.653   7.639
 9103WAT     H127551   3.930   9.695   7.548
 9103WAT     H227552   3.912   9.554   7.629
 9104WAT      O27553   9.254   6.387   7.598
 9104WAT     H127554   9.197   6.354   7.522
 9104WAT     H227555   9.260   6.487   7.594
 9105WAT      O27556   5.387   0.013   2.455
 9105WAT     H127557   5.357   0.089   2.397
 9105WAT     H227558   5.346  -0.072   2.423
 9106WAT      O27559   0.132   5.025   9.504
 9106WAT     H127560   0.218   5.048   9.550
 9106WAT     H227561   0.055   5.058   9.559
 9107WAT      O27562   2.292   8.838   4.208
 9107WAT     H127563   2.369   8.828   4.272
 9107WAT     H227564   2.327   8.869   4.120
 9108WAT      O27565   5.760   0.334   2.658
 9108WAT     H127566   5.706   0.372   2.583
 9108WAT     H227567   5.836   0.397   2.678
 9109WAT      O27568   7.923   5.238   0.418
 9109WAT     H127569   7.866   5.156   0.428
 9109WAT     H227570   8.007   5.213   0.370
 9110WAT      O27571   5.676   7.282   8.577
 9110WAT     H127572   5.705   7.323   8.490
 9110WAT     H227573   5.602   7.217   8.560
 9111WAT      O27574   0.083   3.044   3.606
 9111WAT     H127575   0.123   3.134   3.624
 9111WAT     H227576   0.140   2.974   3.649
 9112WAT      O27577   8.661   1.119   2.876
 9112WAT     H127578   8.756   1.117   2.844
 9112WAT     H227579   8.617   1.202   2.843
 9113WAT      O27580   2.369   8.058   4.327
 9113WAT     H127581   2.273   8.037   4.307
 9113WAT     H227582   2.374   8.126   4.399
 9114WAT      O27583   4.701   2.375   3.195
 9114WAT     H127584   4.695   2.356   3.097
 9114WAT     H227585   4.639   2.450   3.219
 9115WAT      O27586   7.417   8.007   3.559
 9115WAT     H127587   7.351   7.957   3.615
 9115WAT     H227588   7.403   7.983   3.463
 9116WAT      O27589   7.972   8.702   3.345
 9116WAT     H127590   7.928   8.686   3.257
 9116WAT     H227591   8.027   8.786   3.340
 9117WAT      O27592   2.171   7.480   6.797
 9117WAT     H127593   2.267   7.456   6.814
 9117WAT     H227594   2.117   7.461   6.878
 9118WAT      O27595   3.264   6.958   7.144
 9118WAT     H127596   3.192   7.027   7.150
 9118WAT     H227597   3.288   6.943   7.048
 9119WAT      O27598   0.808   0.193   5.039
 9119WAT     H127599   0.884   0.190   4.974
 9119WAT     H227600   0.817   0.119   5.105
 9120WAT      O27601   7.691   7.183   8.829
 9120WAT     H127602   7.755   7.255   8.855
 9120WAT     H227603   7.716   7.146   8.740
 9121WAT      O27604   8.099   4.423   2.352
 9121WAT     H127605   8.033   4.349   2.354
 9121WAT     H227606   8.066   4.496   2.293
 9122WAT      O27607   5.115   9.626   8.261
 9122WAT     H127608   5.094   9.627   8.164
 9122WAT     H227609   5.200   9.677   8.277
 9123WAT      O27610   3.616   3.715   9.315
 9123WAT     H127611   3.705   3.712   9.269
 9123WAT     H227612   3.562   3.635   9.290
 9124WAT      O27613   5.939   5.907   6.988
 9124WAT     H127614   5.988   5.840   7.044
 9124WAT     H227615   5.876   5.860   6.926
 9125WAT      O27616   0.059   8.396   2.675
 9125WAT     H127617   0.126   8.444   2.619
 9125WAT     H227618  -0.014   8.459   2.702
 9126WAT      O27619   6.648   7.799   3.696
 9126WAT     H127620   6.708   7.742   3.638
 9126WAT     H227621   6.553   7.787   3.667
 9127WAT      O27622   3.935   9.373   9.230
 9127WAT     H127623   4.025   9.344   9.262
 9127WAT     H227624   3.914   9.329   9.142
 9128WAT      O27625   8.977   4.869   8.713
 9128WAT     H127626   8.997   4.888   8.809
 9128WAT     H227627   8.878   4.879   8.698
 9129WAT      O27628   6.087   4.575   7.280
 9129WAT     H127629   6.131   4.502   7.228
 9129WAT     H227630   5.996   4.546   7.308
 9130WAT      O27631   5.097   9.826   7.164
 9130WAT     H127632   5.040   9.869   7.235
 9130WAT     H227633   5.038   9.787   7.093
 9131WAT      O27634   4.860   6.910   2.876
 9131WAT     H127635   4.807   6.912   2.791
 9131WAT     H227636   4.919   6.991   2.880
 9132WAT      O27637   5.984   5.160   9.677
 9132WAT     H127638   5.942   5.186   9.764
 9132WAT     H227639   6.080   5.134   9.693
 9133WAT      O27640   9.276   9.374   3.222
 9133WAT     H127641   9.252   9.391   3.318
 9133WAT     H227642   9.195   9.349   3.171
 9134WAT      O27643   0.329   2.699   5.269
 9134WAT     H127644   0.382   2.783   5.275
 9134WAT     H227645   0.267   2.703   5.191
 9135WAT      O27646   3.167   3.443   8.635
 9135WAT     H127647   3.230   3.367   8.615
 9135WAT     H227648   3.081   3.429   8.587
 9136WAT      O27649   5.681   0.230   0.420
 9136WAT     H127650   5.609   0.298   0.405
 9136WAT     H227651   5.765   0.258   0.373
 9137WAT      O27652   1.987   8.814   4.681
 9137WAT     H127653   2.012   8.874   4.604
 9137WAT     H227654   1.897   8.774   4.664
 9138WAT      O27655   3.339   9.524   6.458
 9138WAT     H127656   3.380   9.515   6.367
 9138WAT     H227657   3.404   9.569   6.520
 9139WAT      O27658   8.254   8.285   3.413
 9139WAT     H127659   8.275   8.320   3.504
 9139WAT     H227660   8.287   8.191   3.405
 9140WAT      O27661   8.933   4.522   2.975
 9140WAT     H127662   9.021   4.509   3.021
 9140WAT     H227663   8.892   4.433   2.955
 9141WAT      O27664   3.488   6.405   6.650
 9141WAT     H127665   3.548   6.325   6.647
 9141WAT     H227666   3.424   6.396   6.727
 9142WAT      O27667   8.144   6.223   5.985
 9142WAT     H127668   8.068   6.248   6.046
 9142WAT     H227669   8.151   6.290   5.911
 9143WAT      O27670   4.050   8.729   4.774
 9143WAT     H127671   3.952   8.722   4.790
 9143WAT     H227672   4.094   8.642   4.794
 9144WAT      O27673   7.679   3.070   9.643
 9144WAT     H127674   7.650   3.166   9.648
 9144WAT     H227675   7.661   3.026   9.731
 9145WAT      O27676   2.586   0.626   8.575
 9145WAT     H127677   2.490   0.644   8.595
 9145WAT     H227678   2.635   0.608   8.660
 9146WAT      O27679   8.737   3.180   0.342
 9146WAT     H127680   8.651   3.130   0.331
 9146WAT     H227681   8.727   3.272   0.303
 9147WAT      O27682   8.279   9.195   6.930
 9147WAT     H127683   8.293   9.202   6.832
 9147WAT     H227684   8.184   9.170   6.949
 9148WAT      O27685   5.737   4.042   1.758
 9148WAT     H127686   5.807   4.039   1.686
 9148WAT     H227687   5.674   3.965   1.745
 9149WAT      O27688   2.612   4.313   3.290
 9149WAT     H127689   2.708   4.313   3.261
 9149WAT     H227690   2.581   4.218   3.299
 9150WAT      O27691   7.370   9.521   4.596
 9150WAT     H127692   7.450   9.538   4.539
 9150WAT     H227693   7.312   9.603   4.595
 9151WAT      O27694   9.128   4.069   8.987
 9151WAT     H127695   9.195   4.141   8.966
 9151WAT     H227696   9.038   4.097   8.956
 9152WAT      O27697   9.215   3.893   4.892
 9152WAT     H127698   9.292   3.957   4.898
 9152WAT     H227699   9.155   3.904   4.971
 9153WAT      O27700   5.471   9.559   7.790
 9153WAT     H127701   5.435   9.536   7.700
 9153WAT     H227702   5.524   9.644   7.784
 9154WAT      O27703   3.278   6.894   9.004
 9154WAT     H127704   3.299   6.972   9.063
 9154WAT     H227705   3.256   6.927   8.912
 9155WAT      O27706   9.329   5.670   8.680
 9155WAT     H127707   9.365   5.617   8.757
 9155WAT     H227708   9.380   5.756   8.672
 9156WAT      O27709   0.346   5.315   0.161
 9156WAT     H127710   0.345   5.336   0.259
 9156WAT     H227711   0.262   5.348   0.119
 9157WAT      O27712   2.550   4.197   7.752
 9157WAT     H127713   2.514   4.193   7.846
 9157WAT     H227714   2.649   4.181   7.755
 9158WAT      O27715   4.973   1.422   4.014
 9158WAT     H127716   4.909   1.471   3.955
 9158WAT     H227717   4.934   1.414   4.105
 9159WAT      O27718   3.874   6.741   8.731
 9159WAT     H127719   3.801   6.802   8.761
 9159WAT     H227720   3.896   6.676   8.804
 9160WAT      O27721   4.608   0.872   2.578
 9160WAT     H127722   4.637   0.777   2.575
 9160WAT     H227723   4.548   0.887   2.657
 9161WAT      O27724   9.600   6.317   8.348
 9161WAT     H127725   9.658   6.398   8.355
 9161WAT     H227726   9.588   6.276   8.439
 9162WAT      O27727   8.567   5.114   0.694
 9162WAT     H127728   8.603   5.151   0.609
 9162WAT     H227729   8.590   5.176   0.770
 9163WAT      O27730   6.673   4.309   6.368
 9163WAT     H127731   6.610   4.243   6.327
 9163WAT     H227732   6.621   4.389   6.400
 9164WAT      O27733   7.895   0.224   9.649
 9164WAT     H127734   7.871   0.233   9.553
 9164WAT     H227735   7.932   0.133   9.666
 9165WAT      O27736   0.732   0.906   8.844
 9165WAT     H127737   0.733   0.917   8.943
 9165WAT     H227738   0.695   0.989   8.802
 9166WAT      O27739   6.963   5.957   2.072
 9166WAT     H127740   6.966   5.870   2.022
 9166WAT     H227741   7.038   6.015   2.041
 9167WAT      O27742   4.994   4.850   6.462
 9167WAT     H127743   4.950   4.789   6.528
 9167WAT     H227744   4.955   4.834   6.371
 9168WAT      O27745   8.986   2.675   4.302
 9168WAT     H127746   8.932   2.655   4.220
 9168WAT     H227747   9.028   2.591   4.336
 9169WAT      O27748   9.622   5.716   5.275
 9169WAT     H127749   9.569   5.688   5.355
 9169WAT     H227750   9.703   5.659   5.267
 9170WAT      O27751   5.042   6.208   0.015
 9170WAT     H127752   5.055   6.131   0.078
 9170WAT     H227753   5.058   6.294   0.064
 9171WAT      O27754   5.929   4.034   3.214
 9171WAT     H127755   5.907   4.081   3.300
 9171WAT     H227756   5.846   3.992   3.177
 9172WAT      O27757   3.311   1.529   3.271
 9172WAT     H127758   3.410   1.532   3.258
 9172WAT     H227759   3.279   1.435   3.265
 9173WAT      O27760   2.046   6.791   2.276
 9173WAT     H127761   2.145   6.804   2.275
 9173WAT     H227762   2.022   6.718   2.341
 9174WAT      O27763   9.211   5.377   5.772
 9174WAT     H127764   9.146   5.453   5.763
 9174WAT     H227765   9.302   5.412   5.792
 9175WAT      O27766   0.006   8.194   4.591
 9175WAT     H127767  -0.038   8.283   4.598
 9175WAT     H227768   0.005   8.164   4.495
 9176WAT      O27769   4.459   5.578   1.946
 9176WAT     H127770   4.366   5.570   1.980
 9176WAT     H227771   4.522   5.588   2.022
 9177WAT      O27772   5.907   2.394   3.686
 9177WAT     H127773   5.946   2.486   3.685
 9177WAT     H227774   5.930   2.349   3.773
 9178WAT      O27775   4.978   5.136   1.074
 9178WAT     H127776   4.949   5.066   1.008
 9178WAT     H227777   5.072   5.117   1.104
 9179WAT      O27778   1.024   0.778   0.245
 9179WAT     H127779   0.986   0.753   0.334
 9179WAT     H227780   0.950   0.806   0.184
 9180WAT      O27781   1.289   0.584   0.648
 9180WAT     H127782   1.251   0.621   0.733
 9180WAT     H227783   1.284   0.653   0.576
 9181WAT      O27784   9.141   2.294   2.952
 9181WAT     H127785   9.045   2.268   2.941
 9181WAT     H227786   9.150   2.393   2.939
 9182WAT      O27787   2.705   9.660   4.272
 9182WAT     H127788   2.639   9.714   4.325
 9182WAT     H227789   2.714   9.569   4.313
 9183WAT      O27790   0.298   8.880   8.208
 9183WAT     H127791   0.386   8.886   8.161
 9183WAT     H227792   0.228   8.848   8.143
 9184WAT      O27793   8.823   0.760   5.836
 9184WAT     H127794   8.915   0.722   5.828
 9184WAT     H227795   8.829   0.857   5.857
 9185WAT      O27796   3.265   7.177   9.342
 9185WAT     H127797   3.330   7.179   9.265
 9185WAT     H227798   3.205   7.098   9.332
 9186WAT      O27799   8.462   6.874   7.416
 9186WAT     H127800   8.562   6.884   7.413
 9186WAT     H227801   8.428   6.853   7.324
 9187WAT      O27802   2.301   7.612   1.868
 9187WAT     H127803   2.299   7.523   1.914
 9187WAT     H227804   2.291   7.685   1.935
 9188WAT      O27805   1.562   6.559   6.092
 9188WAT     H127806   1.489   6.522   6.150
 9188WAT     H227807   1.648   6.560   6.143
 9189WAT      O27808   7.148   0.606   7.938
 9189WAT     H127809   7.127   0.655   7.854
 9189WAT     H227810   7.067   0.558   7.971
 9190WAT      O27811   4.238   6.747   3.156
 9190WAT     H127812   4.251   6.746   3.255
 9190WAT     H227813   4.314   6.795   3.112
 9191WAT      O27814   4.570   4.452   2.605
 9191WAT     H127815   4.561   4.357   2.634
 9191WAT     H227816   4.512   4.469   2.526
 9192WAT      O27817   4.110   0.264   5.988
 9192WAT     H127818   4.081   0.169   5.995
 9192WAT     H227819   4.050   0.321   6.044
 9193WAT      O27820   1.649   3.570   4.891
 9193WAT     H127821   1.658   3.534   4.798
 9193WAT     H227822   1.694   3.660   4.897
 9194WAT      O27823   2.075   8.650   7.487
 9194WAT     H127824   2.044   8.725   7.429
 9194WAT     H227825   2.160   8.613   7.451
 9195WAT      O27826   5.374   4.482   0.578
 9195WAT     H127827   5.320   4.415   0.630
 9195WAT     H227828   5.471   4.473   0.603
 9196WAT      O27829   6.358   9.290   1.918
 9196WAT     H127830   6.287   9.333   1.974
 9196WAT     H227831   6.353   9.325   1.825
 9197WAT      O27832   0.662   6.135   6.112
 9197WAT     H127833   0.605   6.205   6.070
 9197WAT     H227834   0.605   6.071   6.163
 9198WAT      O27835   4.655   9.086   0.198
 9198WAT     H127836   4.624   8.993   0.180
 9198WAT     H227837   4.753   9.093   0.178
 9199WAT      O27838   4.566   0.167   8.027
 9199WAT     H127839   4.662   0.159   7.999
 9199WAT     H227840   4.510   0.190   7.948
 9200WAT      O27841   5.065   5.944   4.703
 9200WAT     H127842   4.988   5.982   4.652
 9200WAT     H227843   5.149   5.991   4.678
 9201WAT      O27844   6.679   7.519   2.561
 9201WAT     H127845   6.698   7.471   2.475
 9201WAT     H227846   6.687   7.454   2.637
 9202WAT      O27847   4.217   3.175   2.052
 9202WAT     H127848   4.225   3.086   2.007
 9202WAT     H227849   4.189   3.243   1.986
 9203WAT      O27850   1.117   1.548   3.466
 9203WAT     H127851   1.038   1.578   3.411
 9203WAT     H227852   1.127   1.449   3.458
 9204WAT      O27853   8.302   3.329   0.741
 9204WAT     H127854   8.367   3.351   0.668
 9204WAT     H227855   8.353   3.312   0.826
 9205WAT      O27856   1.965   5.871   5.293
 9205WAT     H127857   1.999   5.901   5.203
 9205WAT     H227858   1.934   5.776   5.286
 9206WAT      O27859   7.669   2.173   4.948
 9206WAT     H127860   7.743   2.110   4.928
 9206WAT     H227861   7.653   2.233   4.869
 9207WAT      O27862   2.133   0.729   7.771
 9207WAT     H127863   2.176   0.650   7.727
 9207WAT     H227864   2.058   0.762   7.714
 9208WAT      O27865   6.554   8.813   3.504
 9208WAT     H127866   6.606   8.808   3.589
 9208WAT     H227867   6.609   8.777   3.429
 9209WAT      O27868   1.072   1.093   7.750
 9209WAT     H127869   1.131   1.166   7.787
 9209WAT     H227870   1.076   1.014   7.811
 9210WAT      O27871   9.538   9.197   8.493
 9210WAT     H127872   9.531   9.295   8.475
 9210WAT     H227873   9.551   9.182   8.591
 9211WAT      O27874   4.738   2.920   1.481
 9211WAT     H127875   4.697   2.857   1.415
 9211WAT     H227876   4.669   2.986   1.511
 9212WAT      O27877   9.785   9.545   2.674
 9212WAT     H127878   9.733   9.593   2.745
 9212WAT     H227879   9.870   9.509   2.713
 9213WAT      O27880   6.365   9.332   0.462
 9213WAT     H127881   6.455   9.289   0.456
 9213WAT     H227882   6.376   9.430   0.478
 9214WAT      O27883   8.170   7.615   6.659
 9214WAT     H127884   8.206   7.666   6.582
 9214WAT     H227885   8.229   7.537   6.678
 9215WAT      O27886   3.471   5.855   1.578
 9215WAT     H127887   3.419   5.789   1.525
 9215WAT     H227888   3.445   5.848   1.675
 9216WAT      O27889   4.051   1.788   6.005
 9216WAT     H127890   4.118   1.718   5.980
 9216WAT     H227891   3.966   1.745   6.036
 9217WAT      O27892   1.251   7.143   4.457
 9217WAT     H127893   1.340   7.105   4.430
 9217WAT     H227894   1.248   7.240   4.434
 9218WAT      O27895   5.011   2.133   6.317
 9218WAT     H127896   5.067   2.172   6.389
 9218WAT     H227897   5.004   2.197   6.240
 9219WAT      O27898   5.509   5.248   1.096
 9219WAT     H127899   5.504   5.163   1.044
 9219WAT     H227900   5.494   5.229   1.193
 9220WAT      O27901   0.018   5.459   0.971
 9220WAT     H127902   0.080   5.387   1.004
 9220WAT     H227903   0.033   5.472   0.873
 9221WAT      O27904   4.124   3.021   8.888
 9221WAT     H127905   4.142   2.997   8.793
 9221WAT     H227906   4.061   3.099   8.891
 9222WAT      O27907   8.773   7.438   0.061
 9222WAT     H127908   8.767   7.497   0.142
 9222WAT     H227909   8.735   7.348   0.083
 9223WAT      O27910   1.864   9.153   2.335
 9223WAT     H127911   1.867   9.102   2.421
 9223WAT     H227912   1.833   9.247   2.353
 9224WAT      O27913   1.883   2.476   3.465
 9224WAT     H127914   1.903   2.562   3.511
 9224WAT     H227915   1.923   2.477   3.373
 9225WAT      O27916   5.587   3.350   0.515
 9225WAT     H127917   5.505   3.386   0.472
 9225WAT     H227918   5.621   3.272   0.462
 9226WAT      O27919   1.245   3.234   9.535
 9226WAT     H127920   1.164   3.233   9.594
 9226WAT     H227921   1.240   3.313   9.473
 9227WAT      O27922   5.116   9.404   8.431
 9227WAT     H127923   5.123   9.474   8.360
 9227WAT     H227924   5.157   9.438   8.515
 9228WAT      O27925   6.178   5.935   0.701
 9228WAT     H127926   6.174   6.035   0.702
 9228WAT     H227927   6.197   5.903   0.608
 9229WAT      O27928   3.840   2.557   5.793
 9229WAT     H127929   3.757   2.606   5.766
 9229WAT     H227930   3.846   2.555   5.893
 9230WAT      O27931   4.218   0.237   4.445
 9230WAT     H127932   4.155   0.163   4.421
 9230WAT     H227933   4.304   0.199   4.479
 9231WAT      O27934   5.607   6.301   5.840
 9231WAT     H127935   5.645   6.328   5.929
 9231WAT     H227936   5.578   6.206   5.844
 9232WAT      O27937   1.782   4.444   4.195
 9232WAT     H127938   1.773   4.471   4.291
 9232WAT     H227939   1.879   4.440   4.171
 9233WAT      O27940   4.481   7.944   8.925
 9233WAT     H127941   4.533   7.869   8.965
 9233WAT     H227942   4.399   7.960   8.979
 9234WAT      O27943   3.898   9.748   1.923
 9234WAT     H127944   3.987   9.792   1.909
 9234WAT     H227945   3.874   9.694   1.842
 9235WAT      O27946   4.990   9.049   0.505
 9235WAT     H127947   4.978   8.950   0.497
 9235WAT     H227948   4.912   9.095   0.463
 9236WAT      O27949   8.841   0.784   8.360
 9236WAT     H127950   8.902   0.831   8.424
 9236WAT     H227951   8.795   0.852   8.302
 9237WAT      O27952   7.747   9.290   5.386
 9237WAT     H127953   7.724   9.303   5.290
 9237WAT     H227954   7.697   9.211   5.422
 9238WAT      O27955   8.205   0.962   0.724
 9238WAT     H127956   8.144   0.886   0.745
 9238WAT     H227957   8.289   0.926   0.683
 9239WAT      O27958   7.158   3.558   5.252
 9239WAT     H127959   7.167   3.629   5.183
 9239WAT     H227960   7.152   3.468   5.207
 9240WAT      O27961   6.740   7.076   5.955
 9240WAT     H127962   6.827   7.113   5.988
 9240WAT     H227963   6.752   6.979   5.932
 9241WAT      O27964   1.159   8.057   0.162
 9241WAT     H127965   1.102   8.102   0.092
 9241WAT     H227966   1.255   8.079   0.146
 9242WAT      O27967   5.986   5.605   3.326
 9242WAT     H127968   6.040   5.661   3.263
 9242WAT     H227969   5.960   5.661   3.405
 9243WAT      O27970   5.152   1.688   8.296
 9243WAT     H127971   5.164   1.591   8.313
 9243WAT     H227972   5.241   1.728   8.272
 9244WAT      O27973   6.892   5.181   6.342
 9244WAT     H127974   6.805   5.229   6.333
 9244WAT     H227975   6.959   5.223   6.281
 9245WAT      O27976   9.672   7.051   0.044
 9245WAT     H127977   9.633   7.130   0.092
 9245WAT     H227978   9.654   7.060  -0.054
 9246WAT      O27979   7.068   9.095   4.905
 9246WAT     H127980   6.988   9.150   4.881
 9246WAT     H227981   7.089   9.107   5.002
 9247WAT      O27982   8.378   5.580   8.842
 9247WAT     H127983   8.332   5.615   8.761
 9247WAT     H227984   8.387   5.653   8.910
 9248WAT      O27985   7.904   9.820   7.099
 9248WAT     H127986   7.808   9.847   7.096
 9248WAT     H227987   7.944   9.828   7.007
 9249WAT      O27988   1.164   4.673   6.578
 9249WAT     H127989   1.243   4.653   6.636
 9249WAT     H227990   1.081   4.664   6.632
 9250WAT      O27991   2.663   5.463   1.197
 9250WAT     H127992   2.732   5.411   1.246
 9250WAT     H227993   2.635   5.413   1.115
 9251WAT      O27994   3.484   7.211   5.033
 9251WAT     H127995   3.403   7.230   5.088
 9251WAT     H227996   3.475   7.254   4.944
 9252WAT      O27997   7.936   5.370   5.252
 9252WAT     H127998   7.942   5.366   5.352
 9252WAT     H227999   8.026   5.387   5.214
 9253WAT      O28000   3.311   3.475   1.878
 9253WAT     H128001   3.230   3.465   1.936
 9253WAT     H228002   3.284   3.513   1.790
 9254WAT      O28003   7.048   1.583   4.103
 9254WAT     H128004   7.048   1.665   4.159
 9254WAT     H228005   7.139   1.568   4.065
 9255WAT      O28006   3.654   3.464   8.840
 9255WAT     H128007   3.741   3.415   8.846
 9255WAT     H228008   3.667   3.559   8.867
 9256WAT      O28009   0.690   3.562   3.109
 9256WAT     H128010   0.778   3.561   3.062
 9256WAT     H228011   0.693   3.498   3.186
 9257WAT      O28012   5.970   0.719   8.111
 9257WAT     H128013   6.049   0.765   8.070
 9257WAT     H228014   5.990   0.622   8.121
 9258WAT      O28015   6.212   0.909   6.500
 9258WAT     H128016   6.307   0.880   6.495
 9258WAT     H228017   6.160   0.868   6.425
 9259WAT      O28018   7.607   7.116   4.287
 9259WAT     H128019   7.700   7.131   4.320
 9259WAT     H228020   7.607   7.114   4.187
 9260WAT      O28021   8.903   7.572   8.961
 9260WAT     H128022   8.887   7.602   8.867
 9260WAT     H228023   8.971   7.632   9.004
 9261WAT      O28024   7.928   3.584   0.326
 9261WAT     H128025   7.844   3.542   0.292
 9261WAT     H228026   7.965   3.530   0.401
 9262WAT      O28027   8.281   0.807   2.603
 9262WAT     H128028   8.345   0.823   2.528
 9262WAT     H228029   8.261   0.893   2.649
 9263WAT      O28030   6.320   2.902   9.891
 9263WAT     H128031   6.335   2.867   9.798
 9263WAT     H228032   6.390   2.865   9.952
 9264WAT      O28033   8.709   4.197   0.107
 9264WAT     H128034   8.655   4.279   0.086
 9264WAT     H228035   8.797   4.225   0.145
 9265WAT      O28036   8.199   5.206   5.772
 9265WAT     H128037   8.123   5.261   5.738
 9265WAT     H228038   8.201   5.118   5.725
 9266WAT      O28039   8.312   6.408   6.991
 9266WAT     H128040   8.392   6.433   6.937
 9266WAT     H228041   8.268   6.327   6.951
 9267WAT      O28042   9.569   1.333   9.127
 9267WAT     H128043   9.621   1.370   9.050
 9267WAT     H228044   9.623   1.265   9.175
 9268WAT      O28045   8.992   4.860   0.578
 9268WAT     H128046   8.925   4.922   0.537
 9268WAT     H228047   9.030   4.801   0.507
 9269WAT      O28048   4.743   0.308   3.349
 9269WAT     H128049   4.735   0.275   3.255
 9269WAT     H228050   4.839   0.311   3.376
 9270WAT      O28051   2.986   4.462   6.568
 9270WAT     H128052   2.919   4.513   6.515
 9270WAT     H228053   2.949   4.444   6.660
 9271WAT      O28054   3.274   0.223   1.260
 9271WAT     H128055   3.343   0.151   1.254
 9271WAT     H228056   3.301   0.289   1.331
 9272WAT      O28057   3.315   5.781   9.497
 9272WAT     H128058   3.242   5.829   9.546
 9272WAT     H228059   3.350   5.707   9.554
 9273WAT      O28060   7.691   3.409   8.596
 9273WAT     H128061   7.635   3.453   8.666
 9273WAT     H228062   7.771   3.366   8.639
 9274WAT      O28063   6.960   3.546   7.700
 9274WAT     H128064   7.048   3.500   7.705
 9274WAT     H228065   6.960   3.613   7.626
 9275WAT      O28066   1.259   6.086   4.742
 9275WAT     H128067   1.357   6.103   4.736
 9275WAT     H228068   1.209   6.168   4.714
 9276WAT      O28069   7.511   3.800   7.656
 9276WAT     H128070   7.580   3.750   7.604
 9276WAT     H228071   7.548   3.828   7.744
 9277WAT      O28072   7.009   2.666   0.498
 9277WAT     H128073   7.086   2.637   0.555
 9277WAT     H228074   6.996   2.600   0.424
 9278WAT      O28075   2.203   3.158   9.390
 9278WAT     H128076   2.223   3.190   9.482
 9278WAT     H228077   2.273   3.093   9.361
 9279WAT      O28078   8.470   4.353   7.563
 9279WAT     H128079   8.555   4.402   7.541
 9279WAT     H228080   8.492   4.264   7.602
 9280WAT      O28081   8.241   2.919   8.209
 9280WAT     H128082   8.271   2.973   8.287
 9280WAT     H228083   8.216   2.827   8.240
 9281WAT      O28084   1.330   0.263   0.183
 9281WAT     H128085   1.350   0.178   0.231
 9281WAT     H228086   1.270   0.320   0.239
 9282WAT      O28087   3.134   8.209   3.365
 9282WAT     H128088   3.162   8.139   3.430
 9282WAT     H228089   3.049   8.181   3.320
 9283WAT      O28090   2.043   6.856   1.734
 9283WAT     H128091   2.070   6.951   1.744
 9283WAT     H228092   2.040   6.812   1.824
 9284WAT      O28093   7.701   0.896   1.667
 9284WAT     H128094   7.655   0.833   1.605
 9284WAT     H228095   7.638   0.922   1.740
 9285WAT      O28096   5.434   8.085   5.351
 9285WAT     H128097   5.401   8.168   5.395
 9285WAT     H228098   5.486   8.109   5.269
 9286WAT      O28099   8.117   4.679   0.919
 9286WAT     H128100   8.052   4.603   0.916
 9286WAT     H228101   8.098   4.742   0.843
 9287WAT      O28102   7.251   3.033   2.275
 9287WAT     H128103   7.247   3.087   2.191
 9287WAT     H228104   7.166   2.980   2.284
 9288WAT      O28105   2.122   2.285   6.953
 9288WAT     H128106   2.112   2.250   7.046
 9288WAT     H228107   2.038   2.267   6.902
 9289WAT      O28108   1.531   8.338   5.280
 9289WAT     H128109   1.550   8.359   5.184
 9289WAT     H228110   1.518   8.423   5.330
 9290WAT      O28111   2.779   0.093   3.323
 9290WAT     H128112   2.794   0.085   3.422
 9290WAT     H228113   2.750   0.186   3.301
 9291WAT      O28114   7.165   6.390   3.127
 9291WAT     H128115   7.146   6.296   3.157
 9291WAT     H228116   7.211   6.387   3.038
 9292WAT      O28117   2.530   3.032   9.577
 9292WAT     H128118   2.535   3.094   9.654
 9292WAT     H228119   2.619   3.025   9.533
 9293WAT      O28120   5.283   8.413   6.903
 9293WAT     H128121   5.264   8.381   6.811
 9293WAT     H228122   5.209   8.472   6.934
 9294WAT      O28123   5.192   6.908   2.363
 9294WAT     H128124   5.189   6.825   2.307
 9294WAT     H228125   5.250   6.976   2.320
 9295WAT      O28126   7.565   5.304   8.949
 9295WAT     H128127   7.552   5.391   8.902
 9295WAT     H228128   7.507   5.234   8.909
 9296WAT      O28129   2.214   7.280   9.741
 9296WAT     H128130   2.188   7.300   9.836
 9296WAT     H228131   2.249   7.363   9.698
 9297WAT      O28132   9.864   4.854   5.094
 9297WAT     H128133   9.842   4.760   5.120
 9297WAT     H228134   9.897   4.856   5.000
 9298WAT      O28135   5.836   9.410   8.141
 9298WAT     H128136   5.809   9.350   8.066
 9298WAT     H228137   5.851   9.355   8.224
 9299WAT      O28138   8.791   2.671   2.672
 9299WAT     H128139   8.718   2.637   2.612
 9299WAT     H228140   8.879   2.661   2.626
 9300WAT      O28141   1.916   5.447   9.663
 9300WAT     H128142   1.926   5.464   9.761
 9300WAT     H228143   2.002   5.468   9.617
 9301WAT      O28144   7.231   4.972   6.081
 9301WAT     H128145   7.256   4.938   6.171
 9301WAT     H228146   7.281   4.921   6.011
 9302WAT      O28147   4.558   9.291   9.659
 9302WAT     H128148   4.548   9.383   9.698
 9302WAT     H228149   4.492   9.229   9.701
 9303WAT      O28150   5.016   6.803   0.979
 9303WAT     H128151   5.093   6.844   1.028
 9303WAT     H228152   5.021   6.703   0.987
 9304WAT      O28153   0.738   2.547   4.471
 9304WAT     H128154   0.803   2.524   4.399
 9304WAT     H228155   0.658   2.592   4.431
 9305WAT      O28156   6.225   2.170   0.303
 9305WAT     H128157   6.283   2.158   0.223
 9305WAT     H228158   6.196   2.081   0.337
 9306WAT      O28159   6.375   6.146   5.427
 9306WAT     H128160   6.401   6.227   5.375
 9306WAT     H228161   6.289   6.164   5.476
 9307WAT      O28162   4.435   3.743   4.868
 9307WAT     H128163   4.467   3.710   4.957
 9307WAT     H228164   4.513   3.761   4.809
 9308WAT      O28165   0.847   2.068   0.328
 9308WAT     H128166   0.921   2.040   0.389
 9308WAT     H228167   0.770   2.004   0.336
 9309WAT      O28168   3.992   8.931   2.575
 9309WAT     H128169   3.898   8.909   2.601
 9309WAT     H228170   4.023   9.012   2.626
 9310WAT      O28171   6.679   8.458   9.061
 9310WAT     H128172   6.598   8.448   9.118
 9310WAT     H228173   6.757   8.415   9.106
 9311WAT      O28174   1.620   8.951   1.458
 9311WAT     H128175   1.617   8.869   1.400
 9311WAT     H228176   1.712   8.961   1.496
 9312WAT      O28177   7.200   7.838   9.288
 9312WAT     H128178   7.245   7.889   9.215
 9312WAT     H228179   7.219   7.883   9.376
 9313WAT      O28180   0.031   2.792   5.952
 9313WAT     H128181  -0.037   2.863   5.936
 9313WAT     H228182   0.015   2.716   5.889
 9314WAT      O28183   3.730   8.237   4.270
 9314WAT     H128184   3.788   8.314   4.241
 9314WAT     H228185   3.673   8.265   4.348
 9315WAT      O28186   0.941   1.943   2.494
 9315WAT     H128187   0.843   1.959   2.500
 9315WAT     H228188   0.986   2.023   2.454
 9316WAT      O28189   9.643   1.056   7.985
 9316WAT     H128190   9.591   1.101   7.914
 9316WAT     H228191   9.725   1.013   7.945
 9317WAT      O28192   9.483   0.121   1.711
 9317WAT     H128193   9.431   0.086   1.789
 9317WAT     H228194   9.508   0.216   1.728
 9318WAT      O28195   3.879   7.344   4.404
 9318WAT     H128196   3.940   7.401   4.349
 9318WAT     H228197   3.800   7.317   4.348
 9319WAT      O28198   1.727   0.918   3.773
 9319WAT     H128199   1.784   0.999   3.773
 9319WAT     H228200   1.679   0.910   3.685
 9320WAT      O28201   7.340   4.329   2.603
 9320WAT     H128202   7.419   4.362   2.654
 9320WAT     H228203   7.345   4.362   2.509
 9321WAT      O28204   5.562   3.264   7.826
 9321WAT     H128205   5.620   3.238   7.902
 9321WAT     H228206   5.603   3.234   7.740
 9322WAT      O28207   6.083   8.242   8.218
 9322WAT     H128208   6.094   8.296   8.135
 9322WAT     H228209   6.007   8.279   8.272
 9323WAT      O28210   4.417   7.346   8.308
 9323WAT     H128211   4.413   7.423   8.244
 9323WAT     H228212   4.325   7.309   8.322
 9324WAT      O28213   7.500   5.382   6.380
 9324WAT     H128214   7.595   5.355   6.367
 9324WAT     H228215   7.477   5.379   6.477
 9325WAT      O28216   2.155   1.616   6.039
 9325WAT     H128217   2.065   1.653   6.015
 9325WAT     H228218   2.148   1.566   6.125
 9326WAT      O28219   3.509   2.485   6.389
 9326WAT     H128220   3.574   2.485   6.464
 9326WAT     H228221   3.433   2.423   6.409
 9327WAT      O28222   4.524   5.477   0.137
 9327WAT     H128223   4.522   5.430   0.225
 9327WAT     H228224   4.513   5.576   0.152
 9328WAT      O28225   0.292   2.960   0.642
 9328WAT     H128226   0.334   2.970   0.732
 9328WAT     H228227   0.346   3.010   0.575
 9329WAT      O28228   8.271   2.440   3.206
 9329WAT     H128229   8.228   2.350   3.198
 9329WAT     H228230   8.339   2.437   3.279
 9330WAT      O28231   6.913   4.714   7.872
 9330WAT     H128232   6.891   4.707   7.969
 9330WAT     H228233   7.011   4.733   7.861
 9331WAT      O28234   0.195   4.477   8.701
 9331WAT     H128235   0.267   4.457   8.635
 9331WAT     H228236   0.216   4.431   8.788
 9332WAT      O28237   8.835   1.935   4.197
 9332WAT     H128238   8.782   1.851   4.198
 9332WAT     H228239   8.775   2.013   4.216
 9333WAT      O28240   7.998   1.201   7.590
 9333WAT     H128241   7.990   1.300   7.578
 9333WAT     H228242   7.911   1.158   7.569
 9334WAT      O28243   0.925   9.354   8.241
 9334WAT     H128244   0.850   9.373   8.178
 9334WAT     H228245   0.888   9.339   8.333
 9335WAT      O28246   5.913   0.512   3.913
 9335WAT     H128247   5.832   0.453   3.915
 9335WAT     H228248   5.889   0.598   3.868
 9336WAT      O28249   7.947   6.616   6.579
 9336WAT     H128250   8.004   6.550   6.628
 9336WAT     H228251   7.934   6.586   6.485
 9337WAT      O28252   9.040   4.816   8.189
 9337WAT     H128253   9.055   4.842   8.284
 9337WAT     H228254   8.944   4.791   8.175
 9338WAT      O28255   8.365   9.594   6.804
 9338WAT     H128256   8.360   9.646   6.719
 9338WAT     H228257   8.402   9.651   6.877
 9339WAT      O28258   4.954   9.629   1.145
 9339WAT     H128259   4.982   9.621   1.049
 9339WAT     H228260   4.888   9.703   1.154
 9340WAT      O28261   0.422   6.383   3.399
 9340WAT     H128262   0.346   6.323   3.374
 9340WAT     H228263   0.468   6.415   3.316
 9341WAT      O28264   8.791   9.118   5.158
 9341WAT     H128265   8.878   9.163   5.177
 9341WAT     H228266   8.792   9.081   5.065
 9342WAT      O28267   9.767   5.401   5.893
 9342WAT     H128268   9.822   5.372   5.815
 9342WAT     H228269   9.684   5.446   5.860
 9343WAT      O28270   0.953   7.768   5.286
 9343WAT     H128271   0.999   7.832   5.348
 9343WAT     H228272   0.945   7.679   5.329
 9344WAT      O28273   1.340   3.384   0.760
 9344WAT     H128274   1.310   3.370   0.666
 9344WAT     H228275   1.336   3.482   0.782
 9345WAT      O28276   6.583   1.130   3.197
 9345WAT     H128277   6.548   1.065   3.128
 9345WAT     H228278   6.543   1.220   3.181
 9346WAT      O28279   9.178   2.778   7.870
 9346WAT     H128280   9.200   2.779   7.773
 9346WAT     H228281   9.083   2.751   7.883
 9347WAT      O28282   8.399   3.512   9.564
 9347WAT     H128283   8.364   3.420   9.579
 9347WAT     H228284   8.484   3.507   9.511
 9348WAT      O28285   0.712   7.030   3.998
 9348WAT     H128286   0.616   7.049   4.017
 9348WAT     H228287   0.769   7.105   4.032
 9349WAT      O28288   5.464   3.674   0.144
 9349WAT     H128289   5.541   3.661   0.082
 9349WAT     H228290   5.481   3.752   0.204
 9350WAT      O28291   0.351   1.946   2.451
 9350WAT     H128292   0.403   1.886   2.390
 9350WAT     H228293   0.305   2.017   2.397
 9351WAT      O28294   4.213   4.794   0.047
 9351WAT     H128295   4.268   4.775   0.129
 9351WAT     H228296   4.207   4.712  -0.009
 9352WAT      O28297   4.555   1.178   1.475
 9352WAT     H128298   4.489   1.150   1.543
 9352WAT     H228299   4.613   1.101   1.449
 9353WAT      O28300   6.652   9.675   8.918
 9353WAT     H128301   6.619   9.616   8.991
 9353WAT     H228302   6.631   9.770   8.940
 9354WAT      O28303   2.882   7.128   1.759
 9354WAT     H128304   2.939   7.197   1.803
 9354WAT     H228305   2.891   7.135   1.660
 9355WAT      O28306   3.240   1.688   1.206
 9355WAT     H128307   3.302   1.734   1.142
 9355WAT     H228308   3.245   1.590   1.192
 9356WAT      O28309   4.519   6.901   5.348
 9356WAT     H128310   4.453   6.877   5.420
 9356WAT     H228311   4.478   6.967   5.285
 9357WAT      O28312   7.753   1.006   2.225
 9357WAT     H128313   7.672   1.001   2.284
 9357WAT     H228314   7.831   0.964   2.272
 9358WAT      O28315   7.091   7.493   7.204
 9358WAT     H128316   7.039   7.441   7.136
 9358WAT     H228317   7.064   7.463   7.296
 9359WAT      O28318   9.800   5.840   6.290
 9359WAT     H128319   9.876   5.900   6.314
 9359WAT     H228320   9.753   5.811   6.374
 9360WAT      O28321   1.859   0.257   3.250
 9360WAT     H128322   1.895   0.252   3.344
 9360WAT     H228323   1.911   0.195   3.192
 9361WAT      O28324   0.648   2.477   1.601
 9361WAT     H128325   0.644   2.385   1.641
 9361WAT     H228326   0.641   2.470   1.501
 9362WAT      O28327   3.943   7.461   0.835
 9362WAT     H128328   3.866   7.422   0.885
 9362WAT     H228329   3.972   7.397   0.764
 9363WAT      O28330   4.708   3.513   1.480
 9363WAT     H128331   4.722   3.612   1.483
 9363WAT     H228332   4.762   3.474   1.406
 9364WAT      O28333   1.475   1.662   9.556
 9364WAT     H128334   1.439   1.600   9.485
 9364WAT     H228335   1.569   1.636   9.578
 9365WAT      O28336   3.214   6.356   7.493
 9365WAT     H128337   3.132   6.366   7.437
 9365WAT     H228338   3.289   6.410   7.453
 9366WAT      O28339   9.525   5.398   3.280
 9366WAT     H128340   9.584   5.320   3.299
 9366WAT     H228341   9.554   5.443   3.196
 9367WAT      O28342   3.749   8.301   0.921
 9367WAT     H128343   3.722   8.251   0.839
 9367WAT     H228344   3.834   8.351   0.903
 9368WAT      O28345   0.469   7.861   9.632
 9368WAT     H128346   0.463   7.872   9.731
 9368WAT     H228347   0.561   7.882   9.601
 9369WAT      O28348   5.242   7.956   6.024
 9369WAT     H128349   5.305   8.002   5.961
 9369WAT     H228350   5.217   8.019   6.098
 9370WAT      O28351   4.367   8.345   4.561
 9370WAT     H128352   4.357   8.300   4.472
 9370WAT     H228353   4.428   8.290   4.618
 9371WAT      O28354   2.579   1.745   4.148
 9371WAT     H128355   2.494   1.726   4.097
 9371WAT     H228356   2.624   1.824   4.108
 9372WAT      O28357   4.374   6.704   0.225
 9372WAT     H128358   4.331   6.721   0.313
 9372WAT     H228359   4.305   6.705   0.153
 9373WAT      O28360   4.902   1.529   2.617
 9373WAT     H128361   4.910   1.435   2.651
 9373WAT     H228362   4.991   1.574   2.623
 9374WAT      O28363   6.593   3.807   6.533
 9374WAT     H128364   6.502   3.837   6.502
 9374WAT     H228365   6.590   3.709   6.553
 9375WAT      O28366   3.884   7.972   9.598
 9375WAT     H128367   3.832   7.892   9.570
 9375WAT     H228368   3.918   8.020   9.518
 9376WAT      O28369   5.310   5.801   6.586
 9376WAT     H128370   5.218   5.784   6.549
 9376WAT     H228371   5.358   5.714   6.597
 9377WAT      O28372   2.682   1.485   8.324
 9377WAT     H128373   2.666   1.575   8.284
 9377WAT     H228374   2.614   1.467   8.395
 9378WAT      O28375   0.074   3.099   4.862
 9378WAT     H128376   0.006   3.031   4.837
 9378WAT     H228377   0.163   3.055   4.875
 9379WAT      O28378   9.027   2.293   7.768
 9379WAT     H128379   9.091   2.315   7.842
 9379WAT     H228380   8.933   2.299   7.802
 9380WAT      O28381   7.816   5.154   8.992
 9380WAT     H128382   7.841   5.067   8.950
 9380WAT     H228383   7.719   5.174   8.973
 9381WAT      O28384   6.957   1.848   8.717
 9381WAT     H128385   6.869   1.847   8.668
 9381WAT     H228386   6.980   1.942   8.742
 9382WAT      O28387   3.206   2.988   8.602
 9382WAT     H128388   3.143   2.988   8.524
 9382WAT     H228389   3.217   3.082   8.635
 9383WAT      O28390   9.595   0.348   2.552
 9383WAT     H128391   9.577   0.432   2.601
 9383WAT     H228392   9.603   0.368   2.454
 9384WAT      O28393   4.500   8.095   2.922
 9384WAT     H128394   4.420   8.076   2.864
 9384WAT     H228395   4.528   8.190   2.911
 9385WAT      O28396   5.876   3.785   3.476
 9385WAT     H128397   5.973   3.778   3.452
 9385WAT     H228398   5.865   3.850   3.551
 9386WAT      O28399   5.301   8.600   4.352
 9386WAT     H128400   5.401   8.595   4.344
 9386WAT     H228401   5.274   8.576   4.444
 9387WAT      O28402   6.277   5.355   6.245
 9387WAT     H128403   6.234   5.443   6.224
 9387WAT     H228404   6.327   5.323   6.164
 9388WAT      O28405   0.357   9.031   5.627
 9388WAT     H128406   0.323   9.040   5.721
 9388WAT     H228407   0.376   8.935   5.608
 9389WAT      O28408   8.019   6.456   4.748
 9389WAT     H128409   8.113   6.488   4.734
 9389WAT     H228410   7.957   6.534   4.748
 9390WAT      O28411   2.738   1.058   6.604
 9390WAT     H128412   2.653   1.035   6.651
 9390WAT     H228413   2.718   1.117   6.526
 9391WAT      O28414   0.686   1.689   1.182
 9391WAT     H128415   0.586   1.689   1.185
 9391WAT     H228416   0.717   1.732   1.097
 9392WAT      O28417   3.294   1.489   3.582
 9392WAT     H128418   3.196   1.486   3.603
 9392WAT     H228419   3.307   1.527   3.490
 9393WAT      O28420   6.823   4.467   0.768
 9393WAT     H128421   6.797   4.382   0.813
 9393WAT     H228422   6.906   4.503   0.809
 9394WAT      O28423   8.377   2.620   8.068
 9394WAT     H128424   8.463   2.570   8.072
 9394WAT     H228425   8.336   2.623   8.159
 9395WAT      O28426   3.765   9.747   3.753
 9395WAT     H128427   3.713   9.798   3.684
 9395WAT     H228428   3.759   9.795   3.841
 9396WAT      O28429   9.024   6.923   9.098
 9396WAT     H128430   9.054   7.010   9.058
 9396WAT     H228431   8.935   6.898   9.060
 9397WAT      O28432   2.565   4.535   9.746
 9397WAT     H128433   2.503   4.576   9.680
 9397WAT     H228434   2.621   4.466   9.700
 9398WAT      O28435   3.919   4.264   5.497
 9398WAT     H128436   3.942   4.210   5.578
 9398WAT     H228437   3.848   4.330   5.519
 9399WAT      O28438   2.151   7.982   3.015
 9399WAT     H128439   2.055   7.976   3.041
 9399WAT     H228440   2.159   8.038   2.933
 9400WAT      O28441   8.639   1.607   1.463
 9400WAT     H128442   8.542   1.633   1.461
 9400WAT     H228443   8.692   1.682   1.501
 9401WAT      O28444   5.945   4.374   3.227
 9401WAT     H128445   5.934   4.469   3.198
 9401WAT     H228446   5.893   4.315   3.165
 9402WAT      O28447   7.981   3.373   0.519
 9402WAT     H128448   8.025   3.431   0.588
 9402WAT     H228449   8.051   3.322   0.469
 9403WAT      O28450   1.436   6.235   2.411
 9403WAT     H128451   1.534   6.216   2.420
 9403WAT     H228452   1.386   6.189   2.484
 9404WAT      O28453   8.853   1.002   6.009
 9404WAT     H128454   8.823   1.082   6.061
 9404WAT     H228455   8.945   0.976   6.037
 9405WAT      O28456   9.096   7.110   9.456
 9405WAT     H128457   9.089   7.210   9.462
 9405WAT     H228458   9.012   7.074   9.416
 9406WAT      O28459   7.745   0.286   7.022
 9406WAT     H128460   7.841   0.304   7.039
 9406WAT     H228461   7.735   0.233   6.938
 9407WAT      O28462   2.173   5.723   5.100
 9407WAT     H128463   2.218   5.634   5.099
 9407WAT     H228464   2.086   5.717   5.051
 9408WAT      O28465   4.734   7.382   8.931
 9408WAT     H128466   4.722   7.283   8.924
 9408WAT     H228467   4.649   7.425   8.963
 9409WAT      O28468   5.626   9.821   1.795
 9409WAT     H128469   5.573   9.905   1.784
 9409WAT     H228470   5.670   9.799   1.708
 9410WAT      O28471   4.870   1.123   0.899
 9410WAT     H128472   4.817   1.174   0.832
 9410WAT     H228473   4.831   1.135   0.990
 9411WAT      O28474   3.186   2.681   1.210
 9411WAT     H128475   3.114   2.748   1.194
 9411WAT     H228476   3.257   2.691   1.141
 9412WAT      O28477   2.515   2.566   4.847
 9412WAT     H128478   2.558   2.650   4.880
 9412WAT     H228479   2.469   2.585   4.760
 9413WAT      O28480   4.613   5.008   2.801
 9413WAT     H128481   4.543   4.944   2.832
 9413WAT     H228482   4.572   5.073   2.737
 9414WAT      O28483   1.477   0.752   0.986
 9414WAT     H128484   1.540   0.775   0.912
 9414WAT     H228485   1.393   0.713   0.947
 9415WAT      O28486   0.510   7.576   6.311
 9415WAT     H128487   0.426   7.544   6.265
 9415WAT     H228488   0.500   7.672   6.335
 9416WAT      O28489   9.555   8.651   4.953
 9416WAT     H128490   9.639   8.656   4.898
 9416WAT     H228491   9.512   8.741   4.958
 9417WAT      O28492   2.552   4.164   9.387
 9417WAT     H128493   2.575   4.068   9.402
 9417WAT     H228494   2.553   4.183   9.289
 9418WAT      O28495   2.957   2.173   0.500
 9418WAT     H128496   2.863   2.201   0.478
 9418WAT     H228497   2.960   2.074   0.511
 9419WAT      O28498   2.153   0.841   7.013
 9419WAT     H128499   2.144   0.761   6.953
 9419WAT     H228500   2.139   0.813   7.107
 9420WAT      O28501   1.747   5.893   1.810
 9420WAT     H128502   1.689   5.818   1.780
 9420WAT     H228503   1.699   5.980   1.797
 9421WAT      O28504   0.663   8.226   9.497
 9421WAT     H128505   0.646   8.307   9.553
 9421WAT     H228506   0.745   8.240   9.442
 9422WAT      O28507   6.419   2.595   4.250
 9422WAT     H128508   6.356   2.591   4.328
 9422WAT     H228509   6.511   2.574   4.281
 9423WAT      O28510   1.791   1.689   2.837
 9423WAT     H128511   1.731   1.688   2.756
 9423WAT     H228512   1.871   1.631   2.820
 9424WAT      O28513   6.679   4.366   1.187
 9424WAT     H128514   6.705   4.327   1.099
 9424WAT     H228515   6.747   4.339   1.256
 9425WAT      O28516   8.472   1.631   1.897
 9425WAT     H128517   8.528   1.702   1.853
 9425WAT     H228518   8.494   1.542   1.858
 9426WAT      O28519   9.244   3.048   2.209
 9426WAT     H128520   9.221   3.121   2.144
 9426WAT     H228521   9.259   2.963   2.158
 9427WAT      O28522   4.169   8.479   7.462
 9427WAT     H128523   4.246   8.417   7.444
 9427WAT     H228524   4.200   8.573   7.452
 9428WAT      O28525   7.522   4.269   3.014
 9428WAT     H128526   7.443   4.271   3.075
 9428WAT     H228527   7.533   4.177   2.977
 9429WAT      O28528   8.495   2.425   9.628
 9429WAT     H128529   8.477   2.387   9.719
 9429WAT     H228530   8.420   2.485   9.602
 9430WAT      O28531   9.334   8.228   8.792
 9430WAT     H128532   9.341   8.242   8.694
 9430WAT     H228533   9.319   8.131   8.811
 9431WAT      O28534   8.009   6.299   8.652
 9431WAT     H128535   8.000   6.385   8.602
 9431WAT     H228536   7.995   6.315   8.750
 9432WAT      O28537   3.765   2.783   1.272
 9432WAT     H128538   3.791   2.742   1.359
 9432WAT     H228539   3.810   2.735   1.197
 9433WAT      O28540   4.135   2.542   4.255
 9433WAT     H128541   4.189   2.604   4.197
 9433WAT     H228542   4.194   2.503   4.326
 9434WAT      O28543   1.259   5.440   8.281
 9434WAT     H128544   1.263   5.531   8.239
 9434WAT     H228545   1.192   5.384   8.232
 9435WAT      O28546   3.316   2.452   0.153
 9435WAT     H128547   3.334   2.543   0.115
 9435WAT     H228548   3.336   2.453   0.252
 9436WAT      O28549   2.024   7.665   8.226
 9436WAT     H128550   2.057   7.732   8.160
 9436WAT     H228551   1.996   7.711   8.310
 9437WAT      O28552   6.818   0.809   6.167
 9437WAT     H128553   6.902   0.760   6.191
 9437WAT     H228554   6.827   0.906   6.192
 9438WAT      O28555   0.489   6.051   0.761
 9438WAT     H128556   0.419   6.052   0.689
 9438WAT     H228557   0.453   6.099   0.841
 9439WAT      O28558   1.634   9.734   6.831
 9439WAT     H128559   1.536   9.719   6.824
 9439WAT     H228560   1.652   9.832   6.838
 9440WAT      O28561   9.181   7.871   6.942
 9440WAT     H128562   9.264   7.849   6.891
 9440WAT     H228563   9.144   7.789   6.984
 9441WAT      O28564   9.185   4.375   1.677
 9441WAT     H128565   9.238   4.447   1.723
 9441WAT     H228566   9.132   4.325   1.746
 9442WAT      O28567   4.134   9.024   9.402
 9442WAT     H128568   4.070   8.954   9.372
 9442WAT     H228569   4.227   8.985   9.405
 9443WAT      O28570   1.702   5.546   4.600
 9443WAT     H128571   1.752   5.568   4.516
 9443WAT     H228572   1.610   5.515   4.577
 9444WAT      O28573   7.803   8.443   1.759
 9444WAT     H128574   7.899   8.462   1.741
 9444WAT     H228575   7.751   8.529   1.758
 9445WAT      O28576   0.235   0.154   8.819
 9445WAT     H128577   0.225   0.196   8.728
 9445WAT     H228578   0.235   0.225   8.889
 9446WAT      O28579   8.409   6.797   8.246
 9446WAT     H128580   8.435   6.712   8.200
 9446WAT     H228581   8.342   6.846   8.191
 9447WAT      O28582   2.966   8.245   6.800
 9447WAT     H128583   2.919   8.178   6.743
 9447WAT     H228584   2.920   8.253   6.888
 9448WAT      O28585   4.444   2.938   7.115
 9448WAT     H128586   4.515   2.982   7.169
 9448WAT     H228587   4.426   2.846   7.151
 9449WAT      O28588   3.970   5.067   1.397
 9449WAT     H128589   3.973   5.109   1.306
 9449WAT     H228590   3.888   5.098   1.445
 9450WAT      O28591   6.826   1.431   8.070
 9450WAT     H128592   6.907   1.391   8.112
 9450WAT     H228593   6.771   1.476   8.140
 9451WAT      O28594   6.995   8.531   0.790
 9451WAT     H128595   7.037   8.569   0.707
 9451WAT     H228596   6.899   8.557   0.794
 9452WAT      O28597   8.242   1.457   3.849
 9452WAT     H128598   8.340   1.460   3.865
 9452WAT     H228599   8.194   1.493   3.929
 9453WAT      O28600   3.604   6.467   4.750
 9453WAT     H128601   3.639   6.475   4.844
 9453WAT     H228602   3.656   6.528   4.690
 9454WAT      O28603   0.193   7.001   6.617
 9454WAT     H128604   0.209   7.091   6.576
 9454WAT     H228605   0.154   7.013   6.708
 9455WAT      O28606   0.166   1.576   6.886
 9455WAT     H128607   0.080   1.620   6.863
 9455WAT     H228608   0.209   1.624   6.962
 9456WAT      O28609   6.508   7.026   2.296
 9456WAT     H128610   6.596   7.051   2.335
 9456WAT     H228611   6.481   7.094   2.228
 9457WAT      O28612   3.062   5.450   1.940
 9457WAT     H128613   3.151   5.413   1.967
 9457WAT     H228614   3.012   5.382   1.887
 9458WAT      O28615   0.486   4.118   2.352
 9458WAT     H128616   0.414   4.154   2.411
 9458WAT     H228617   0.462   4.025   2.323
 9459WAT      O28618   6.951   5.152   6.609
 9459WAT     H128619   7.034   5.194   6.644
 9459WAT     H228620   6.943   5.171   6.511
 9460WAT      O28621   3.842   9.404   8.160
 9460WAT     H128622   3.779   9.481   8.176
 9460WAT     H228623   3.924   9.416   8.216
 9461WAT      O28624   3.806   7.863   0.983
 9461WAT     H128625   3.730   7.800   1.002
 9461WAT     H228626   3.790   7.949   1.031
 9462WAT      O28627   6.982   9.043   2.554
 9462WAT     H128628   7.043   8.992   2.494
 9462WAT     H228629   6.966   9.134   2.514
 9463WAT      O28630   9.150   0.077   5.944
 9463WAT     H128631   9.166  -0.020   5.927
 9463WAT     H228632   9.122   0.121   5.859
 9464WAT      O28633   2.986   8.208   8.158
 9464WAT     H128634   2.960   8.304   8.144
 9464WAT     H228635   3.077   8.204   8.198
 9465WAT      O28636   2.890   6.255   2.477
 9465WAT     H128637   2.822   6.314   2.520
 9465WAT     H228638   2.847   6.168   2.452
 9466WAT      O28639   9.804   1.782   2.868
 9466WAT     H128640   9.730   1.731   2.825
 9466WAT     H228641   9.868   1.814   2.798
 9467WAT      O28642   4.970   9.766   9.559
 9467WAT     H128643   4.980   9.768   9.658
 9467WAT     H228644   5.040   9.707   9.519
 9468WAT      O28645   4.022   7.869   9.185
 9468WAT     H128646   4.010   7.775   9.154
 9468WAT     H228647   3.949   7.926   9.147
 9469WAT      O28648   2.027   3.272   8.353
 9469WAT     H128649   1.928   3.277   8.365
 9469WAT     H228650   2.048   3.203   8.284
 9470WAT      O28651   1.254   5.113   2.740
 9470WAT     H128652   1.275   5.177   2.813
 9470WAT     H228653   1.161   5.128   2.707
 9471WAT      O28654   5.592   8.036   3.830
 9471WAT     H128655   5.539   8.034   3.915
 9471WAT     H228656   5.535   8.000   3.755
 9472WAT      O28657   1.098   6.842   0.960
 9472WAT     H128658   1.052   6.767   1.007
 9472WAT     H228659   1.193   6.816   0.940
 9473WAT      O28660   4.159   0.375   5.465
 9473WAT     H128661   4.121   0.310   5.531
 9473WAT     H228662   4.085   0.431   5.428
 9474WAT      O28663   8.694   3.038   4.249
 9474WAT     H128664   8.670   2.990   4.165
 9474WAT     H228665   8.741   3.124   4.226
 9475WAT      O28666   0.249   2.184   8.452
 9475WAT     H128667   0.282   2.124   8.379
 9475WAT     H228668   0.289   2.275   8.440
 9476WAT      O28669   8.012   2.325   7.327
 9476WAT     H128670   8.017   2.385   7.406
 9476WAT     H228671   8.104   2.300   7.297
 9477WAT      O28672   6.148   6.162   3.275
 9477WAT     H128673   6.077   6.133   3.211
 9477WAT     H228674   6.205   6.232   3.233
 9478WAT      O28675   8.888   5.818   4.671
 9478WAT     H128676   8.966   5.867   4.711
 9478WAT     H228677   8.922   5.744   4.612
 9479WAT      O28678   5.769   1.098   5.344
 9479WAT     H128679   5.765   1.009   5.298
 9479WAT     H228680   5.715   1.094   5.428
 9480WAT      O28681   9.575   9.527   3.621
 9480WAT     H128682   9.649   9.477   3.667
 9480WAT     H228683   9.492   9.472   3.623
 9481WAT      O28684   1.967   8.343   8.358
 9481WAT     H128685   1.971   8.434   8.400
 9481WAT     H228686   2.014   8.277   8.417
 9482WAT      O28687   1.155   6.873   6.281
 9482WAT     H128688   1.060   6.875   6.249
 9482WAT     H228689   1.216   6.881   6.203
 9483WAT      O28690   6.339   1.856   5.350
 9483WAT     H128691   6.368   1.909   5.430
 9483WAT     H228692   6.398   1.878   5.273
 9484WAT      O28693   8.313   6.520   4.125
 9484WAT     H128694   8.301   6.614   4.095
 9484WAT     H228695   8.248   6.461   4.076
 9485WAT      O28696   0.102   9.671   5.731
 9485WAT     H128697   0.142   9.741   5.790
 9485WAT     H228698   0.011   9.646   5.765
 9486WAT      O28699   0.793   3.510   6.842
 9486WAT     H128700   0.882   3.551   6.863
 9486WAT     H228701   0.731   3.581   6.810
 9487WAT      O28702   6.806   6.826   2.521
 9487WAT     H128703   6.880   6.851   2.458
 9487WAT     H228704   6.778   6.907   2.573
 9488WAT      O28705   0.257   3.511   8.505
 9488WAT     H128706   0.191   3.439   8.521
 9488WAT     H228707   0.213   3.586   8.454
 9489WAT      O28708   8.722   0.716   3.700
 9489WAT     H128709   8.738   0.735   3.603
 9489WAT     H228710   8.640   0.764   3.730
 9490WAT      O28711   5.702   6.163   9.748
 9490WAT     H128712   5.705   6.107   9.666
 9490WAT     H228713   5.621   6.139   9.802
 9491WAT      O28714   1.971   3.740   5.395
 9491WAT     H128715   1.959   3.807   5.322
 9491WAT     H228716   1.911   3.763   5.472
 9492WAT      O28717   8.151   7.831   1.929
 9492WAT     H128718   8.085   7.848   1.856
 9492WAT     H228719   8.101   7.803   2.012
 9493WAT      O28720   7.738   7.452   9.747
 9493WAT     H128721   7.818   7.459   9.687
 9493WAT     H228722   7.761   7.490   9.837
 9494WAT      O28723   9.336   4.424   8.393
 9494WAT     H128724   9.299   4.337   8.362
 9494WAT     H228725   9.292   4.499   8.343
 9495WAT      O28726   7.287   4.437   3.772
 9495WAT     H128727   7.366   4.376   3.779
 9495WAT     H228728   7.246   4.449   3.863
 9496WAT      O28729   5.973   7.484   0.461
 9496WAT     H128730   5.971   7.403   0.403
 9496WAT     H228731   6.051   7.480   0.523
 9497WAT      O28732   8.088   4.007   9.151
 9497WAT     H128733   7.996   4.023   9.187
 9497WAT     H228734   8.155   4.052   9.209
 9498WAT      O28735   7.362   4.754   4.885
 9498WAT     H128736   7.451   4.794   4.905
 9498WAT     H228737   7.290   4.807   4.930
 9499WAT      O28738   0.880   2.070   7.045
 9499WAT     H128739   0.865   2.158   7.090
 9499WAT     H228740   0.833   1.998   7.097
 9500WAT      O28741   9.103   0.327   9.268
 9500WAT     H128742   9.078   0.268   9.191
 9500WAT     H228743   9.201   0.318   9.286
 9501WAT      O28744   3.873   5.511   3.463
 9501WAT     H128745   3.939   5.559   3.521
 9501WAT     H228746   3.921   5.441   3.409
 9502WAT      O28747   7.728   0.041   6.546
 9502WAT     H128748   7.749   0.069   6.453
 9502WAT     H228749   7.635   0.004   6.549
 9503WAT      O28750   9.402   8.319   3.375
 9503WAT     H128751   9.499   8.312   3.397
 9503WAT     H228752   9.389   8.315   3.276
 9504WAT      O28753   7.235   8.585   2.606
 9504WAT     H128754   7.271   8.675   2.582
 9504WAT     H228755   7.199   8.587   2.699
 9505WAT      O28756   4.842   9.571   3.547
 9505WAT     H128757   4.896   9.569   3.631
 9505WAT     H228758   4.900   9.599   3.470
 9506WAT      O28759   3.266   4.110   4.239
 9506WAT     H128760   3.224   4.132   4.326
 9506WAT     H228761   3.304   4.017   4.242
 9507WAT      O28762   6.193   9.110   8.409
 9507WAT     H128763   6.179   9.121   8.507
 9507WAT     H228764   6.200   9.013   8.387
 9508WAT      O28765   0.116   3.304   8.303
 9508WAT     H128766   0.085   3.311   8.398
 9508WAT     H228767   0.079   3.379   8.249
 9509WAT      O28768   4.855   0.032   6.819
 9509WAT     H128769   4.886   0.110   6.875
 9509WAT     H228770   4.922   0.016   6.746
 9510WAT      O28771   8.237   0.579   7.756
 9510WAT     H128772   8.211   0.670   7.790
 9510WAT     H228773   8.311   0.588   7.689
 9511WAT      O28774   9.429   3.156   8.595
 9511WAT     H128775   9.513   3.145   8.649
 9511WAT     H228776   9.445   3.220   8.520
 9512WAT      O28777   3.172   0.023   6.041
 9512WAT     H128778   3.193   0.110   6.086
 9512WAT     H228779   3.093   0.036   5.980
 9513WAT      O28780   6.562   0.224   4.035
 9513WAT     H128781   6.463   0.223   4.019
 9513WAT     H228782   6.601   0.137   4.005
 9514WAT      O28783   1.763   1.052   1.107
 9514WAT     H128784   1.668   1.080   1.094
 9514WAT     H228785   1.813   1.124   1.155
 9515WAT      O28786   4.943   3.239   1.074
 9515WAT     H128787   4.930   3.140   1.076
 9515WAT     H228788   4.858   3.283   1.044
 9516WAT      O28789   4.343   0.335   3.462
 9516WAT     H128790   4.383   0.244   3.448
 9516WAT     H228791   4.248   0.325   3.491
 9517WAT      O28792   7.244   1.183   1.229
 9517WAT     H128793   7.301   1.264   1.238
 9517WAT     H228794   7.294   1.113   1.178
 9518WAT      O28795   6.929   5.211   2.090
 9518WAT     H128796   6.925   5.214   1.990
 9518WAT     H228797   6.996   5.278   2.122
 9519WAT      O28798   4.220   2.454   8.589
 9519WAT     H128799   4.149   2.425   8.653
 9519WAT     H228800   4.205   2.549   8.562
 9520WAT      O28801   3.550   3.700   5.998
 9520WAT     H128802   3.552   3.600   5.995
 9520WAT     H228803   3.643   3.734   6.016
 9521WAT      O28804   4.433   3.636   7.942
 9521WAT     H128805   4.433   3.693   8.024
 9521WAT     H228806   4.357   3.571   7.946
 9522WAT      O28807   8.715   5.153   3.411
 9522WAT     H128808   8.776   5.226   3.440
 9522WAT     H228809   8.705   5.155   3.312
 9523WAT      O28810   2.371   5.575   2.954
 9523WAT     H128811   2.338   5.582   2.860
 9523WAT     H228812   2.462   5.534   2.954
 9524WAT      O28813   0.666   9.409   5.941
 9524WAT     H128814   0.660   9.316   5.978
 9524WAT     H228815   0.710   9.407   5.852
 9525WAT      O28816   2.974   5.354   9.232
 9525WAT     H128817   2.971   5.310   9.322
 9525WAT     H228818   3.065   5.344   9.193
 9526WAT      O28819   0.783   6.780   1.002
 9526WAT     H128820   0.805   6.876   0.987
 9526WAT     H228821   0.855   6.736   1.054
 9527WAT      O28822   2.916   2.406   4.745
 9527WAT     H128823   2.980   2.330   4.754
 9527WAT     H228824   2.887   2.413   4.649
 9528WAT      O28825   6.436   3.179   2.467
 9528WAT     H128826   6.399   3.211   2.379
 9528WAT     H228827   6.360   3.162   2.530
 9529WAT      O28828   7.757   8.158   2.946
 9529WAT     H128829   7.823   8.169   3.020
 9529WAT     H228830   7.749   8.245   2.896
 9530WAT      O28831   7.710   2.255   4.088
 9530WAT     H128832   7.679   2.350   4.084
 9530WAT     H228833   7.750   2.237   4.179
 9531WAT      O28834   5.299   2.950   1.464
 9531WAT     H128835   5.370   2.935   1.395
 9531WAT     H228836   5.316   3.037   1.510
 9532WAT      O28837   4.349   2.708   3.923
 9532WAT     H128838   4.411   2.735   3.997
 9532WAT     H228839   4.402   2.693   3.839
 9533WAT      O28840   7.512   9.775   3.383
 9533WAT     H128841   7.488   9.862   3.340
 9533WAT     H228842   7.534   9.791   3.479
 9534WAT      O28843   7.195   7.370   3.665
 9534WAT     H128844   7.214   7.466   3.683
 9534WAT     H228845   7.138   7.333   3.738
 9535WAT      O28846   5.214   1.825   5.237
 9535WAT     H128847   5.243   1.920   5.247
 9535WAT     H228848   5.280   1.765   5.281
 9536WAT      O28849   4.481   6.158   3.184
 9536WAT     H128850   4.397   6.179   3.134
 9536WAT     H228851   4.559   6.196   3.133
 9537WAT      O28852   2.055   6.582   7.802
 9537WAT     H128853   1.982   6.617   7.860
 9537WAT     H228854   2.018   6.555   7.713
 9538WAT      O28855   2.138   0.781   6.350
 9538WAT     H128856   2.079   0.721   6.296
 9538WAT     H228857   2.164   0.861   6.296
 9539WAT      O28858   5.669   3.521   4.023
 9539WAT     H128859   5.699   3.611   3.993
 9539WAT     H228860   5.699   3.452   3.957
 9540WAT      O28861   7.317   5.311   6.200
 9540WAT     H128862   7.382   5.299   6.124
 9540WAT     H228863   7.367   5.336   6.283
 9541WAT      O28864   0.173   4.103   0.015
 9541WAT     H128865   0.231   4.036  -0.030
 9541WAT     H228866   0.115   4.148  -0.053
 9542WAT      O28867   4.508   6.426   0.893
 9542WAT     H128868   4.443   6.471   0.832
 9542WAT     H228869   4.588   6.397   0.840
 9543WAT      O28870   5.505   3.427   5.636
 9543WAT     H128871   5.563   3.346   5.631
 9543WAT     H228872   5.521   3.475   5.723
 9544WAT      O28873   8.885   9.105   9.403
 9544WAT     H128874   8.980   9.078   9.387
 9544WAT     H228875   8.847   9.051   9.478
 9545WAT      O28876   3.420   4.971   8.691
 9545WAT     H128877   3.508   4.924   8.682
 9545WAT     H228878   3.396   4.978   8.788
 9546WAT      O28879   0.640   5.444   0.678
 9546WAT     H128880   0.707   5.495   0.623
 9546WAT     H228881   0.625   5.354   0.636
 9547WAT      O28882   2.047   7.135   0.205
 9547WAT     H128883   1.996   7.126   0.120
 9547WAT     H228884   1.992   7.100   0.281
 9548WAT      O28885   6.943   5.244   1.819
 9548WAT     H128886   6.892   5.191   1.751
 9548WAT     H228887   7.039   5.248   1.793
 9549WAT      O28888   9.614   5.579   0.941
 9549WAT     H128889   9.593   5.668   0.982
 9549WAT     H228890   9.711   5.559   0.954
 9550WAT      O28891   4.620   0.545   3.374
 9550WAT     H128892   4.676   0.463   3.388
 9550WAT     H228893   4.570   0.536   3.287
 9551WAT      O28894   5.265   8.297   3.870
 9551WAT     H128895   5.291   8.203   3.891
 9551WAT     H228896   5.254   8.349   3.954
 9552WAT      O28897   2.474   7.950   9.006
 9552WAT     H128898   2.501   7.964   8.911
 9552WAT     H228899   2.409   7.874   9.011
 9553WAT      O28900   8.009   0.722   3.606
 9553WAT     H128901   7.957   0.637   3.618
 9553WAT     H228902   8.008   0.774   3.691
 9554WAT      O28903   6.769   2.557   9.674
 9554WAT     H128904   6.861   2.595   9.689
 9554WAT     H228905   6.757   2.477   9.732
 9555WAT      O28906   6.135   3.666   8.159
 9555WAT     H128907   6.063   3.646   8.093
 9555WAT     H228908   6.101   3.647   8.252
 9556WAT      O28909   2.308   8.895   5.925
 9556WAT     H128910   2.325   8.955   5.847
 9556WAT     H228911   2.291   8.950   6.007
 9557WAT      O28912   9.240   2.546   8.208
 9557WAT     H128913   9.270   2.453   8.187
 9557WAT     H228914   9.291   2.611   8.152
 9558WAT      O28915   4.539   4.963   2.498
 9558WAT     H128916   4.556   4.896   2.426
 9558WAT     H228917   4.531   4.915   2.586
 9559WAT      O28918   3.406   8.739   6.023
 9559WAT     H128919   3.389   8.647   6.058
 9559WAT     H228920   3.385   8.742   5.926
 9560WAT      O28921   7.939   3.429   1.098
 9560WAT     H128922   7.865   3.397   1.157
 9560WAT     H228923   7.908   3.433   1.003
 9561WAT      O28924   2.703   6.157   7.639
 9561WAT     H128925   2.779   6.125   7.582
 9561WAT     H228926   2.617   6.124   7.601
 9562WAT      O28927   7.823   5.367   0.033
 9562WAT     H128928   7.911   5.332   0.002
 9562WAT     H228929   7.765   5.387  -0.047
 9563WAT      O28930   6.725   7.617   8.273
 9563WAT     H128931   6.794   7.551   8.243
 9563WAT     H228932   6.766   7.679   8.339
 9564WAT      O28933   3.470   6.514   6.078
 9564WAT     H128934   3.553   6.477   6.037
 9564WAT     H228935   3.461   6.480   6.172
 9565WAT      O28936   4.653   5.142   4.743
 9565WAT     H128937   4.751   5.140   4.723
 9565WAT     H228938   4.602   5.116   4.661
 9566WAT      O28939   4.120   7.475   5.151
 9566WAT     H128940   4.028   7.440   5.165
 9566WAT     H228941   4.162   7.495   5.240
 9567WAT      O28942   1.405   7.996   2.615
 9567WAT     H128943   1.448   8.055   2.546
 9567WAT     H228944   1.335   7.940   2.572
 9568WAT      O28945   8.325   8.420   8.573
 9568WAT     H128946   8.367   8.470   8.497
 9568WAT     H228947   8.227   8.411   8.556
 9569WAT      O28948   1.465   0.786   7.952
 9569WAT     H128949   1.510   0.807   8.039
 9569WAT     H228950   1.512   0.709   7.908
 9570WAT      O28951   4.070   1.350   9.445
 9570WAT     H128952   4.094   1.254   9.428
 9570WAT     H228953   3.972   1.357   9.462
 9571WAT      O28954   8.161   2.662   6.095
 9571WAT     H128955   8.089   2.629   6.156
 9571WAT     H228956   8.133   2.647   6.000
 9572WAT      O28957   5.684   1.637   7.499
 9572WAT     H128958   5.778   1.603   7.499
 9572WAT     H228959   5.668   1.693   7.580
 9573WAT      O28960   2.080   5.874   6.246
 9573WAT     H128961   2.119   5.788   6.214
 9573WAT     H228962   2.151   5.944   6.250
 9574WAT      O28963   7.340   4.050   7.856
 9574WAT     H128964   7.247   4.015   7.864
 9574WAT     H228965   7.361   4.068   7.760
 9575WAT      O28966   2.091   8.448   3.934
 9575WAT     H128967   2.169   8.507   3.914
 9575WAT     H228968   2.101   8.361   3.886
 9576WAT      O28969   6.708   6.092   5.856
 9576WAT     H128970   6.659   6.073   5.771
 9576WAT     H228971   6.792   6.038   5.859
 9577WAT      O28972   9.217   1.048   4.976
 9577WAT     H128973   9.199   1.101   4.893
 9577WAT     H228974   9.316   1.043   4.992
 9578WAT      O28975   3.277   1.748   4.362
 9578WAT     H128976   3.272   1.674   4.294
 9578WAT     H228977   3.185   1.784   4.379
 9579WAT      O28978   2.421   2.626   5.363
 9579WAT     H128979   2.361   2.637   5.442
 9579WAT     H228980   2.509   2.587   5.393
 9580WAT      O28981   3.555   4.191   5.787
 9580WAT     H128982   3.632   4.153   5.736
 9580WAT     H228983   3.554   4.290   5.776
 9581WAT      O28984   6.447   2.774   2.171
 9581WAT     H128985   6.439   2.741   2.077
 9581WAT     H228986   6.359   2.811   2.201
 9582WAT      O28987   5.586   4.742   4.451
 9582WAT     H128988   5.528   4.823   4.441
 9582WAT     H228989   5.592   4.694   4.363
 9583WAT      O28990   0.825   8.878   2.209
 9583WAT     H128991   0.818   8.977   2.196
 9583WAT     H228992   0.921   8.850   2.198
 9584WAT      O28993   6.749   9.674   6.777
 9584WAT     H128994   6.789   9.583   6.795
 9584WAT     H228995   6.749   9.691   6.679
 9585WAT      O28996   1.345   7.190   4.053
 9585WAT     H128997   1.412   7.120   4.075
 9585WAT     H228998   1.341   7.201   3.953
 9586WAT      O28999   8.811   4.639   1.153
 9586WAT     H129000   8.813   4.573   1.227
 9586WAT     H229001   8.894   4.630   1.097
 9587WAT      O29002   2.053   7.921   2.019
 9587WAT     H129003   2.065   7.975   2.102
 9587WAT     H229004   2.032   7.982   1.943
 9588WAT      O29005   4.259   0.449   0.638
 9588WAT     H129006   4.160   0.459   0.639
 9588WAT     H229007   4.286   0.393   0.559
 9589WAT      O29008   7.470   4.227   3.803
 9589WAT     H129009   7.557   4.249   3.758
 9589WAT     H229010   7.483   4.225   3.902
 9590WAT      O29011   3.357   4.955   2.758
 9590WAT     H129012   3.384   4.914   2.671
 9590WAT     H229013   3.339   5.053   2.745
 9591WAT      O29014   2.248   7.318   9.434
 9591WAT     H129015   2.272   7.221   9.427
 9591WAT     H229016   2.297   7.359   9.512
 9592WAT      O29017   7.065   7.178   2.587
 9592WAT     H129018   7.146   7.128   2.556
 9592WAT     H229019   7.094   7.257   2.642
 9593WAT      O29020   1.223   0.640   0.914
 9593WAT     H129021   1.238   0.572   0.986
 9593WAT     H229022   1.127   0.665   0.911
 9594WAT      O29023   1.768   7.917   9.743
 9594WAT     H129024   1.863   7.937   9.763
 9594WAT     H229025   1.710   7.947   9.819
 9595WAT      O29026   8.641   2.738   1.140
 9595WAT     H129027   8.566   2.756   1.076
 9595WAT     H229028   8.647   2.812   1.207
 9596WAT      O29029   7.796   3.682   9.270
 9596WAT     H129030   7.804   3.767   9.218
 9596WAT     H229031   7.881   3.630   9.262
 9597WAT      O29032   5.886   0.628   0.536
 9597WAT     H129033   5.935   0.678   0.607
 9597WAT     H229034   5.861   0.689   0.461
 9598WAT      O29035   0.140   8.341   7.112
 9598WAT     H129036   0.229   8.371   7.080
 9598WAT     H229037   0.138   8.344   7.212
 9599WAT      O29038   6.808   3.949   8.763
 9599WAT     H129039   6.889   4.005   8.744
 9599WAT     H229040   6.729   3.986   8.716
 9600WAT      O29041   1.102   9.146   0.130
 9600WAT     H129042   1.082   9.140   0.032
 9600WAT     H229043   1.169   9.075   0.155
 9601WAT      O29044   1.393   3.912   7.520
 9601WAT     H129045   1.314   3.930   7.461
 9601WAT     H229046   1.361   3.890   7.612
 9602WAT      O29047   0.777   0.466   1.400
 9602WAT     H129048   0.732   0.478   1.488
 9602WAT     H229049   0.708   0.467   1.327
 9603WAT      O29050   7.635   6.321   2.922
 9603WAT     H129051   7.592   6.369   2.999
 9603WAT     H229052   7.729   6.296   2.947
 9604WAT      O29053   9.261   1.477   3.472
 9604WAT     H129054   9.240   1.384   3.443
 9604WAT     H229055   9.253   1.483   3.572
 9605WAT      O29056   8.470   6.230   6.287
 9605WAT     H129057   8.515   6.151   6.245
 9605WAT     H229058   8.466   6.306   6.222
 9606WAT      O29059   8.666   9.695   3.761
 9606WAT     H129060   8.717   9.622   3.806
 9606WAT     H229061   8.731   9.754   3.713
 9607WAT      O29062   9.201   9.315   6.752
 9607WAT     H129063   9.168   9.353   6.839
 9607WAT     H229064   9.260   9.236   6.771
 9608WAT      O29065   5.164   5.670   3.677
 9608WAT     H129066   5.175   5.700   3.772
 9608WAT     H229067   5.087   5.719   3.635
 9609WAT      O29068   5.363   7.392   0.781
 9609WAT     H129069   5.413   7.419   0.699
 9609WAT     H229070   5.269   7.371   0.757
 9610WAT      O29071   0.888   2.203   6.227
 9610WAT     H129072   0.852   2.143   6.299
 9610WAT     H229073   0.988   2.200   6.229
 9611WAT      O29074   2.189   5.428   0.363
 9611WAT     H129075   2.199   5.515   0.315
 9611WAT     H229076   2.269   5.371   0.345
 9612WAT      O29077   6.026   4.560   1.452
 9612WAT     H129078   5.989   4.592   1.539
 9612WAT     H229079   5.964   4.492   1.413
 9613WAT      O29080   1.056   8.172   0.403
 9613WAT     H129081   1.048   8.117   0.486
 9613WAT     H229082   1.062   8.112   0.323
 9614WAT      O29083   6.888   4.392   3.273
 9614WAT     H129084   6.813   4.327   3.257
 9614WAT     H229085   6.934   4.411   3.187
 9615WAT      O29086   9.569   4.597   2.017
 9615WAT     H129087   9.600   4.505   2.038
 9615WAT     H229088   9.637   4.663   2.048
 9616WAT      O29089   2.207   1.349   3.886
 9616WAT     H129090   2.292   1.396   3.911
 9616WAT     H229091   2.175   1.383   3.798
 9617WAT      O29092   4.257   7.091   7.393
 9617WAT     H129093   4.291   7.015   7.337
 9617WAT     H229094   4.318   7.169   7.384
 9618WAT      O29095   5.733   9.176   6.288
 9618WAT     H129096   5.725   9.273   6.311
 9618WAT     H229097   5.718   9.164   6.190
 9619WAT      O29098   2.761   6.000   5.423
 9619WAT     H129099   2.838   6.043   5.470
 9619WAT     H229100   2.751   6.038   5.331
 9620WAT      O29101   9.879   2.668   4.216
 9620WAT     H129102   9.823   2.718   4.150
 9620WAT     H229103   9.961   2.633   4.170
 9621WAT      O29104   0.743   1.350   0.215
 9621WAT     H129105   0.797   1.271   0.244
 9621WAT     H229106   0.760   1.427   0.276
 9622WAT      O29107   2.470   3.092   1.060
 9622WAT     H129108   2.451   3.013   1.002
 9622WAT     H229109   2.498   3.170   1.004
 9623WAT      O29110   9.253   4.998   3.283
 9623WAT     H129111   9.250   5.094   3.254
 9623WAT     H229112   9.296   4.992   3.373
 9624WAT      O29113   9.560   6.365   6.215
 9624WAT     H129114   9.632   6.335   6.152
 9624WAT     H229115   9.575   6.322   6.304
 9625WAT      O29116   4.820   2.608   8.287
 9625WAT     H129117   4.860   2.546   8.354
 9625WAT     H229118   4.724   2.622   8.309
 9626WAT      O29119   0.173   8.374   9.113
 9626WAT     H129120   0.211   8.464   9.133
 9626WAT     H229121   0.073   8.380   9.111
 9627WAT      O29122   4.973   7.361   6.666
 9627WAT     H129123   4.913   7.285   6.689
 9627WAT     H229124   5.056   7.326   6.623
 9628WAT      O29125   2.333   7.728   0.233
 9628WAT     H129126   2.267   7.713   0.160
 9628WAT     H229127   2.325   7.655   0.301
 9629WAT      O29128   3.585   8.275   8.558
 9629WAT     H129129   3.504   8.250   8.504
 9629WAT     H229130   3.559   8.343   8.626
 9630WAT      O29131   8.982   8.289   9.198
 9630WAT     H129132   8.933   8.366   9.237
 9630WAT     H229133   8.917   8.223   9.161
 9631WAT      O29134   1.735   5.166   1.728
 9631WAT     H129135   1.811   5.109   1.697
 9631WAT     H229136   1.747   5.190   1.824
 9632WAT      O29137   9.086   8.577   9.439
 9632WAT     H129138   9.098   8.673   9.411
 9632WAT     H229139   9.172   8.528   9.428
 9633WAT      O29140   6.864   2.939   5.953
 9633WAT     H129141   6.944   2.988   5.986
 9633WAT     H229142   6.791   3.004   5.932
 9634WAT      O29143   7.585   5.485   0.545
 9634WAT     H129144   7.495   5.476   0.588
 9634WAT     H229145   7.592   5.575   0.501
 9635WAT      O29146   0.045   9.781   7.103
 9635WAT     H129147  -0.017   9.735   7.039
 9635WAT     H229148   0.001   9.788   7.192
 9636WAT      O29149   0.254   8.611   2.543
 9636WAT     H129150   0.200   8.689   2.511
 9636WAT     H229151   0.347   8.618   2.508
 9637WAT      O29152   8.623   8.052   3.136
 9637WAT     H129153   8.597   7.977   3.076
 9637WAT     H229154   8.576   8.136   3.107
 9638WAT      O29155   2.045   8.757   3.122
 9638WAT     H129156   2.094   8.670   3.119
 9638WAT     H229157   2.026   8.782   3.217
 9639WAT      O29158   2.420   0.326   7.869
 9639WAT     H129159   2.366   0.387   7.926
 9639WAT     H229160   2.463   0.379   7.796
 9640WAT      O29161   9.838   8.072   2.911
 9640WAT     H129162   9.809   8.027   2.827
 9640WAT     H229163   9.926   8.117   2.896
 9641WAT      O29164   2.738   2.176   0.122
 9641WAT     H129165   2.783   2.158   0.034
 9641WAT     H229166   2.787   2.249   0.169
 9642WAT      O29167   7.599   2.175   5.877
 9642WAT     H129168   7.578   2.246   5.810
 9642WAT     H229169   7.588   2.085   5.836
 9643WAT      O29170   8.379   2.879   8.524
 9643WAT     H129171   8.349   2.971   8.498
 9643WAT     H229172   8.308   2.837   8.581
 9644WAT      O29173   4.601   8.218   6.896
 9644WAT     H129174   4.671   8.213   6.825
 9644WAT     H229175   4.569   8.126   6.919
 9645WAT      O29176   0.958   3.992   3.553
 9645WAT     H129177   1.029   3.940   3.600
 9645WAT     H229178   0.877   3.935   3.542
 9646WAT      O29179   1.466   5.236   3.084
 9646WAT     H129180   1.466   5.283   2.996
 9646WAT     H229181   1.371   5.226   3.116
 9647WAT      O29182   1.616   2.758   0.012
 9647WAT     H129183   1.678   2.715  -0.054
 9647WAT     H229184   1.646   2.852   0.029
 9648WAT      O29185   6.170   1.749   5.661
 9648WAT     H129186   6.267   1.749   5.638
 9648WAT     H229187   6.146   1.834   5.707
 9649WAT      O29188   1.475   3.766   2.294
 9649WAT     H129189   1.554   3.732   2.344
 9649WAT     H229190   1.398   3.778   2.357
 9650WAT      O29191   3.267   2.686   2.047
 9650WAT     H129192   3.333   2.721   2.113
 9650WAT     H229193   3.177   2.727   2.064
 9651WAT      O29194   9.126   3.137   1.741
 9651WAT     H129195   9.055   3.144   1.671
 9651WAT     H229196   9.199   3.077   1.708
 9652WAT      O29197   1.252   2.614   5.794
 9652WAT     H129198   1.295   2.677   5.729
 9652WAT     H229199   1.163   2.585   5.759
 9653WAT      O29200   5.860   5.920   9.592
 9653WAT     H129201   5.890   5.827   9.610
 9653WAT     H229202   5.760   5.924   9.590
 9654WAT      O29203   9.445   7.122   6.703
 9654WAT     H129204   9.519   7.189   6.708
 9654WAT     H229205   9.482   7.030   6.714
 9655WAT      O29206   8.001   4.258   6.780
 9655WAT     H129207   7.965   4.316   6.707
 9655WAT     H229208   7.970   4.294   6.868
 9656WAT      O29209   0.349   5.124   3.052
 9656WAT     H129210   0.328   5.222   3.054
 9656WAT     H229211   0.387   5.100   2.963
 9657WAT      O29212   7.386   9.526   2.029
 9657WAT     H129213   7.405   9.442   2.080
 9657WAT     H229214   7.289   9.549   2.038
 9658WAT      O29215   9.868   6.264   9.368
 9658WAT     H129216   9.838   6.172   9.391
 9658WAT     H229217   9.943   6.291   9.429
 9659WAT      O29218   8.745   9.414   2.762
 9659WAT     H129219   8.756   9.379   2.670
 9659WAT     H229220   8.729   9.338   2.825
 9660WAT      O29221   6.689   6.399   9.660
 9660WAT     H129222   6.706   6.489   9.699
 9660WAT     H229223   6.707   6.329   9.729
 9661WAT      O29224   2.496   1.692   1.172
 9661WAT     H129225   2.432   1.696   1.095
 9661WAT     H229226   2.474   1.764   1.237
 9662WAT      O29227   2.414   2.416   2.878
 9662WAT     H129228   2.388   2.338   2.934
 9662WAT     H229229   2.496   2.459   2.917
 9663WAT      O29230   5.865   6.892   2.156
 9663WAT     H129231   5.771   6.882   2.189
 9663WAT     H229232   5.895   6.806   2.114
 9664WAT      O29233   2.318   6.776   0.841
 9664WAT     H129234   2.335   6.798   0.937
 9664WAT     H229235   2.233   6.819   0.812
 9665WAT      O29236   1.789   0.379   0.592
 9665WAT     H129237   1.812   0.468   0.633
 9665WAT     H229238   1.809   0.382   0.494
 9666WAT      O29239   4.107   1.189   6.312
 9666WAT     H129240   4.078   1.210   6.406
 9666WAT     H229241   4.126   1.274   6.263
 9667WAT      O29242   9.046   8.490   7.046
 9667WAT     H129243   9.015   8.486   7.141
 9667WAT     H229244   9.012   8.410   6.997
 9668WAT      O29245   1.285   8.212   2.215
 9668WAT     H129246   1.327   8.289   2.262
 9668WAT     H229247   1.353   8.168   2.156
 9669WAT      O29248   9.473   0.809   1.398
 9669WAT     H129249   9.414   0.889   1.410
 9669WAT     H229250   9.503   0.803   1.303
 9670WAT      O29251   0.217   5.521   5.234
 9670WAT     H129252   0.310   5.485   5.247
 9670WAT     H229253   0.200   5.536   5.137
 9671WAT      O29254   9.561   7.928   3.217
 9671WAT     H129255   9.511   7.925   3.304
 9671WAT     H229256   9.626   7.852   3.213
 9672WAT      O29257   2.003   0.169   6.800
 9672WAT     H129258   1.931   0.235   6.777
 9672WAT     H229259   2.053   0.201   6.880
 9673WAT      O29260   1.352   8.518   3.104
 9673WAT     H129261   1.440   8.539   3.147
 9673WAT     H229262   1.354   8.547   3.009
 9674WAT      O29263   8.726   1.554   2.239
 9674WAT     H129264   8.746   1.490   2.165
 9674WAT     H229265   8.630   1.581   2.235
 9675WAT      O29266   2.446   4.635   2.906
 9675WAT     H129267   2.464   4.724   2.863
 9675WAT     H229268   2.351   4.632   2.937
 9676WAT      O29269   0.832   1.989   8.834
 9676WAT     H129270   0.783   1.949   8.756
 9676WAT     H229271   0.925   1.953   8.838
 9677WAT      O29272   3.766   5.917   3.911
 9677WAT     H129273   3.675   5.877   3.910
 9677WAT     H229274   3.802   5.916   4.005
 9678WAT      O29275   6.089   2.340   0.824
 9678WAT     H129276   6.185   2.367   0.830
 9678WAT     H229277   6.081   2.255   0.772
 9679WAT      O29278   7.017   6.632   2.143
 9679WAT     H129279   7.091   6.691   2.174
 9679WAT     H229280   6.930   6.678   2.155
 9680WAT      O29281   5.141   2.140   1.619
 9680WAT     H129282   5.116   2.045   1.637
 9680WAT     H229283   5.061   2.199   1.632
 9681WAT      O29284   3.501   8.546   2.383
 9681WAT     H129285   3.509   8.617   2.452
 9681WAT     H229286   3.414   8.497   2.395
 9682WAT      O29287   1.405   8.262   6.085
 9682WAT     H129288   1.476   8.202   6.047
 9682WAT     H229289   1.336   8.279   6.015
 9683WAT      O29290   4.514   8.174   2.386
 9683WAT     H129291   4.452   8.156   2.310
 9683WAT     H229292   4.495   8.264   2.425
 9684WAT      O29293   8.267   5.710   9.746
 9684WAT     H129294   8.170   5.732   9.743
 9684WAT     H229295   8.305   5.715   9.654
 9685WAT      O29296   8.976   7.334   2.080
 9685WAT     H129297   8.966   7.423   2.036
 9685WAT     H229298   9.068   7.299   2.063
 9686WAT      O29299   5.824   0.820   4.992
 9686WAT     H129300   5.841   0.893   4.926
 9686WAT     H229301   5.825   0.732   4.946
 9687WAT      O29302   7.960   4.345   9.359
 9687WAT     H129303   8.034   4.375   9.298
 9687WAT     H229304   7.920   4.260   9.324
 9688WAT      O29305   9.163   6.662   6.770
 9688WAT     H129306   9.135   6.751   6.806
 9688WAT     H229307   9.246   6.674   6.714
 9689WAT      O29308   3.687   1.908   4.830
 9689WAT     H129309   3.682   1.923   4.731
 9689WAT     H229310   3.753   1.971   4.870
 9690WAT      O29311   1.167   4.423   3.856
 9690WAT     H129312   1.146   4.358   3.929
 9690WAT     H229313   1.083   4.472   3.830
 9691WAT      O29314   8.096   1.044   8.225
 9691WAT     H129315   8.055   0.956   8.203
 9691WAT     H229316   8.130   1.043   8.319
 9692WAT      O29317   8.918   0.226   9.463
 9692WAT     H129318   8.999   0.222   9.405
 9692WAT     H229319   8.868   0.140   9.457
 9693WAT      O29320   2.816   3.286   0.522
 9693WAT     H129321   2.852   3.364   0.472
 9693WAT     H229322   2.771   3.318   0.605
 9694WAT      O29323   9.409   8.552   4.164
 9694WAT     H129324   9.310   8.536   4.168
 9694WAT     H229325   9.449   8.535   4.253
 9695WAT      O29326   0.970   3.175   4.110
 9695WAT     H129327   1.040   3.107   4.130
 9695WAT     H229328   0.892   3.130   4.066
 9696WAT      O29329   7.151   0.515   0.965
 9696WAT     H129330   7.060   0.474   0.974
 9696WAT     H229331   7.193   0.484   0.880
 9697WAT      O29332   7.304   9.442   6.638
 9697WAT     H129333   7.271   9.366   6.583
 9697WAT     H229334   7.347   9.407   6.722
 9698WAT      O29335   6.001   8.731   6.728
 9698WAT     H129336   6.005   8.641   6.771
 9698WAT     H229337   5.921   8.736   6.668
 9699WAT      O29338   8.829   4.966   0.404
 9699WAT     H129339   8.734   4.994   0.393
 9699WAT     H229340   8.884   5.004   0.330
 9700WAT      O29341   4.846   6.043   4.551
 9700WAT     H129342   4.859   5.948   4.522
 9700WAT     H229343   4.750   6.068   4.542
 9701WAT      O29344   2.968   1.436   6.958
 9701WAT     H129345   3.067   1.433   6.963
 9701WAT     H229346   2.938   1.392   6.873
 9702WAT      O29347   1.317   2.288   1.919
 9702WAT     H129348   1.252   2.258   1.989
 9702WAT     H229349   1.355   2.377   1.945
 9703WAT      O29350   2.238   2.554   5.831
 9703WAT     H129351   2.153   2.588   5.872
 9703WAT     H229352   2.246   2.456   5.847
 9704WAT      O29353   2.907   7.147   6.326
 9704WAT     H129354   2.985   7.122   6.384
 9704WAT     H229355   2.828   7.093   6.352
 9705WAT      O29356   0.646   0.082   5.404
 9705WAT     H129357   0.698   0.166   5.420
 9705WAT     H229358   0.635   0.034   5.491
 9706WAT      O29359   5.678   4.393   7.853
 9706WAT     H129360   5.651   4.420   7.945
 9706WAT     H229361   5.739   4.313   7.858
 9707WAT      O29362   8.353   0.380   1.633
 9707WAT     H129363   8.387   0.465   1.673
 9707WAT     H229364   8.259   0.393   1.601
 9708WAT      O29365   6.052   3.196   8.776
 9708WAT     H129366   5.953   3.196   8.793
 9708WAT     H229367   6.100   3.206   8.863
 9709WAT      O29368   8.203   1.669   4.923
 9709WAT     H129369   8.144   1.742   4.956
 9709WAT     H229370   8.169   1.635   4.835
 9710WAT      O29371   9.159   7.877   6.556
 9710WAT     H129372   9.085   7.819   6.588
 9710WAT     H229373   9.211   7.828   6.486
 9711WAT      O29374   3.765   2.919   9.225
 9711WAT     H129375   3.674   2.957   9.241
 9711WAT     H229376   3.807   2.895   9.312
 9712WAT      O29377   8.914   0.639   2.814
 9712WAT     H129378   8.937   0.562   2.755
 9712WAT     H229379   8.966   0.719   2.786
 9713WAT      O29380   3.056   8.991   9.254
 9713WAT     H129381   3.064   9.089   9.236
 9713WAT     H229382   3.022   8.945   9.172
 9714WAT      O29383   9.767   6.891   8.853
 9714WAT     H129384   9.777   6.961   8.923
 9714WAT     H229385   9.858   6.860   8.823
 9715WAT      O29386   1.702   0.906   6.385
 9715WAT     H129387   1.633   0.836   6.366
 9715WAT     H229388   1.778   0.864   6.434
 9716WAT      O29389   2.635   5.495   7.192
 9716WAT     H129390   2.681   5.407   7.189
 9716WAT     H229391   2.694   5.565   7.151
 9717WAT      O29392   5.686   8.610   6.617
 9717WAT     H129393   5.647   8.692   6.658
 9717WAT     H229394   5.734   8.557   6.687
 9718WAT      O29395   2.580   2.138   1.408
 9718WAT     H129396   2.670   2.181   1.418
 9718WAT     H229397   2.510   2.199   1.445
 9719WAT      O29398   1.759   7.467   1.095
 9719WAT     H129399   1.675   7.522   1.098
 9719WAT     H229400   1.832   7.514   1.143
 9720WAT      O29401   7.685   0.960   9.797
 9720WAT     H129402   7.587   0.942   9.796
 9720WAT     H229403   7.723   0.942   9.707
 9721WAT      O29404   0.200   0.574   7.153
 9721WAT     H129405   0.253   0.656   7.134
 9721WAT     H229406   0.104   0.590   7.131
 9722WAT      O29407   9.667   9.001   4.963
 9722WAT     H129408   9.742   8.964   5.018
 9722WAT     H229409   9.695   9.006   4.867
 9723WAT      O29410   2.649   1.113   8.890
 9723WAT     H129411   2.709   1.085   8.815
 9723WAT     H229412   2.702   1.121   8.975
 9724WAT      O29413   2.246   8.073   6.543
 9724WAT     H129414   2.296   8.043   6.624
 9724WAT     H229415   2.189   8.151   6.566
 9725WAT      O29416   3.891   6.420   9.395
 9725WAT     H129417   3.926   6.477   9.470
 9725WAT     H229418   3.819   6.470   9.346
 9726WAT      O29419   1.890   3.473   3.091
 9726WAT     H129420   1.954   3.536   3.135
 9726WAT     H229421   1.921   3.379   3.103
 9727WAT      O29422   0.345   0.692   4.429
 9727WAT     H129423   0.389   0.730   4.510
 9727WAT     H229424   0.338   0.593   4.438
 9728WAT      O29425   7.258   0.465   0.072
 9728WAT     H129426   7.204   0.426   0.147
 9728WAT     H229427   7.238   0.563   0.064
 9729WAT      O29428   7.039   3.542   2.695
 9729WAT     H129429   6.958   3.528   2.752
 9729WAT     H229430   7.117   3.568   2.753
 9730WAT      O29431   0.890   6.304   6.660
 9730WAT     H129432   0.953   6.331   6.587
 9730WAT     H229433   0.876   6.382   6.722
 9731WAT      O29434   4.645   4.494   8.964
 9731WAT     H129435   4.640   4.416   8.902
 9731WAT     H229436   4.735   4.497   9.007
 9732WAT      O29437   5.609   8.350   2.771
 9732WAT     H129438   5.622   8.340   2.870
 9732WAT     H229439   5.648   8.437   2.741
 9733WAT      O29440   8.920   6.952   4.715
 9733WAT     H129441   9.020   6.942   4.718
 9733WAT     H229442   8.878   6.864   4.696
 9734WAT      O29443   2.459   5.296   5.235
 9734WAT     H129444   2.396   5.233   5.279
 9734WAT     H229445   2.407   5.360   5.178
 9735WAT      O29446   8.040   9.088   0.308
 9735WAT     H129447   8.106   9.069   0.381
 9735WAT     H229448   7.950   9.054   0.335
 9736WAT      O29449   6.494   9.492   0.820
 9736WAT     H129450   6.534   9.406   0.851
 9736WAT     H229451   6.415   9.515   0.878
 9737WAT      O29452   1.559   2.715   7.204
 9737WAT     H129453   1.509   2.796   7.234
 9737WAT     H229454   1.498   2.636   7.203
 9738WAT      O29455   9.442   5.078   5.952
 9738WAT     H129456   9.464   4.984   5.924
 9738WAT     H229457   9.514   5.140   5.921
 9739WAT      O29458   6.338   5.641   2.541
 9739WAT     H129459   6.243   5.615   2.522
 9739WAT     H229460   6.395   5.559   2.548
 9740WAT      O29461   9.306   3.642   8.678
 9740WAT     H129462   9.376   3.636   8.749
 9740WAT     H229463   9.255   3.556   8.674
 9741WAT      O29464   2.872   0.469   2.493
 9741WAT     H129465   2.844   0.428   2.407
 9741WAT     H229466   2.792   0.504   2.542
 9742WAT      O29467   6.874   8.337   1.463
 9742WAT     H129468   6.903   8.427   1.429
 9742WAT     H229469   6.780   8.320   1.433
 9743WAT      O29470   8.666   8.426   0.321
 9743WAT     H129471   8.684   8.444   0.418
 9743WAT     H229472   8.736   8.363   0.286
 9744WAT      O29473   6.991   9.119   4.029
 9744WAT     H129474   6.963   9.202   3.981
 9744WAT     H229475   7.078   9.135   4.076
 9745WAT      O29476   2.044   8.130   8.025
 9745WAT     H129477   2.101   8.189   8.082
 9745WAT     H229478   2.069   8.142   7.929
 9746WAT      O29479   2.485   8.007   6.193
 9746WAT     H129480   2.397   8.047   6.217
 9746WAT     H229481   2.540   8.075   6.143
 9747WAT      O29482   6.418   3.066   1.853
 9747WAT     H129483   6.445   3.020   1.768
 9747WAT     H229484   6.328   3.108   1.841
 9748WAT      O29485   7.501   6.993   0.662
 9748WAT     H129486   7.429   6.971   0.729
 9748WAT     H229487   7.459   7.026   0.578
 9749WAT      O29488   3.898   2.336   7.800
 9749WAT     H129489   3.909   2.245   7.841
 9749WAT     H229490   3.899   2.405   7.873
 9750WAT      O29491   7.273   9.089   2.406
 9750WAT     H129492   7.288   9.176   2.359
 9750WAT     H229493   7.278   9.103   2.505
 9751WAT      O29494   6.068   1.931   0.976
 9751WAT     H129495   6.004   1.964   1.045
 9751WAT     H229496   6.099   2.007   0.919
 9752WAT      O29497   0.097   6.910   0.310
 9752WAT     H129498   0.195   6.924   0.326
 9752WAT     H229499   0.080   6.905   0.211
 9753WAT      O29500   9.542   2.241   4.172
 9753WAT     H129501   9.495   2.248   4.084
 9753WAT     H229502   9.609   2.315   4.180
 9754WAT      O29503   8.893   7.194   0.271
 9754WAT     H129504   8.961   7.266   0.285
 9754WAT     H229505   8.938   7.104   0.280
 9755WAT      O29506   7.999   5.800   8.157
 9755WAT     H129507   7.965   5.712   8.125
 9755WAT     H229508   7.977   5.871   8.090
 9756WAT      O29509   1.321   2.532   2.001
 9756WAT     H129510   1.227   2.500   1.991
 9756WAT     H229511   1.338   2.555   2.097
 9757WAT      O29512   3.134   6.883   0.461
 9757WAT     H129513   3.128   6.975   0.500
 9757WAT     H229514   3.067   6.875   0.386
 9758WAT      O29515   7.173   6.236   4.586
 9758WAT     H129516   7.143   6.245   4.491
 9758WAT     H229517   7.169   6.325   4.631
 9759WAT      O29518   3.707   0.158   3.923
 9759WAT     H129519   3.760   0.107   3.991
 9759WAT     H229520   3.754   0.244   3.902
 9760WAT      O29521   3.998   6.804   9.315
 9760WAT     H129522   3.955   6.731   9.263
 9760WAT     H229523   4.014   6.774   9.409
 9761WAT      O29524   8.363   8.284   8.169
 9761WAT     H129525   8.395   8.365   8.219
 9761WAT     H229526   8.267   8.267   8.193
 9762WAT      O29527   6.931   9.042   6.922
 9762WAT     H129528   6.882   9.033   6.835
 9762WAT     H229529   7.014   9.096   6.908
 9763WAT      O29530   8.356   9.773   8.363
 9763WAT     H129531   8.350   9.730   8.454
 9763WAT     H229532   8.427   9.727   8.310
 9764WAT      O29533   6.496   3.141   8.292
 9764WAT     H129534   6.589   3.177   8.284
 9764WAT     H229535   6.485   3.096   8.380
 9765WAT      O29536   6.302   1.593   1.344
 9765WAT     H129537   6.363   1.611   1.266
 9765WAT     H229538   6.207   1.595   1.313
 9766WAT      O29539   8.074   5.888   1.173
 9766WAT     H129540   8.046   5.883   1.269
 9766WAT     H229541   8.156   5.945   1.165
 9767WAT      O29542   7.220   8.002   6.064
 9767WAT     H129543   7.171   7.993   6.150
 9767WAT     H229544   7.164   7.966   5.989
 9768WAT      O29545   3.698   3.987   4.380
 9768WAT     H129546   3.793   3.994   4.351
 9768WAT     H229547   3.692   3.924   4.458
 9769WAT      O29548   0.894   5.689   2.286
 9769WAT     H129549   0.956   5.741   2.344
 9769WAT     H229550   0.884   5.736   2.198
 9770WAT      O29551   1.163   2.144   2.093
 9770WAT     H129552   1.099   2.184   2.028
 9770WAT     H229553   1.198   2.058   2.058
 9771WAT      O29554   6.471   3.308   4.013
 9771WAT     H129555   6.538   3.245   4.052
 9771WAT     H229556   6.402   3.256   3.963
 9772WAT      O29557   4.912   9.460   9.722
 9772WAT     H129558   4.831   9.477   9.666
 9772WAT     H229559   4.940   9.545   9.767
 9773WAT      O29560   4.992   6.749   6.795
 9773WAT     H129561   5.035   6.789   6.714
 9773WAT     H229562   5.036   6.662   6.816
 9774WAT      O29563   3.656   1.528   2.420
 9774WAT     H129564   3.711   1.577   2.352
 9774WAT     H229565   3.641   1.586   2.499
 9775WAT      O29566   2.787   9.363   0.467
 9775WAT     H129567   2.707   9.388   0.522
 9775WAT     H229568   2.804   9.265   0.475
 9776WAT      O29569   3.864   5.610   2.705
 9776WAT     H129570   3.848   5.604   2.804
 9776WAT     H229571   3.963   5.615   2.687
 9777WAT      O29572   6.607   3.295   0.917
 9777WAT     H129573   6.518   3.269   0.953
 9777WAT     H229574   6.609   3.280   0.818
 9778WAT      O29575   8.836   9.209   5.930
 9778WAT     H129576   8.856   9.119   5.968
 9778WAT     H229577   8.913   9.270   5.947
 9779WAT      O29578   0.148   0.442   3.137
 9779WAT     H129579   0.108   0.397   3.058
 9779WAT     H229580   0.093   0.522   3.162
 9780WAT      O29581   7.190   4.291   7.172
 9780WAT     H129582   7.159   4.378   7.133
 9780WAT     H229583   7.290   4.285   7.163
 9781WAT      O29584   2.721   3.569   3.233
 9781WAT     H129585   2.817   3.551   3.210
 9781WAT     H229586   2.708   3.667   3.246
 9782WAT      O29587   2.968   3.965   2.500
 9782WAT     H129588   3.063   3.989   2.519
 9782WAT     H229589   2.943   3.881   2.548
 9783WAT      O29590   9.516   1.142   2.300
 9783WAT     H129591   9.609   1.139   2.336
 9783WAT     H229592   9.515   1.189   2.212
 9784WAT      O29593   1.213   7.607   3.165
 9784WAT     H129594   1.312   7.596   3.176
 9784WAT     H229595   1.175   7.655   3.244
 9785WAT      O29596   9.172   6.071   4.457
 9785WAT     H129597   9.266   6.100   4.476
 9785WAT     H229598   9.112   6.106   4.529
 9786WAT      O29599   5.454   4.352   6.790
 9786WAT     H129600   5.425   4.446   6.807
 9786WAT     H229601   5.520   4.325   6.860
 9787WAT      O29602   1.446   2.273   8.062
 9787WAT     H129603   1.349   2.252   8.077
 9787WAT     H229604   1.466   2.270   7.964
 9788WAT      O29605   8.823   2.267   0.077
 9788WAT     H129606   8.765   2.348   0.088
 9788WAT     H229607   8.881   2.257   0.158
 9789WAT      O29608   3.734   6.159   5.890
 9789WAT     H129609   3.744   6.259   5.893
 9789WAT     H229610   3.823   6.116   5.897
 9790WAT      O29611   1.992   2.947   6.032
 9790WAT     H129612   2.069   2.889   6.060
 9790WAT     H229613   2.007   2.980   5.939
 9791WAT      O29614   2.677   8.496   7.155
 9791WAT     H129615   2.631   8.467   7.238
 9791WAT     H229616   2.609   8.529   7.089
 9792WAT      O29617   7.761   7.291   7.250
 9792WAT     H129618   7.846   7.309   7.300
 9792WAT     H229619   7.779   7.300   7.151
 9793WAT      O29620   8.942   9.552   6.557
 9793WAT     H129621   8.963   9.622   6.488
 9793WAT     H229622   8.893   9.594   6.633
 9794WAT      O29623   4.089   9.163   8.341
 9794WAT     H129624   4.100   9.229   8.415
 9794WAT     H229625   4.126   9.202   8.256
 9795WAT      O29626   8.514   9.653   9.679
 9795WAT     H129627   8.426   9.646   9.725
 9795WAT     H229628   8.531   9.570   9.627
 9796WAT      O29629   1.862   9.617   7.190
 9796WAT     H129630   1.763   9.627   7.184
 9796WAT     H229631   1.900   9.607   7.098
 9797WAT      O29632   2.028   8.984   7.758
 9797WAT     H129633   1.989   9.067   7.719
 9797WAT     H229634   2.128   8.984   7.745
 9798WAT      O29635   3.056   3.139   2.667
 9798WAT     H129636   3.070   3.075   2.743
 9798WAT     H229637   3.002   3.094   2.596
 9799WAT      O29638   8.999   7.931   8.200
 9799WAT     H129639   8.949   7.884   8.273
 9799WAT     H229640   8.992   7.878   8.115
 9800WAT      O29641   8.424   0.215   2.323
 9800WAT     H129642   8.517   0.183   2.341
 9800WAT     H229643   8.384   0.253   2.406
 9801WAT      O29644   3.302   5.622   4.639
 9801WAT     H129645   3.285   5.698   4.701
 9801WAT     H229646   3.337   5.657   4.552
 9802WAT      O29647   3.764   2.143   2.244
 9802WAT     H129648   3.852   2.116   2.284
 9802WAT     H229649   3.761   2.112   2.149
 9803WAT      O29650   6.426   5.848   0.535
 9803WAT     H129651   6.342   5.847   0.481
 9803WAT     H229652   6.424   5.772   0.601
 9804WAT      O29653   4.177   9.169   7.181
 9804WAT     H129654   4.262   9.117   7.179
 9804WAT     H229655   4.152   9.197   7.089
 9805WAT      O29656   0.127   7.071   6.876
 9805WAT     H129657   0.114   7.167   6.850
 9805WAT     H229658   0.076   7.051   6.959
 9806WAT      O29659   7.460   5.900   9.782
 9806WAT     H129660   7.409   5.984   9.800
 9806WAT     H229661   7.445   5.835   9.856
 9807WAT      O29662   6.529   5.332   3.456
 9807WAT     H129663   6.453   5.278   3.493
 9807WAT     H229664   6.533   5.321   3.357
 9808WAT      O29665   0.739   9.518   6.230
 9808WAT     H129666   0.716   9.522   6.133
 9808WAT     H229667   0.838   9.502   6.240
 9809WAT      O29668   2.687   2.570   5.905
 9809WAT     H129669   2.723   2.502   5.841
 9809WAT     H229670   2.763   2.622   5.945
 9810WAT      O29671   9.620   6.190   4.627
 9810WAT     H129672   9.626   6.277   4.675
 9810WAT     H229673   9.705   6.175   4.576
 9811WAT      O29674   1.535   1.623   6.382
 9811WAT     H129675   1.514   1.570   6.300
 9811WAT     H229676   1.472   1.599   6.455
 9812WAT      O29677   4.328   8.552   5.692
 9812WAT     H129678   4.264   8.619   5.730
 9812WAT     H229679   4.421   8.587   5.701
 9813WAT      O29680   5.610   9.405   4.784
 9813WAT     H129681   5.567   9.484   4.827
 9813WAT     H229682   5.652   9.433   4.697
 9814WAT      O29683   9.192   0.011   0.836
 9814WAT     H129684   9.219  -0.083   0.854
 9814WAT     H229685   9.160   0.020   0.741
 9815WAT      O29686   1.451   6.631   9.426
 9815WAT     H129687   1.446   6.540   9.385
 9815WAT     H229688   1.526   6.683   9.386
 9816WAT      O29689   4.749   0.417   2.347
 9816WAT     H129690   4.830   0.373   2.388
 9816WAT     H229691   4.693   0.347   2.303
 9817WAT      O29692   6.396   9.492   8.860
 9817WAT     H129693   6.323   9.477   8.793
 9817WAT     H229694   6.471   9.429   8.842
 9818WAT      O29695   2.085   6.633   4.346
 9818WAT     H129696   2.109   6.536   4.346
 9818WAT     H229697   2.154   6.684   4.296
 9819WAT      O29698   3.701   9.254   8.584
 9819WAT     H129699   3.674   9.186   8.653
 9819WAT     H229700   3.626   9.318   8.570
 9820WAT      O29701   5.526   1.257   6.043
 9820WAT     H129702   5.437   1.216   6.063
 9820WAT     H229703   5.572   1.280   6.129
 9821WAT      O29704   3.707   3.895   6.662
 9821WAT     H129705   3.779   3.956   6.695
 9821WAT     H229706   3.685   3.918   6.567
 9822WAT      O29707   6.133   0.703   0.115
 9822WAT     H129708   6.185   0.687   0.031
 9822WAT     H229709   6.077   0.786   0.103
 9823WAT      O29710   9.372   7.545   9.107
 9823WAT     H129711   9.403   7.454   9.135
 9823WAT     H229712   9.434   7.614   9.146
 9824WAT      O29713   4.289   4.016   9.704
 9824WAT     H129714   4.266   4.060   9.617
 9824WAT     H229715   4.210   4.017   9.764
 9825WAT      O29716   0.275   6.534   4.769
 9825WAT     H129717   0.326   6.496   4.692
 9825WAT     H229718   0.331   6.530   4.852
 9826WAT      O29719   9.887   5.757   0.696
 9826WAT     H129720   9.826   5.799   0.763
 9826WAT     H229721   9.980   5.789   0.712
 9827WAT      O29722   1.019   8.341   1.351
 9827WAT     H129723   1.098   8.370   1.296
 9827WAT     H229724   1.048   8.324   1.445
 9828WAT      O29725   3.645   2.460   2.400
 9828WAT     H129726   3.684   2.548   2.376
 9828WAT     H229727   3.546   2.467   2.407
 9829WAT      O29728   1.210   3.288   6.219
 9829WAT     H129729   1.301   3.304   6.180
 9829WAT     H229730   1.220   3.255   6.313
 9830WAT      O29731   0.936   8.622   3.231
 9830WAT     H129732   0.919   8.626   3.133
 9830WAT     H229733   0.903   8.706   3.274
 9831WAT      O29734   1.108   0.156   2.881
 9831WAT     H129735   1.160   0.154   2.966
 9831WAT     H229736   1.076   0.063   2.859
 9832WAT      O29737   4.794   8.812   9.280
 9832WAT     H129738   4.725   8.766   9.224
 9832WAT     H229739   4.771   8.802   9.377
 9833WAT      O29740   0.161   0.060   3.779
 9833WAT     H129741   0.244   0.005   3.768
 9833WAT     H229742   0.176   0.152   3.743
 9834WAT      O29743   0.609   4.211   5.367
 9834WAT     H129744   0.521   4.163   5.373
 9834WAT     H229745   0.681   4.153   5.404
 9835WAT      O29746   5.147   4.024   4.040
 9835WAT     H129747   5.085   3.993   4.112
 9835WAT     H229748   5.192   3.945   3.999
 9836WAT      O29749   5.398   1.633   6.248
 9836WAT     H129750   5.453   1.619   6.331
 9836WAT     H229751   5.364   1.727   6.247
 9837WAT      O29752   2.507   2.966   4.015
 9837WAT     H129753   2.525   3.052   3.968
 9837WAT     H229754   2.535   2.975   4.111
 9838WAT      O29755   2.377   9.200   8.805
 9838WAT     H129756   2.342   9.286   8.769
 9838WAT     H229757   2.440   9.218   8.881
 9839WAT      O29758   0.803   1.928   3.489
 9839WAT     H129759   0.770   2.021   3.474
 9839WAT     H229760   0.893   1.917   3.447
 9840WAT      O29761   0.046   1.107   2.609
 9840WAT     H129762   0.015   1.167   2.682
 9840WAT     H229763   0.146   1.107   2.606
 9841WAT      O29764   5.703   5.979   5.484
 9841WAT     H129765   5.664   6.034   5.558
 9841WAT     H229766   5.769   5.914   5.522
 9842WAT      O29767   8.129   6.913   8.373
 9842WAT     H129768   8.125   7.000   8.421
 9842WAT     H229769   8.111   6.838   8.437
 9843WAT      O29770   0.952   3.631   8.352
 9843WAT     H129771   0.958   3.553   8.290
 9843WAT     H229772   0.954   3.716   8.300
 9844WAT      O29773   5.973   7.242   5.153
 9844WAT     H129774   5.989   7.229   5.055
 9844WAT     H229775   6.044   7.301   5.191
 9845WAT      O29776   6.779   2.087   5.210
 9845WAT     H129777   6.879   2.082   5.212
 9845WAT     H229778   6.749   2.108   5.117
 9846WAT      O29779   6.418   2.333   8.642
 9846WAT     H129780   6.400   2.301   8.549
 9846WAT     H229781   6.414   2.255   8.705
 9847WAT      O29782   0.692   0.065   0.496
 9847WAT     H129783   0.641   0.040   0.413
 9847WAT     H229784   0.789   0.073   0.474
 9848WAT      O29785   2.347   7.789   3.678
 9848WAT     H129786   2.379   7.820   3.589
 9848WAT     H229787   2.311   7.867   3.730
 9849WAT      O29788   2.727   3.535   4.200
 9849WAT     H129789   2.693   3.479   4.124
 9849WAT     H229790   2.824   3.553   4.187
 9850WAT      O29791   8.836   9.700   5.906
 9850WAT     H129792   8.813   9.677   5.812
 9850WAT     H229793   8.772   9.770   5.940
 9851WAT      O29794   4.176   4.457   3.117
 9851WAT     H129795   4.135   4.367   3.129
 9851WAT     H229796   4.156   4.514   3.196
 9852WAT      O29797   6.467   9.227   2.927
 9852WAT     H129798   6.461   9.326   2.938
 9852WAT     H229799   6.421   9.182   3.003
 9853WAT      O29800   2.764   1.731   5.668
 9853WAT     H129801   2.792   1.698   5.758
 9853WAT     H229802   2.667   1.707   5.654
 9854WAT      O29803   0.599   8.985   3.013
 9854WAT     H129804   0.511   9.024   3.042
 9854WAT     H229805   0.634   8.925   3.085
 9855WAT      O29806   4.392   1.320   6.153
 9855WAT     H129807   4.409   1.361   6.242
 9855WAT     H229808   4.375   1.222   6.164
 9856WAT      O29809   2.001   2.085   9.504
 9856WAT     H129810   2.092   2.055   9.535
 9856WAT     H229811   1.937   2.081   9.581
 9857WAT      O29812   5.303   6.676   5.948
 9857WAT     H129813   5.305   6.668   5.849
 9857WAT     H229814   5.276   6.589   5.988
 9858WAT      O29815   8.015   8.455   9.462
 9858WAT     H129816   8.098   8.511   9.456
 9858WAT     H229817   8.035   8.369   9.509
 9859WAT      O29818   5.614   2.501   3.559
 9859WAT     H129819   5.516   2.519   3.548
 9859WAT     H229820   5.663   2.529   3.477
 9860WAT      O29821   4.068   7.796   7.516
 9860WAT     H129822   4.055   7.708   7.561
 9860WAT     H229823   3.980   7.833   7.487
 9861WAT      O29824   5.291   2.566   8.662
 9861WAT     H129825   5.363   2.497   8.667
 9861WAT     H229826   5.330   2.656   8.681
 9862WAT      O29827   4.368   9.087   8.936
 9862WAT     H129828   4.379   9.150   8.859
 9862WAT     H229829   4.433   9.111   9.008
 9863WAT      O29830   9.332   5.756   7.567
 9863WAT     H129831   9.278   5.813   7.628
 9863WAT     H229832   9.351   5.668   7.611
 9864WAT      O29833   9.836   3.867   8.583
 9864WAT     H129834   9.929   3.895   8.559
 9864WAT     H229835   9.818   3.776   8.545
 9865WAT      O29836   5.203   8.118   2.832
 9865WAT     H129837   5.146   8.168   2.897
 9865WAT     H229838   5.156   8.034   2.805
 9866WAT      O29839   8.145   6.558   4.378
 9866WAT     H129840   8.196   6.514   4.452
 9866WAT     H229841   8.190   6.538   4.291
 9867WAT      O29842   2.816   2.269   5.438
 9867WAT     H129843   2.902   2.279   5.387
 9867WAT     H229844   2.813   2.179   5.481
 9868WAT      O29845   9.285   8.700   5.269
 9868WAT     H129846   9.211   8.759   5.237
 9868WAT     H229847   9.278   8.610   5.227
 9869WAT      O29848   4.715   0.430   4.355
 9869WAT     H129849   4.727   0.521   4.395
 9869WAT     H229850   4.663   0.372   4.419
 9870WAT      O29851   8.602   4.076   3.796
 9870WAT     H129852   8.696   4.042   3.808
 9870WAT     H229853   8.599   4.174   3.816
 9871WAT      O29854   6.041   4.391   5.623
 9871WAT     H129855   5.992   4.334   5.689
 9871WAT     H229856   6.045   4.344   5.534
 9872WAT      O29857   0.941   4.434   2.860
 9872WAT     H129858   0.921   4.461   2.954
 9872WAT     H229859   0.929   4.512   2.799
 9873WAT      O29860   1.529   8.797   0.792
 9873WAT     H129861   1.615   8.747   0.789
 9873WAT     H229862   1.546   8.894   0.772
 9874WAT      O29863   9.417   0.019   4.247
 9874WAT     H129864   9.418   0.117   4.266
 9874WAT     H229865   9.336  -0.022   4.287
 9875WAT      O29866   0.035   1.809   5.197
 9875WAT     H129867   0.029   1.814   5.297
 9875WAT     H229868  -0.006   1.892   5.157
 9876WAT      O29869   5.540   9.590   9.855
 9876WAT     H129870   5.547   9.516   9.922
 9876WAT     H229871   5.515   9.552   9.766
 9877WAT      O29872   6.996   7.191   1.026
 9877WAT     H129873   6.998   7.279   0.979
 9877WAT     H229874   7.065   7.190   1.098
 9878WAT      O29875   7.752   9.090   0.634
 9878WAT     H129876   7.785   9.160   0.571
 9878WAT     H229877   7.822   9.071   0.703
 9879WAT      O29878   0.958   5.506   6.816
 9879WAT     H129879   1.019   5.430   6.835
 9879WAT     H229880   0.894   5.480   6.743
 9880WAT      O29881   4.983   6.895   6.074
 9880WAT     H129882   4.926   6.962   6.025
 9880WAT     H229883   5.077   6.930   6.080
 9881WAT      O29884   5.754   1.817   2.234
 9881WAT     H129885   5.834   1.782   2.282
 9881WAT     H229886   5.781   1.893   2.174
 9882WAT      O29887   6.265   2.209   4.431
 9882WAT     H129888   6.363   2.210   4.411
 9882WAT     H229889   6.229   2.302   4.422
 9883WAT      O29890   4.568   3.258   7.471
 9883WAT     H129891   4.505   3.292   7.542
 9883WAT     H229892   4.605   3.336   7.420
 9884WAT      O29893   4.679   6.463   8.480
 9884WAT     H129894   4.601   6.407   8.508
 9884WAT     H229895   4.762   6.428   8.523
 9885WAT      O29896   4.985   7.741   2.994
 9885WAT     H129897   4.930   7.761   3.075
 9885WAT     H229898   4.990   7.823   2.936
 9886WAT      O29899   4.913   2.161   6.651
 9886WAT     H129900   4.844   2.151   6.722
 9886WAT     H229901   4.892   2.241   6.595
 9887WAT      O29902   8.392   2.510   5.527
 9887WAT     H129903   8.361   2.528   5.620
 9887WAT     H229904   8.419   2.596   5.483
 9888WAT      O29905   2.095   4.650   1.375
 9888WAT     H129906   2.087   4.579   1.305
 9888WAT     H229907   2.087   4.740   1.333
 9889WAT      O29908   0.482   7.059   8.571
 9889WAT     H129909   0.394   7.081   8.530
 9889WAT     H229910   0.543   7.023   8.500
 9890WAT      O29911   2.612   9.592   9.543
 9890WAT     H129912   2.597   9.690   9.526
 9890WAT     H229913   2.704   9.567   9.513
 9891WAT      O29914   7.435   4.826   2.219
 9891WAT     H129915   7.479   4.785   2.139
 9891WAT     H229916   7.343   4.787   2.230
 9892WAT      O29917   7.013   2.763   1.777
 9892WAT     H129918   6.922   2.726   1.763
 9892WAT     H229919   7.011   2.863   1.768
 9893WAT      O29920   3.890   3.506   1.272
 9893WAT     H129921   3.844   3.518   1.184
 9893WAT     H229922   3.956   3.579   1.286
 9894WAT      O29923   9.387   2.156   0.892
 9894WAT     H129924   9.404   2.091   0.817
 9894WAT     H229925   9.300   2.203   0.876
 9895WAT      O29926   8.797   3.133   3.530
 9895WAT     H129927   8.827   3.132   3.435
 9895WAT     H229928   8.864   3.181   3.586
 9896WAT      O29929   7.153   6.843   8.553
 9896WAT     H129930   7.114   6.931   8.578
 9896WAT     H229931   7.247   6.837   8.588
 9897WAT      O29932   3.424   4.874   1.532
 9897WAT     H129933   3.344   4.839   1.581
 9897WAT     H229934   3.421   4.974   1.531
 9898WAT      O29935   8.675   1.725   4.303
 9898WAT     H129936   8.601   1.731   4.237
 9898WAT     H229937   8.668   1.639   4.354
 9899WAT      O29938   3.943   0.760   7.447
 9899WAT     H129939   4.012   0.739   7.378
 9899WAT     H229940   3.853   0.731   7.414
 9900WAT      O29941   7.588   9.398   7.991
 9900WAT     H129942   7.519   9.348   7.939
 9900WAT     H229943   7.678   9.355   7.977
 9901WAT      O29944   2.140   6.352   0.092
 9901WAT     H129945   2.047   6.353   0.053
 9901WAT     H229946   2.191   6.431   0.058
 9902WAT      O29947   7.942   1.340   3.321
 9902WAT     H129948   8.008   1.291   3.378
 9902WAT     H229949   7.880   1.392   3.379
 9903WAT      O29950   3.585   5.717   6.164
 9903WAT     H129951   3.643   5.640   6.190
 9903WAT     H229952   3.514   5.730   6.233
 9904WAT      O29953   6.112   3.183   3.410
 9904WAT     H129954   6.110   3.251   3.336
 9904WAT     H229955   6.103   3.092   3.371
 9905WAT      O29956   4.944   7.790   0.845
 9905WAT     H129957   4.984   7.848   0.916
 9905WAT     H229958   5.016   7.738   0.800
 9906WAT      O29959   4.922   2.296   1.701
 9906WAT     H129960   4.829   2.332   1.697
 9906WAT     H229961   4.975   2.348   1.768
 9907WAT      O29962   0.181   9.306   6.552
 9907WAT     H129963   0.083   9.307   6.531
 9907WAT     H229964   0.232   9.340   6.474
 9908WAT      O29965   8.226   1.093   8.461
 9908WAT     H129966   8.317   1.073   8.426
 9908WAT     H229967   8.230   1.175   8.519
 9909WAT      O29968   0.156   9.735   6.703
 9909WAT     H129969   0.207   9.665   6.754
 9909WAT     H229970   0.101   9.789   6.767
 9910WAT      O29971   0.432   7.141   3.061
 9910WAT     H129972   0.485   7.096   3.133
 9910WAT     H229973   0.454   7.099   2.973
 9911WAT      O29974   2.949   9.723   1.543
 9911WAT     H129975   2.949   9.628   1.512
 9911WAT     H229976   2.982   9.782   1.468
 9912WAT      O29977   1.519   3.333   6.705
 9912WAT     H129978   1.534   3.392   6.626
 9912WAT     H229979   1.604   3.285   6.727
 9913WAT      O29980   7.168   4.286   7.449
 9913WAT     H129981   7.261   4.261   7.474
 9913WAT     H229982   7.152   4.262   7.354
 9914WAT      O29983   9.718   9.261   8.059
 9914WAT     H129984   9.735   9.169   8.025
 9914WAT     H229985   9.803   9.314   8.058
 9915WAT      O29986   2.621   2.783   4.999
 9915WAT     H129987   2.560   2.824   5.067
 9915WAT     H229988   2.699   2.741   5.044
 9916WAT      O29989   3.953   3.206   9.703
 9916WAT     H129990   3.876   3.174   9.757
 9916WAT     H229991   3.942   3.176   9.608
 9917WAT      O29992   0.588   5.713   9.176
 9917WAT     H129993   0.500   5.760   9.171
 9917WAT     H229994   0.662   5.781   9.174
 9918WAT      O29995   6.507   1.977   2.775
 9918WAT     H129996   6.455   1.904   2.819
 9918WAT     H229997   6.511   1.961   2.677
 9919WAT      O29998   7.514   9.181   0.283
 9919WAT     H129999   7.571   9.248   0.329
 9919WAT     H230000   7.560   9.149   0.200
 9920WAT      O30001   9.028   1.701   3.701
 9920WAT     H130002   8.999   1.742   3.788
 9920WAT     H230003   9.082   1.619   3.719
 9921WAT      O30004   0.645   1.810   9.889
 9921WAT     H130005   0.704   1.823   9.810
 9921WAT     H230006   0.583   1.733   9.873
 9922WAT      O30007   1.220   5.506   3.827
 9922WAT     H130008   1.240   5.478   3.920
 9922WAT     H230009   1.122   5.527   3.818
 9923WAT      O30010   5.694   4.689   4.697
 9923WAT     H130011   5.649   4.699   4.608
 9923WAT     H230012   5.718   4.593   4.711
 9924WAT      O30013   3.862   3.444   3.216
 9924WAT     H130014   3.896   3.524   3.167
 9924WAT     H230015   3.788   3.402   3.164
 9925WAT      O30016   0.762   5.727   3.277
 9925WAT     H130017   0.773   5.635   3.316
 9925WAT     H230018   0.773   5.722   3.178
 9926WAT      O30019   1.797   1.810   8.679
 9926WAT     H130020   1.729   1.758   8.628
 9926WAT     H230021   1.766   1.905   8.689
 9927WAT      O30022   4.267   7.541   4.164
 9927WAT     H130023   4.328   7.611   4.127
 9927WAT     H230024   4.313   7.452   4.160
 9928WAT      O30025   7.696   0.882   5.723
 9928WAT     H130026   7.601   0.883   5.692
 9928WAT     H230027   7.713   0.803   5.781
 9929WAT      O30028   8.902   4.948   2.006
 9929WAT     H130029   8.875   5.001   2.087
 9929WAT     H230030   8.987   4.899   2.026
 9930WAT      O30031   3.593   0.633   8.084
 9930WAT     H130032   3.692   0.645   8.093
 9930WAT     H230033   3.558   0.585   8.164
 9931WAT      O30034   8.351   0.355   6.794
 9931WAT     H130035   8.266   0.306   6.812
 9931WAT     H230036   8.372   0.350   6.696
 9932WAT      O30037   9.846   5.130   1.707
 9932WAT     H130038   9.759   5.094   1.741
 9932WAT     H230039   9.912   5.134   1.782
 9933WAT      O30040   3.906   3.848   4.171
 9933WAT     H130041   3.920   3.849   4.270
 9933WAT     H230042   3.989   3.816   4.126
 9934WAT      O30043   9.757   3.946   5.591
 9934WAT     H130044   9.779   4.040   5.616
 9934WAT     H230045   9.746   3.939   5.492
 9935WAT      O30046   7.166   0.290   3.029
 9935WAT     H130047   7.179   0.387   3.010
 9935WAT     H230048   7.251   0.251   3.065
 9936WAT      O30049   2.692   7.323   0.587
 9936WAT     H130050   2.675   7.248   0.524
 9936WAT     H230051   2.765   7.299   0.650
 9937WAT      O30052   0.354   2.931   8.408
 9937WAT     H130053   0.324   2.931   8.504
 9937WAT     H230054   0.281   2.897   8.350
 9938WAT      O30055   6.198   6.968   8.935
 9938WAT     H130056   6.173   7.056   8.894
 9938WAT     H230057   6.295   6.952   8.921
 9939WAT      O30058   6.552   4.039   5.598
 9939WAT     H130059   6.629   3.991   5.639
 9939WAT     H230060   6.486   3.973   5.562
 9940WAT      O30061   3.363   0.950   8.500
 9940WAT     H130062   3.277   0.901   8.515
 9940WAT     H230063   3.439   0.898   8.538
 9941WAT      O30064   7.243   6.076   8.370
 9941WAT     H130065   7.195   5.997   8.333
 9941WAT     H230066   7.317   6.102   8.307
 9942WAT      O30067   8.548   0.923   9.410
 9942WAT     H130068   8.584   0.896   9.500
 9942WAT     H230069   8.462   0.876   9.393
 9943WAT      O30070   7.059   3.061   6.121
 9943WAT     H130071   7.085   3.143   6.172
 9943WAT     H230072   7.051   2.984   6.183
 9944WAT      O30073   6.193   6.490   2.787
 9944WAT     H130074   6.139   6.547   2.849
 9944WAT     H230075   6.161   6.395   2.793
 9945WAT      O30076   5.286   0.441   7.028
 9945WAT     H130077   5.277   0.527   6.977
 9945WAT     H230078   5.209   0.431   7.090
 9946WAT      O30079   7.029   0.249   5.507
 9946WAT     H130080   7.078   0.173   5.549
 9946WAT     H230081   7.009   0.228   5.412
 9947WAT      O30082   4.845   0.660   6.959
 9947WAT     H130083   4.752   0.625   6.948
 9947WAT     H230084   4.906   0.614   6.895
 9948WAT      O30085   2.392   9.653   6.289
 9948WAT     H130086   2.318   9.719   6.273
 9948WAT     H230087   2.465   9.668   6.222
 9949WAT      O30088   5.199   7.348   6.492
 9949WAT     H130089   5.263   7.377   6.563
 9949WAT     H230090   5.241   7.361   6.402
 9950WAT      O30091   5.240   1.707   2.255
 9950WAT     H130092   5.186   1.724   2.172
 9950WAT     H230093   5.333   1.743   2.242
 9951WAT      O30094   4.960   8.696   6.494
 9951WAT     H130095   4.936   8.603   6.466
 9951WAT     H230096   4.878   8.746   6.521
 9952WAT      O30097   5.101   7.291   0.987
 9952WAT     H130098   5.174   7.230   1.019
 9952WAT     H230099   5.044   7.318   1.064
 9953WAT      O30100   4.687   9.836   7.459
 9953WAT     H130101   4.670   9.921   7.509
 9953WAT     H230102   4.618   9.768   7.483
 9954WAT      O30103   1.992   5.244   6.212
 9954WAT     H130104   1.974   5.203   6.122
 9954WAT     H230105   1.920   5.216   6.275
 9955WAT      O30106   0.609   8.474   8.987
 9955WAT     H130107   0.661   8.438   8.909
 9955WAT     H230108   0.558   8.400   9.031
 9956WAT      O30109   7.802   5.290   7.077
 9956WAT     H130110   7.706   5.314   7.068
 9956WAT     H230111   7.858   5.372   7.067
 9957WAT      O30112   7.803   7.495   5.208
 9957WAT     H130113   7.903   7.488   5.212
 9957WAT     H230114   7.771   7.558   5.278
 9958WAT      O30115   4.618   9.693   2.170
 9958WAT     H130116   4.615   9.670   2.073
 9958WAT     H230117   4.703   9.741   2.190
 9959WAT      O30118   2.302   7.777   6.926
 9959WAT     H130119   2.290   7.837   6.847
 9959WAT     H230120   2.394   7.789   6.963
 9960WAT      O30121   6.265   9.664   1.497
 9960WAT     H130122   6.350   9.636   1.540
 9960WAT     H230123   6.188   9.618   1.541
 9961WAT      O30124   9.750   0.550   9.193
 9961WAT     H130125   9.663   0.530   9.147
 9961WAT     H230126   9.815   0.586   9.126
 9962WAT      O30127   3.500   7.816   6.482
 9962WAT     H130128   3.465   7.742   6.539
 9962WAT     H230129   3.600   7.817   6.486
 9963WAT      O30130   2.060   1.451   9.767
 9963WAT     H130131   2.020   1.540   9.747
 9963WAT     H230132   1.995   1.397   9.822
 9964WAT      O30133   3.204   8.969   4.493
 9964WAT     H130134   3.295   8.927   4.495
 9964WAT     H230135   3.201   9.045   4.559
 9965WAT      O30136   6.530   5.821   4.467
 9965WAT     H130137   6.512   5.918   4.484
 9965WAT     H230138   6.629   5.806   4.464
 9966WAT      O30139   8.899   4.289   5.394
 9966WAT     H130140   8.897   4.292   5.294
 9966WAT     H230141   8.917   4.196   5.425
 9967WAT      O30142   3.272   3.657   3.355
 9967WAT     H130143   3.303   3.610   3.272
 9967WAT     H230144   3.257   3.590   3.427
 9968WAT      O30145   8.740   2.845   7.112
 9968WAT     H130146   8.682   2.830   7.192
 9968WAT     H230147   8.819   2.901   7.138
 9969WAT      O30148   6.117   2.145   2.821
 9969WAT     H130149   6.157   2.196   2.898
 9969WAT     H230150   6.153   2.051   2.822
 9970WAT      O30151   4.677   7.367   7.516
 9970WAT     H130152   4.686   7.319   7.603
 9970WAT     H230153   4.659   7.464   7.533
 9971WAT      O30154   1.535   4.747   4.837
 9971WAT     H130155   1.627   4.723   4.869
 9971WAT     H230156   1.530   4.845   4.819
 9972WAT      O30157   8.194   9.427   0.831
 9972WAT     H130158   8.190   9.328   0.819
 9972WAT     H230159   8.282   9.461   0.799
 9973WAT      O30160   4.336   6.731   9.539
 9973WAT     H130161   4.317   6.655   9.477
 9973WAT     H230162   4.350   6.695   9.632
 9974WAT      O30163   6.822   4.117   7.600
 9974WAT     H130164   6.869   4.158   7.679
 9974WAT     H230165   6.724   4.138   7.605
 9975WAT      O30166   5.986   3.447   6.336
 9975WAT     H130167   6.020   3.360   6.372
 9975WAT     H230168   6.048   3.520   6.365
 9976WAT      O30169   9.248   9.139   8.161
 9976WAT     H130170   9.183   9.114   8.089
 9976WAT     H230171   9.306   9.214   8.128
 9977WAT      O30172   4.002   8.263   5.952
 9977WAT     H130173   4.048   8.236   6.036
 9977WAT     H230174   3.946   8.344   5.970
 9978WAT      O30175   0.882   0.904   2.160
 9978WAT     H130176   0.886   0.839   2.236
 9978WAT     H230177   0.853   0.993   2.194
 9979WAT      O30178   5.557   2.550   0.255
 9979WAT     H130179   5.594   2.565   0.163
 9979WAT     H230180   5.473   2.496   0.248
 9980WAT      O30181   3.161   4.969   8.853
 9980WAT     H130182   3.129   4.917   8.933
 9980WAT     H230183   3.156   4.911   8.772
 9981WAT      O30184   9.208   1.270   5.947
 9981WAT     H130185   9.301   1.250   5.979
 9981WAT     H230186   9.163   1.330   6.013
 9982WAT      O30187   5.745   1.870   8.838
 9982WAT     H130188   5.843   1.884   8.824
 9982WAT     H230189   5.723   1.773   8.826
 9983WAT      O30190   5.970   6.146   7.657
 9983WAT     H130191   5.934   6.198   7.580
 9983WAT     H230192   5.969   6.203   7.739
 9984WAT      O30193   6.416   1.011   0.020
 9984WAT     H130194   6.498   0.971  -0.022
 9984WAT     H230195   6.394   0.961   0.103
 9985WAT      O30196   3.038   6.378   8.036
 9985WAT     H130197   3.083   6.467   8.028
 9985WAT     H230198   2.982   6.362   7.955
 9986WAT      O30199   7.556   5.870   7.536
 9986WAT     H130200   7.583   5.916   7.620
 9986WAT     H230201   7.632   5.812   7.504
 9987WAT      O30202   2.862   5.872   7.730
 9987WAT     H130203   2.798   5.796   7.723
 9987WAT     H230204   2.848   5.919   7.817
 9988WAT      O30205   0.869   4.941   0.623
 9988WAT     H130206   0.823   4.928   0.711
 9988WAT     H230207   0.894   5.038   0.613
 9989WAT      O30208   7.992   2.873   2.408
 9989WAT     H130209   7.940   2.797   2.447
 9989WAT     H230210   7.967   2.884   2.312
 9990WAT      O30211   7.292   3.462   9.812
 9990WAT     H130212   7.218   3.516   9.772
 9990WAT     H230213   7.304   3.488   9.908
 9991WAT      O30214   1.624   1.668   3.257
 9991WAT     H130215   1.580   1.740   3.312
 9991WAT     H230216   1.578   1.581   3.274
 9992WAT      O30217   3.629   6.105   3.027
 9992WAT     H130218   3.711   6.085   2.973
 9992WAT     H230219   3.627   6.202   3.049
 9993WAT      O30220   7.045   2.699   4.564
 9993WAT     H130221   6.988   2.640   4.622
 9993WAT     H230222   7.136   2.707   4.606
 9994WAT      O30223   9.152   9.066   9.375
 9994WAT     H130224   9.191   9.097   9.461
 9994WAT     H230225   9.162   8.966   9.368
 9995WAT      O30226   3.291   3.630   6.787
 9995WAT     H130227   3.345   3.570   6.728
 9995WAT     H230228   3.300   3.600   6.883
 9996WAT      O30229   8.221   6.380   1.811
 9996WAT     H130230   8.156   6.320   1.763
 9996WAT     H230231   8.284   6.324   1.865
 9997WAT      O30232   9.173   6.118   8.716
 9997WAT     H130233   9.179   6.153   8.809
 9997WAT     H230234   9.174   6.194   8.651
 9998WAT      O30235   7.730   4.697   9.198
 9998WAT     H130236   7.694   4.618   9.245
 9998WAT     H230237   7.722   4.778   9.256
 9999WAT      O30238   5.966   6.680   1.332
 9999WAT     H130239   5.925   6.622   1.403
 9999WAT     H230240   5.975   6.627   1.247
10000WAT      O30241   4.871   5.805   6.707
10000WAT     H130242   4.907   5.847   6.791
10000WAT     H230243   4.784   5.759   6.728
10001WAT      O30244   3.620   8.671   3.204
10001WAT     H130245   3.638   8.679   3.302
10001WAT     H230246   3.531   8.628   3.190
10002WAT      O30247   7.380   5.700   3.076
10002WAT     H130248   7.476   5.674   3.089
10002WAT     H230249   7.346   5.744   3.160
10003WAT      O30250   8.656   9.539   1.374
10003WAT     H130251   8.682   9.455   1.423
10003WAT     H230252   8.725   9.609   1.391
10004WAT      O30253   3.337   6.013   2.173
10004WAT     H130254   3.384   6.002   2.086
10004WAT     H230255   3.327   5.923   2.217
10005WAT      O30256   8.368   5.647   7.821
10005WAT     H130257   8.464   5.667   7.839
10005WAT     H230258   8.361   5.583   7.745
10006WAT      O30259   2.245   5.923   2.083
10006WAT     H130260   2.255   6.017   2.050
10006WAT     H230261   2.206   5.867   2.010
10007WAT      O30262   8.736   0.925   8.146
10007WAT     H130263   8.692   0.954   8.061
10007WAT     H230264   8.818   0.872   8.125
10008WAT      O30265   7.174   5.260   6.930
10008WAT     H130266   7.100   5.230   6.990
10008WAT     H230267   7.226   5.333   6.976
10009WAT      O30268   4.544   9.657   2.429
10009WAT     H130269   4.558   9.672   2.331
10009WAT     H230270   4.552   9.560   2.449
10010WAT      O30271   0.900   9.536   1.086
10010WAT     H130272   0.952   9.517   1.003
10010WAT     H230273   0.911   9.632   1.111
10011WAT      O30274   4.013   0.977   0.958
10011WAT     H130275   4.104   1.013   0.976
10011WAT     H230276   3.966   0.961   1.045
10012WAT      O30277   0.529   6.905   4.716
10012WAT     H130278   0.529   6.853   4.802
10012WAT     H230279   0.461   6.978   4.721
10013WAT      O30280   5.413   8.638   7.760
10013WAT     H130281   5.416   8.651   7.859
10013WAT     H230282   5.506   8.624   7.725
10014WAT      O30283   2.899   3.630   2.322
10014WAT     H130284   2.987   3.587   2.303
10014WAT     H230285   2.860   3.667   2.238
10015WAT      O30286   4.228   8.198   7.761
10015WAT     H130287   4.207   8.100   7.752
10015WAT     H230288   4.143   8.250   7.760
10016WAT      O30289   6.118   5.183   4.640
10016WAT     H130290   6.098   5.280   4.647
10016WAT     H230291   6.033   5.131   4.653
10017WAT      O30292   3.687   4.253   6.301
10017WAT     H130293   3.659   4.348   6.316
10017WAT     H230294   3.607   4.198   6.279
10018WAT      O30295   9.479   1.848   4.893
10018WAT     H130296   9.398   1.862   4.836
10018WAT     H230297   9.460   1.876   4.987
10019WAT      O30298   0.345   4.374   4.887
10019WAT     H130299   0.319   4.380   4.790
10019WAT     H230300   0.334   4.280   4.918
10020WAT      O30301   7.379   5.676   9.438
10020WAT     H130302   7.306   5.657   9.503
10020WAT     H230303   7.348   5.658   9.345
10021WAT      O30304   4.308   1.145   7.866
10021WAT     H130305   4.294   1.046   7.872
10021WAT     H230306   4.384   1.163   7.804
10022WAT      O30307   6.405   8.226   4.483
10022WAT     H130308   6.330   8.225   4.418
10022WAT     H230309   6.476   8.162   4.453
10023WAT      O30310   0.616   7.988   1.513
10023WAT     H130311   0.579   8.064   1.459
10023WAT     H230312   0.716   7.995   1.516
10024WAT      O30313   6.498   4.232   5.777
10024WAT     H130314   6.511   4.143   5.734
10024WAT     H230315   6.527   4.227   5.873
10025WAT      O30316   3.834   5.115   6.678
10025WAT     H130317   3.862   5.179   6.607
10025WAT     H230318   3.913   5.089   6.733
10026WAT      O30319   1.533   8.925   4.759
10026WAT     H130320   1.472   8.852   4.792
10026WAT     H230321   1.480   8.992   4.707
10027WAT      O30322   2.565   6.339   5.425
10027WAT     H130323   2.501   6.319   5.351
10027WAT     H230324   2.602   6.431   5.413
10028WAT      O30325   8.413   9.616   0.940
10028WAT     H130326   8.422   9.608   0.840
10028WAT     H230327   8.332   9.669   0.962
10029WAT      O30328   6.469   3.628   2.372
10029WAT     H130329   6.404   3.612   2.297
10029WAT     H230330   6.421   3.619   2.459
10030WAT      O30331   1.902   4.651   9.302
10030WAT     H130332   1.956   4.584   9.252
10030WAT     H230333   1.880   4.616   9.393
10031WAT      O30334   3.083   4.948   8.112
10031WAT     H130335   3.073   4.854   8.145
10031WAT     H230336   3.128   5.004   8.183
10032WAT      O30337   6.417   7.791   9.361
10032WAT     H130338   6.367   7.769   9.444
10032WAT     H230339   6.372   7.750   9.282
10033WAT      O30340   4.666   7.351   4.078
10033WAT     H130341   4.683   7.355   3.979
10033WAT     H230342   4.654   7.444   4.113
10034WAT      O30343   1.238   5.553   4.430
10034WAT     H130344   1.165   5.496   4.391
10034WAT     H230345   1.284   5.602   4.356
10035WAT      O30346   7.028   6.919   0.825
10035WAT     H130347   6.974   6.840   0.796
10035WAT     H230348   6.970   6.982   0.877
10036WAT      O30349   3.416   1.795   6.634
10036WAT     H130350   3.509   1.803   6.668
10036WAT     H230351   3.415   1.809   6.535
10037WAT      O30352   6.436   1.645   1.087
10037WAT     H130353   6.509   1.654   1.155
10037WAT     H230354   6.475   1.616   1.000
10038WAT      O30355   7.506   9.150   8.201
10038WAT     H130356   7.478   9.054   8.196
10038WAT     H230357   7.504   9.190   8.110
10039WAT      O30358   7.895   0.261   7.885
10039WAT     H130359   7.954   0.189   7.922
10039WAT     H230360   7.924   0.350   7.923
10040WAT      O30361   2.154   1.008   7.925
10040WAT     H130362   2.118   1.101   7.918
10040WAT     H230363   2.134   0.958   7.840
10041WAT      O30364   3.603   5.709   9.398
10041WAT     H130365   3.661   5.736   9.475
10041WAT     H230366   3.581   5.612   9.407
10042WAT      O30367   1.334   1.032   4.386
10042WAT     H130368   1.422   1.063   4.350
10042WAT     H230369   1.328   1.056   4.483
10043WAT      O30370   9.759   3.276   2.194
10043WAT     H130371   9.749   3.278   2.095
10043WAT     H230372   9.729   3.364   2.232
10044WAT      O30373   6.976   0.833   9.227
10044WAT     H130374   7.047   0.842   9.157
10044WAT     H230375   6.948   0.737   9.234
10045WAT      O30376   1.090   3.417   1.917
10045WAT     H130377   1.082   3.436   1.819
10045WAT     H230378   1.177   3.371   1.935
10046WAT      O30379   3.239   8.215   2.632
10046WAT     H130380   3.152   8.248   2.594
10046WAT     H230381   3.289   8.293   2.671
10047WAT      O30382   4.036   0.105   8.344
10047WAT     H130383   3.970   0.140   8.411
10047WAT     H230384   4.028   0.005   8.339
10048WAT      O30385   1.949   5.360   7.855
10048WAT     H130386   2.015   5.431   7.828
10048WAT     H230387   1.970   5.329   7.947
10049WAT      O30388   2.610   8.514   3.972
10049WAT     H130389   2.672   8.493   3.897
10049WAT     H230390   2.658   8.567   4.042
10050WAT      O30391   7.732   6.668   7.223
10050WAT     H130392   7.683   6.590   7.260
10050WAT     H230393   7.792   6.638   7.148
10051WAT      O30394   9.695   7.007   4.299
10051WAT     H130395   9.742   7.077   4.245
10051WAT     H230396   9.597   7.016   4.287
10052WAT      O30397   9.465   2.267   3.919
10052WAT     H130398   9.410   2.349   3.933
10052WAT     H230399   9.489   2.258   3.823
10053WAT      O30400   6.152   2.790   6.398
10053WAT     H130401   6.057   2.799   6.369
10053WAT     H230402   6.210   2.776   6.318
10054WAT      O30403   6.590   2.569   3.730
10054WAT     H130404   6.547   2.549   3.818
10054WAT     H230405   6.581   2.490   3.670
10055WAT      O30406   7.884   3.265   6.831
10055WAT     H130407   7.927   3.353   6.814
10055WAT     H230408   7.805   3.277   6.892
10056WAT      O30409   4.667   2.576   0.015
10056WAT     H130410   4.711   2.646  -0.040
10056WAT     H230411   4.567   2.590   0.013
10057WAT      O30412   8.636   9.324   7.328
10057WAT     H130413   8.666   9.378   7.250
10057WAT     H230414   8.589   9.383   7.393
10058WAT      O30415   4.493   2.328   4.676
10058WAT     H130416   4.493   2.415   4.626
10058WAT     H230417   4.587   2.293   4.682
10059WAT      O30418   1.623   2.855   1.374
10059WAT     H130419   1.606   2.830   1.469
10059WAT     H230420   1.601   2.777   1.315
10060WAT      O30421   8.379   0.736   4.069
10060WAT     H130422   8.430   0.818   4.041
10060WAT     H230423   8.286   0.762   4.095
10061WAT      O30424   9.341   4.353   2.119
10061WAT     H130425   9.304   4.314   2.204
10061WAT     H230426   9.358   4.450   2.131
10062WAT      O30427   7.903   8.987   2.714
10062WAT     H130428   7.899   8.980   2.814
10062WAT     H230429   7.905   9.083   2.688
10063WAT      O30430   4.136   8.715   1.802
10063WAT     H130431   4.062   8.647   1.799
10063WAT     H230432   4.096   8.806   1.811
10064WAT      O30433   8.694   7.287   8.556
10064WAT     H130434   8.701   7.385   8.536
10064WAT     H230435   8.759   7.263   8.628
10065WAT      O30436   5.672   4.783   7.462
10065WAT     H130437   5.663   4.859   7.526
10065WAT     H230438   5.705   4.702   7.511
10066WAT      O30439   6.850   3.437   0.831
10066WAT     H130440   6.927   3.397   0.880
10066WAT     H230441   6.765   3.394   0.860
10067WAT      O30442   2.869   4.420   0.648
10067WAT     H130443   2.869   4.344   0.713
10067WAT     H230444   2.783   4.418   0.595
10068WAT      O30445   8.645   7.436   2.269
10068WAT     H130446   8.691   7.382   2.339
10068WAT     H230447   8.607   7.375   2.199
10069WAT      O30448   8.078   4.784   0.498
10069WAT     H130449   8.063   4.691   0.466
10069WAT     H230450   8.162   4.820   0.459
10070WAT      O30451   2.013   4.813   2.502
10070WAT     H130452   2.093   4.753   2.498
10070WAT     H230453   1.937   4.763   2.544
10071WAT      O30454   0.285   5.639   2.794
10071WAT     H130455   0.186   5.629   2.785
10071WAT     H230456   0.306   5.729   2.832
10072WAT      O30457   4.894   5.980   4.950
10072WAT     H130458   4.951   5.934   4.882
10072WAT     H230459   4.898   5.929   5.036
10073WAT      O30460   4.711   8.880   1.446
10073WAT     H130461   4.613   8.898   1.442
10073WAT     H230462   4.727   8.793   1.493
10074WAT      O30463   0.494   0.641   9.517
10074WAT     H130464   0.454   0.590   9.593
10074WAT     H230465   0.592   0.624   9.513
10075WAT      O30466   6.150   2.932   2.501
10075WAT     H130467   6.205   2.849   2.505
10075WAT     H230468   6.148   2.975   2.592
10076WAT      O30469   6.049   1.499   4.650
10076WAT     H130470   6.072   1.463   4.740
10076WAT     H230471   6.110   1.574   4.628
10077WAT      O30472   1.990   0.517   9.038
10077WAT     H130473   1.919   0.527   8.969
10077WAT     H230474   1.950   0.528   9.129
10078WAT      O30475   0.021   0.674   3.227
10078WAT     H130476   0.008   0.765   3.267
10078WAT     H230477  -0.057   0.616   3.248
10079WAT      O30478   1.958   6.882   7.010
10079WAT     H130479   1.942   6.980   6.997
10079WAT     H230480   2.026   6.869   7.082
10080WAT      O30481   1.442   2.048   5.328
10080WAT     H130482   1.355   2.021   5.369
10080WAT     H230483   1.486   2.116   5.386
10081WAT      O30484   3.315   1.945   6.903
10081WAT     H130485   3.279   2.034   6.875
10081WAT     H230486   3.349   1.897   6.822
10082WAT      O30487   7.099   5.825   6.328
10082WAT     H130488   7.026   5.850   6.392
10082WAT     H230489   7.155   5.753   6.369
10083WAT      O30490   3.566   7.550   9.665
10083WAT     H130491   3.484   7.499   9.692
10083WAT     H230492   3.616   7.498   9.595
10084WAT      O30493   7.789   1.972   1.187
10084WAT     H130494   7.773   1.909   1.111
10084WAT     H230495   7.702   1.991   1.233
10085WAT      O30496   9.286   6.186   9.195
10085WAT     H130497   9.331   6.232   9.272
10085WAT     H230498   9.189   6.209   9.196
10086WAT      O30499   3.841   8.201   8.619
10086WAT     H130500   3.748   8.229   8.597
10086WAT     H230501   3.868   8.125   8.560
10087WAT      O30502   1.343   7.274   9.279
10087WAT     H130503   1.408   7.213   9.323
10087WAT     H230504   1.364   7.280   9.181
10088WAT      O30505   0.952   5.558   3.854
10088WAT     H130506   0.879   5.491   3.838
10088WAT     H230507   0.944   5.593   3.947
10089WAT      O30508   6.645   4.279   8.803
10089WAT     H130509   6.668   4.195   8.754
10089WAT     H230510   6.725   4.311   8.853
10090WAT      O30511   1.068   9.426   6.726
10090WAT     H130512   1.023   9.344   6.691
10090WAT     H230513   1.017   9.460   6.806
10091WAT      O30514   1.844   8.930   6.421
10091WAT     H130515   1.772   8.916   6.354
10091WAT     H230516   1.807   8.919   6.513
10092WAT      O30517   9.648   2.410   3.486
10092WAT     H130518   9.741   2.377   3.470
10092WAT     H230519   9.629   2.488   3.426
10093WAT      O30520   2.532   7.367   3.757
10093WAT     H130521   2.552   7.353   3.660
10093WAT     H230522   2.446   7.417   3.766
10094WAT      O30523   7.075   5.436   1.570
10094WAT     H130524   7.151   5.382   1.609
10094WAT     H230525   7.089   5.532   1.591
10095WAT      O30526   7.390   2.604   4.445
10095WAT     H130527   7.438   2.518   4.426
10095WAT     H230528   7.303   2.604   4.396
10096WAT      O30529   1.914   2.340   5.196
10096WAT     H130530   1.832   2.378   5.239
10096WAT     H230531   1.911   2.354   5.098
10097WAT      O30532   3.240   9.643   8.605
10097WAT     H130533   3.252   9.723   8.546
10097WAT     H230534   3.316   9.639   8.670
10098WAT      O30535   2.687   1.982   2.590
10098WAT     H130536   2.681   1.891   2.547
10098WAT     H230537   2.596   2.010   2.620
10099WAT      O30538   2.588   4.140   1.438
10099WAT     H130539   2.513   4.113   1.498
10099WAT     H230540   2.562   4.221   1.386
10100WAT      O30541   9.506   1.339   1.589
10100WAT     H130542   9.532   1.246   1.611
10100WAT     H230543   9.549   1.366   1.503
10101WAT      O30544   1.364   7.440   0.816
10101WAT     H130545   1.442   7.502   0.830
10101WAT     H230546   1.280   7.485   0.844
10102WAT      O30547   7.746   0.191   7.342
10102WAT     H130548   7.811   0.116   7.348
10102WAT     H230549   7.795   0.276   7.319
10103WAT      O30550   9.500   4.854   0.825
10103WAT     H130551   9.416   4.899   0.853
10103WAT     H230552   9.565   4.923   0.792
10104WAT      O30553   9.660   3.176   3.508
10104WAT     H130554   9.688   3.231   3.586
10104WAT     H230555   9.661   3.079   3.534
10105WAT      O30556   4.854   9.583   9.348
10105WAT     H130557   4.858   9.650   9.422
10105WAT     H230558   4.808   9.500   9.379
10106WAT      O30559   4.482   7.282   4.935
10106WAT     H130560   4.383   7.295   4.948
10106WAT     H230561   4.521   7.362   4.891
10107WAT      O30562   4.687   3.865   0.823
10107WAT     H130563   4.712   3.941   0.762
10107WAT     H230564   4.603   3.889   0.873
10108WAT      O30565   5.998   6.414   4.072
10108WAT     H130566   6.058   6.405   4.153
10108WAT     H230567   6.022   6.344   4.006
10109WAT      O30568   0.705   2.059   5.045
10109WAT     H130569   0.721   2.021   4.953
10109WAT     H230570   0.791   2.098   5.080
10110WAT      O30571   0.608   5.048   9.127
10110WAT     H130572   0.546   4.970   9.135
10110WAT     H230573   0.678   5.043   9.198
10111WAT      O30574   4.999   4.137   9.101
10111WAT     H130575   5.095   4.122   9.078
10111WAT     H230576   4.984   4.113   9.197
10112WAT      O30577   6.914   6.512   0.729
10112WAT     H130578   6.880   6.445   0.795
10112WAT     H230579   6.867   6.599   0.744
10113WAT      O30580   9.443   4.580   0.780
10113WAT     H130581   9.399   4.569   0.869
10113WAT     H230582   9.462   4.677   0.764
10114WAT      O30583   3.543   2.447   7.405
10114WAT     H130584   3.539   2.468   7.503
10114WAT     H230585   3.567   2.350   7.393
10115WAT      O30586   8.313   6.973   5.573
10115WAT     H130587   8.384   6.934   5.514
10115WAT     H230588   8.237   6.909   5.581
10116WAT      O30589   4.873   7.172   0.849
10116WAT     H130590   4.783   7.215   0.851
10116WAT     H230591   4.939   7.230   0.898
10117WAT      O30592   4.650   0.668   6.156
10117WAT     H130593   4.583   0.741   6.167
10117WAT     H230594   4.719   0.674   6.229
10118WAT      O30595   1.772   7.022   6.622
10118WAT     H130596   1.755   6.974   6.536
10118WAT     H230597   1.705   6.991   6.691
10119WAT      O30598   6.435   7.859   9.829
10119WAT     H130599   6.341   7.871   9.798
10119WAT     H230600   6.493   7.930   9.788
10120WAT      O30601   2.246   1.327   2.136
10120WAT     H130602   2.323   1.390   2.143
10120WAT     H230603   2.160   1.379   2.145
10121WAT      O30604   2.162   8.915   8.934
10121WAT     H130605   2.225   8.894   9.008
10121WAT     H230606   2.165   8.842   8.865
10122WAT      O30607   7.254   2.372   4.647
10122WAT     H130608   7.309   2.408   4.721
10122WAT     H230609   7.300   2.293   4.607
10123WAT      O30610   8.782   6.691   8.587
10123WAT     H130611   8.868   6.665   8.631
10123WAT     H230612   8.754   6.620   8.522
10124WAT      O30613   7.261   3.697   7.753
10124WAT     H130614   7.360   3.695   7.740
10124WAT     H230615   7.240   3.689   7.850
10125WAT      O30616   1.446   3.431   5.920
10125WAT     H130617   1.353   3.466   5.905
10125WAT     H230618   1.448   3.376   6.003
10126WAT      O30619   4.540   7.473   0.533
10126WAT     H130620   4.441   7.478   0.549
10126WAT     H230621   4.588   7.496   0.618
10127WAT      O30622   9.747   4.034   9.643
10127WAT     H130623   9.813   4.088   9.695
10127WAT     H230624   9.677   4.095   9.604
10128WAT      O30625   7.262   3.544   9.349
10128WAT     H130626   7.244   3.583   9.259
10128WAT     H230627   7.282   3.446   9.340
10129WAT      O30628   5.405   7.837   5.704
10129WAT     H130629   5.505   7.840   5.705
10129WAT     H230630   5.374   7.772   5.635
10130WAT      O30631   4.829   4.443   2.992
10130WAT     H130632   4.881   4.358   2.993
10130WAT     H230633   4.836   4.485   2.901
10131WAT      O30634   5.689   6.504   7.461
10131WAT     H130635   5.631   6.450   7.401
10131WAT     H230636   5.697   6.597   7.425
10132WAT      O30637   8.758   7.076   6.605
10132WAT     H130638   8.749   7.176   6.603
10132WAT     H230639   8.731   7.042   6.695
10133WAT      O30640   3.455   1.695   1.434
10133WAT     H130641   3.411   1.613   1.472
10133WAT     H230642   3.389   1.770   1.432
10134WAT      O30643   9.787   9.022   8.187
10134WAT     H130644   9.814   9.119   8.186
10134WAT     H230645   9.847   8.971   8.248
10135WAT      O30646   3.272   8.120   6.736
10135WAT     H130647   3.246   8.186   6.806
10135WAT     H230648   3.198   8.054   6.723
10136WAT      O30649   5.232   9.598   2.079
10136WAT     H130650   5.164   9.656   2.035
10136WAT     H230651   5.323   9.619   2.042
10137WAT      O30652   0.694   3.964   6.885
10137WAT     H130653   0.764   3.936   6.951
10137WAT     H230654   0.613   3.996   6.934
10138WAT      O30655   1.885   8.801   4.933
10138WAT     H130656   1.808   8.864   4.947
10138WAT     H230657   1.928   8.818   4.845
10139WAT      O30658   1.525   4.442   9.429
10139WAT     H130659   1.469   4.478   9.504
10139WAT     H230660   1.605   4.395   9.466
10140WAT      O30661   8.982   6.402   3.455
10140WAT     H130662   8.912   6.397   3.527
10140WAT     H230663   8.964   6.331   3.387
10141WAT      O30664   9.112   8.394   0.826
10141WAT     H130665   9.077   8.484   0.849
10141WAT     H230666   9.075   8.365   0.738
10142WAT      O30667   1.263   6.995   1.193
10142WAT     H130668   1.248   6.994   1.094
10142WAT     H230669   1.189   6.947   1.239
10143WAT      O30670   8.421   9.108   4.194
10143WAT     H130671   8.352   9.065   4.252
10143WAT     H230672   8.447   9.197   4.232
10144WAT      O30673   6.684   4.918   2.563
10144WAT     H130674   6.737   4.883   2.486
10144WAT     H230675   6.716   4.875   2.648
10145WAT      O30676   5.257   2.187   4.717
10145WAT     H130677   5.210   2.126   4.653
10145WAT     H230678   5.291   2.134   4.795
10146WAT      O30679   7.271   4.589   8.318
10146WAT     H130680   7.371   4.596   8.321
10146WAT     H230681   7.230   4.651   8.384
10147WAT      O30682   9.419   3.795   4.074
10147WAT     H130683   9.503   3.740   4.071
10147WAT     H230684   9.341   3.738   4.047
10148WAT      O30685   6.754   6.368   8.254
10148WAT     H130686   6.657   6.383   8.272
10148WAT     H230687   6.809   6.430   8.309
10149WAT      O30688   4.578   7.476   4.763
10149WAT     H130689   4.595   7.556   4.705
10149WAT     H230690   4.645   7.405   4.742
10150WAT      O30691   1.914   2.231   5.624
10150WAT     H130692   1.840   2.216   5.689
10150WAT     H230693   1.899   2.317   5.576
10151WAT      O30694   2.303   1.517   3.046
10151WAT     H130695   2.321   1.615   3.035
10151WAT     H230696   2.208   1.498   3.023
10152WAT      O30697   5.822   1.836   7.705
10152WAT     H130698   5.838   1.737   7.706
10152WAT     H230699   5.837   1.871   7.612
10153WAT      O30700   1.858   2.628   1.655
10153WAT     H130701   1.903   2.699   1.600
10153WAT     H230702   1.829   2.667   1.742
10154WAT      O30703   8.209   1.405   0.334
10154WAT     H130704   8.128   1.463   0.336
10154WAT     H230705   8.239   1.392   0.239
10155WAT      O30706   7.198   6.258   7.220
10155WAT     H130707   7.210   6.275   7.318
10155WAT     H230708   7.263   6.188   7.191
10156WAT      O30709   3.979   7.057   9.561
10156WAT     H130710   4.009   7.063   9.466
10156WAT     H230711   4.005   7.141   9.609
10157WAT      O30712   5.647   4.920   9.369
10157WAT     H130713   5.638   4.880   9.278
10157WAT     H230714   5.743   4.939   9.388
10158WAT      O30715   0.281   5.401   2.101
10158WAT     H130716   0.244   5.457   2.027
10158WAT     H230717   0.206   5.354   2.148
10159WAT      O30718   6.451   8.749   0.929
10159WAT     H130719   6.483   8.780   0.839
10159WAT     H230720   6.464   8.650   0.937
10160WAT      O30721   4.485   1.819   8.588
10160WAT     H130722   4.406   1.761   8.607
10160WAT     H230723   4.470   1.909   8.628
10161WAT      O30724   8.979   7.366   2.845
10161WAT     H130725   8.970   7.441   2.780
10161WAT     H230726   9.074   7.358   2.874
10162WAT      O30727   4.296   5.919   6.565
10162WAT     H130728   4.245   5.833   6.576
10162WAT     H230729   4.232   5.995   6.560
10163WAT      O30730   5.310   0.234   5.546
10163WAT     H130731   5.350   0.289   5.472
10163WAT     H230732   5.211   0.224   5.529
10164WAT      O30733   4.053   6.077   6.526
10164WAT     H130734   4.045   6.174   6.547
10164WAT     H230735   3.963   6.040   6.501
10165WAT      O30736   9.787   1.549   5.064
10165WAT     H130737   9.784   1.644   5.095
10165WAT     H230738   9.778   1.488   5.143
10166WAT      O30739   1.448   3.051   1.945
10166WAT     H130740   1.452   3.000   2.031
10166WAT     H230741   1.541   3.080   1.920
10167WAT      O30742   2.222   1.971   9.629
10167WAT     H130743   2.311   1.940   9.662
10167WAT     H230744   2.181   2.033   9.696
10168WAT      O30745   9.358   1.440   2.746
10168WAT     H130746   9.327   1.454   2.840
10168WAT     H230747   9.422   1.512   2.721
10169WAT      O30748   5.325   6.232   8.672
10169WAT     H130749   5.317   6.203   8.768
10169WAT     H230750   5.313   6.152   8.613
10170WAT      O30751   0.902   7.833   9.347
10170WAT     H130752   0.833   7.761   9.335
10170WAT     H230753   0.930   7.867   9.257
10171WAT      O30754   1.443   1.671   7.158
10171WAT     H130755   1.374   1.604   7.186
10171WAT     H230756   1.398   1.752   7.121
10172WAT      O30757   7.732   4.890   9.390
10172WAT     H130758   7.756   4.978   9.349
10172WAT     H230759   7.632   4.883   9.399
10173WAT      O30760   6.939   3.019   8.699
10173WAT     H130761   6.944   3.093   8.633
10173WAT     H230762   6.917   2.933   8.653
10174WAT      O30763   8.343   4.421   5.214
10174WAT     H130764   8.384   4.335   5.246
10174WAT     H230765   8.415   4.485   5.188
10175WAT      O30766   0.589   5.149   8.560
10175WAT     H130767   0.549   5.238   8.580
10175WAT     H230768   0.617   5.105   8.646
10176WAT      O30769   1.424   9.702   8.850
10176WAT     H130770   1.436   9.612   8.808
10176WAT     H230771   1.337   9.705   8.899
10177WAT      O30772   1.101   7.026   2.846
10177WAT     H130773   1.073   6.931   2.828
10177WAT     H230774   1.180   7.025   2.908
10178WAT      O30775   4.801   6.200   5.100
10178WAT     H130776   4.844   6.123   5.053
10178WAT     H230777   4.779   6.272   5.034
10179WAT      O30778   0.325   6.496   6.961
10179WAT     H130779   0.233   6.481   6.926
10179WAT     H230780   0.322   6.570   7.029
10180WAT      O30781   5.247   1.450   9.350
10180WAT     H130782   5.245   1.522   9.420
10180WAT     H230783   5.266   1.491   9.261
10181WAT      O30784   3.120   3.992   9.611
10181WAT     H130785   3.152   4.053   9.539
10181WAT     H230786   3.189   3.987   9.683
10182WAT      O30787   7.331   7.724   1.347
10182WAT     H130788   7.345   7.810   1.395
10182WAT     H230789   7.420   7.681   1.329
10183WAT      O30790   2.981   0.489   3.704
10183WAT     H130791   2.992   0.581   3.740
10183WAT     H230792   2.990   0.491   3.604
10184WAT      O30793   0.649   7.323   6.251
10184WAT     H130794   0.726   7.371   6.209
10184WAT     H230795   0.583   7.390   6.286
10185WAT      O30796   4.237   6.816   6.271
10185WAT     H130797   4.322   6.831   6.320
10185WAT     H230798   4.168   6.780   6.333
10186WAT      O30799   9.641   1.653   4.824
10186WAT     H130800   9.732   1.641   4.863
10186WAT     H230801   9.599   1.735   4.863
10187WAT      O30802   4.308   3.903   5.630
10187WAT     H130803   4.402   3.921   5.603
10187WAT     H230804   4.303   3.895   5.730
10188WAT      O30805   4.646   0.813   5.071
10188WAT     H130806   4.552   0.836   5.096
10188WAT     H230807   4.648   0.721   5.033
10189WAT      O30808   3.840   5.787   9.582
10189WAT     H130809   3.820   5.787   9.680
10189WAT     H230810   3.936   5.812   9.568
10190WAT      O30811   8.071   5.601   3.652
10190WAT     H130812   7.977   5.627   3.671
10190WAT     H230813   8.074   5.542   3.572
10191WAT      O30814   7.533   7.554   9.614
10191WAT     H130815   7.616   7.522   9.659
10191WAT     H230816   7.534   7.654   9.609
10192WAT      O30817   5.797   6.828   4.946
10192WAT     H130818   5.897   6.827   4.953
10192WAT     H230819   5.758   6.763   5.012
10193WAT      O30820   2.599   5.475   0.454
10193WAT     H130821   2.600   5.552   0.391
10193WAT     H230822   2.620   5.506   0.547
10194WAT      O30823   3.592   5.456   3.565
10194WAT     H130824   3.653   5.535   3.569
10194WAT     H230825   3.584   5.425   3.470
10195WAT      O30826   7.397   2.988   8.795
10195WAT     H130827   7.403   3.026   8.703
10195WAT     H230828   7.467   3.030   8.853
10196WAT      O30829   3.135   6.279   6.286
10196WAT     H130830   3.076   6.298   6.207
10196WAT     H230831   3.181   6.364   6.313
10197WAT      O30832   2.479   5.230   5.564
10197WAT     H130833   2.431   5.316   5.543
10197WAT     H230834   2.501   5.227   5.661
10198WAT      O30835   2.074   0.518   4.143
10198WAT     H130836   1.979   0.497   4.167
10198WAT     H230837   2.079   0.608   4.100
10199WAT      O30838   6.322   9.245   9.515
10199WAT     H130839   6.321   9.177   9.590
10199WAT     H230840   6.254   9.316   9.534
10200WAT      O30841   1.250   1.626   4.462
10200WAT     H130842   1.192   1.673   4.396
10200WAT     H230843   1.323   1.688   4.492
10201WAT      O30844   4.862   2.822   3.815
10201WAT     H130845   4.867   2.847   3.719
10201WAT     H230846   4.950   2.838   3.859
10202WAT      O30847   0.098   8.985   8.864
10202WAT     H130848   0.006   9.024   8.872
10202WAT     H230849   0.165   9.052   8.898
10203WAT      O30850   2.300   2.573   7.360
10203WAT     H130851   2.297   2.659   7.411
10203WAT     H230852   2.389   2.562   7.317
10204WAT      O30853   0.347   4.288   3.117
10204WAT     H130854   0.417   4.233   3.164
10204WAT     H230855   0.392   4.348   3.051
10205WAT      O30856   6.213   2.462   5.572
10205WAT     H130857   6.244   2.556   5.585
10205WAT     H230858   6.171   2.453   5.482
10206WAT      O30859   5.890   4.619   8.106
10206WAT     H130860   5.939   4.559   8.043
10206WAT     H230861   5.949   4.695   8.132
10207WAT      O30862   5.367   2.920   0.984
10207WAT     H130863   5.368   2.933   0.884
10207WAT     H230864   5.343   2.826   1.005
10208WAT      O30865   2.947   1.321   2.589
10208WAT     H130866   3.039   1.358   2.574
10208WAT     H230867   2.888   1.392   2.627
10209WAT      O30868   5.453   6.411   2.251
10209WAT     H130869   5.393   6.427   2.329
10209WAT     H230870   5.399   6.389   2.170
10210WAT      O30871   6.463   4.260   5.451
10210WAT     H130872   6.517   4.196   5.506
10210WAT     H230873   6.367   4.234   5.454
10211WAT      O30874   6.206   5.797   7.834
10211WAT     H130875   6.256   5.740   7.769
10211WAT     H230876   6.113   5.812   7.800
10212WAT      O30877   5.624   2.945   1.710
10212WAT     H130878   5.604   3.042   1.724
10212WAT     H230879   5.604   2.894   1.794
10213WAT      O30880   6.612   0.458   1.711
10213WAT     H130881   6.559   0.543   1.704
10213WAT     H230882   6.612   0.411   1.623
10214WAT      O30883   6.208   0.408   7.170
10214WAT     H130884   6.260   0.385   7.252
10214WAT     H230885   6.188   0.506   7.170
10215WAT      O30886   7.776   6.625   5.368
10215WAT     H130887   7.854   6.682   5.341
10215WAT     H230888   7.808   6.532   5.387
10216WAT      O30889   0.555   7.542   1.235
10216WAT     H130890   0.551   7.614   1.305
10216WAT     H230891   0.469   7.490   1.237
10217WAT      O30892   1.211   3.440   9.356
10217WAT     H130893   1.281   3.483   9.300
10217WAT     H230894   1.120   3.465   9.323
10218WAT      O30895   7.924   4.131   4.064
10218WAT     H130896   7.859   4.098   4.133
10218WAT     H230897   7.938   4.060   3.995
10219WAT      O30898   5.016   8.825   2.803
10219WAT     H130899   5.056   8.867   2.721
10219WAT     H230900   4.972   8.739   2.778
10220WAT      O30901   4.328   0.957   9.042
10220WAT     H130902   4.355   0.889   8.973
10220WAT     H230903   4.261   1.020   9.001
10221WAT      O30904   7.331   4.916   8.148
10221WAT     H130905   7.413   4.945   8.099
10221WAT     H230906   7.310   4.821   8.125
10222WAT      O30907   6.157   7.779   0.410
10222WAT     H130908   6.185   7.707   0.474
10222WAT     H230909   6.171   7.748   0.316
10223WAT      O30910   1.434   2.690   6.009
10223WAT     H130911   1.359   2.650   5.957
10223WAT     H230912   1.447   2.785   5.981
10224WAT      O30913   1.761   7.770   8.995
10224WAT     H130914   1.672   7.736   9.026
10224WAT     H230915   1.834   7.729   9.049
10225WAT      O30916   8.850   8.796   8.011
10225WAT     H130917   8.775   8.818   7.950
10225WAT     H230918   8.909   8.727   7.968
10226WAT      O30919   0.069   4.553   4.255
10226WAT     H130920   0.043   4.458   4.235
10226WAT     H230921   0.166   4.565   4.234
10227WAT      O30922   3.290   3.414   3.979
10227WAT     H130923   3.247   3.340   4.030
10227WAT     H230924   3.349   3.467   4.040
10228WAT      O30925   2.847   9.179   6.678
10228WAT     H130926   2.755   9.185   6.640
10228WAT     H230927   2.913   9.215   6.612
10229WAT      O30928   5.210   3.741   2.859
10229WAT     H130929   5.149   3.666   2.832
10229WAT     H230930   5.229   3.799   2.779
10230WAT      O30931   2.808   8.308   0.698
10230WAT     H130932   2.864   8.261   0.766
10230WAT     H230933   2.825   8.270   0.608
10231WAT      O30934   3.482   0.083   5.770
10231WAT     H130935   3.581   0.097   5.768
10231WAT     H230936   3.456   0.014   5.703
10232WAT      O30937   3.218   4.004   2.559
10232WAT     H130938   3.213   3.905   2.572
10232WAT     H230939   3.302   4.039   2.602
10233WAT      O30940   0.780   9.410   8.683
10233WAT     H130941   0.803   9.398   8.780
10233WAT     H230942   0.835   9.483   8.644
10234WAT      O30943   8.330   0.389   6.236
10234WAT     H130944   8.389   0.468   6.219
10234WAT     H230945   8.234   0.418   6.236
10235WAT      O30946   2.981   5.215   1.028
10235WAT     H130947   3.076   5.186   1.041
10235WAT     H230948   2.930   5.141   0.984
10236WAT      O30949   9.268   0.851   5.821
10236WAT     H130950   9.198   0.780   5.822
10236WAT     H230951   9.234   0.930   5.770
10237WAT      O30952   1.227   1.411   9.366
10237WAT     H130953   1.224   1.311   9.363
10237WAT     H230954   1.322   1.442   9.356
10238WAT      O30955   0.867   2.894   4.010
10238WAT     H130956   0.779   2.895   4.057
10238WAT     H230957   0.913   2.806   4.026
10239WAT      O30958   9.098   9.263   7.145
10239WAT     H130959   9.156   9.337   7.109
10239WAT     H230960   9.006   9.272   7.107
10240WAT      O30961   2.017   9.488   0.793
10240WAT     H130962   2.008   9.582   0.759
10240WAT     H230963   2.035   9.426   0.717
10241WAT      O30964   5.560   5.136   5.080
10241WAT     H130965   5.470   5.099   5.106
10241WAT     H230966   5.549   5.229   5.045
10242WAT      O30967   9.712   3.732   7.860
10242WAT     H130968   9.714   3.785   7.775
10242WAT     H230969   9.646   3.658   7.852
10243WAT      O30970   9.496   3.587   8.854
10243WAT     H130971   9.568   3.529   8.893
10243WAT     H230972   9.455   3.642   8.927
10244WAT      O30973   4.216   6.382   8.448
10244WAT     H130974   4.141   6.330   8.489
10244WAT     H230975   4.204   6.479   8.468
10245WAT      O30976   4.789   9.151   3.574
10245WAT     H130977   4.871   9.201   3.547
10245WAT     H230978   4.728   9.143   3.495
10246WAT      O30979   5.888   0.169   0.051
10246WAT     H130980   5.900   0.199   0.145
10246WAT     H230981   5.928   0.236  -0.011
10247WAT      O30982   0.016   5.057   4.362
10247WAT     H130983  -0.012   5.064   4.458
10247WAT     H230984   0.100   5.003   4.356
10248WAT      O30985   0.140   6.163   0.159
10248WAT     H130986   0.204   6.192   0.088
10248WAT     H230987   0.112   6.242   0.213
10249WAT      O30988   4.621   6.852   7.313
10249WAT     H130989   4.706   6.813   7.276
10249WAT     H230990   4.607   6.819   7.406
10250WAT      O30991   4.320   7.115   7.055
10250WAT     H130992   4.411   7.143   7.025
10250WAT     H230993   4.327   7.069   7.144
10251WAT      O30994   4.355   8.570   7.867
10251WAT     H130995   4.281   8.624   7.827
10251WAT     H230996   4.436   8.628   7.877
10252WAT      O30997   2.745   6.723   2.293
10252WAT     H130998   2.697   6.773   2.365
10252WAT     H230999   2.697   6.637   2.274
10253WAT      O31000   5.652   5.930   7.775
10253WAT     H131001   5.719   5.940   7.849
10253WAT     H231002   5.663   5.840   7.732
10254WAT      O31003   2.728   5.510   0.719
10254WAT     H131004   2.818   5.499   0.762
10254WAT     H231005   2.709   5.607   0.705
10255WAT      O31006   6.679   1.716   0.949
10255WAT     H131007   6.686   1.682   1.042
10255WAT     H231008   6.640   1.645   0.890
10256WAT      O31009   2.002   0.140   6.478
10256WAT     H131010   2.070   0.200   6.519
10256WAT     H231011   1.930   0.120   6.545
10257WAT      O31012   9.015   4.595   8.962
10257WAT     H131013   9.021   4.695   8.956
10257WAT     H231014   9.085   4.561   9.024
10258WAT      O31015   1.312   7.028   3.013
10258WAT     H131016   1.305   7.026   3.112
10258WAT     H231017   1.338   7.120   2.983
10259WAT      O31018   2.420   7.574   4.359
10259WAT     H131019   2.415   7.630   4.442
10259WAT     H231020   2.502   7.516   4.363
10260WAT      O31021   7.214   7.974   1.073
10260WAT     H131022   7.151   8.003   1.001
10260WAT     H231023   7.216   8.042   1.146
10261WAT      O31024   6.655   2.608   8.178
10261WAT     H131025   6.660   2.566   8.269
10261WAT     H231026   6.645   2.707   8.188
10262WAT      O31027   7.213   1.732   6.133
10262WAT     H131028   7.311   1.730   6.150
10262WAT     H231029   7.196   1.747   6.035
10263WAT      O31030   7.287   6.929   7.862
10263WAT     H131031   7.260   6.836   7.888
10263WAT     H231032   7.222   6.965   7.795
10264WAT      O31033   0.757   6.344   8.611
10264WAT     H131034   0.686   6.289   8.566
10264WAT     H231035   0.845   6.327   8.567
10265WAT      O31036   3.524   3.090   8.466
10265WAT     H131037   3.494   3.115   8.374
10265WAT     H231038   3.591   3.016   8.460
10266WAT      O31039   8.665   6.508   9.829
10266WAT     H131040   8.701   6.430   9.778
10266WAT     H231041   8.613   6.475   9.908
10267WAT      O31042   0.514   6.032   6.815
10267WAT     H131043   0.546   6.103   6.753
10267WAT     H231044   0.509   6.068   6.908
10268WAT      O31045   1.442   3.220   2.394
10268WAT     H131046   1.395   3.307   2.408
10268WAT     H231047   1.524   3.235   2.339
10269WAT      O31048   8.972   9.838   6.968
10269WAT     H131049   8.905   9.880   6.906
10269WAT     H231050   8.929   9.761   7.016
10270WAT      O31051   3.074   9.783   9.294
10270WAT     H131052   3.107   9.735   9.376
10270WAT     H231053   3.151   9.808   9.236
10271WAT      O31054   6.559   3.693   7.458
10271WAT     H131055   6.657   3.676   7.451
10271WAT     H231056   6.512   3.608   7.482
10272WAT      O31057   3.690   8.233   6.566
10272WAT     H131058   3.705   8.271   6.658
10272WAT     H231059   3.651   8.141   6.575
10273WAT      O31060   7.380   1.427   6.940
10273WAT     H131061   7.411   1.372   7.017
10273WAT     H231062   7.287   1.458   6.957
10274WAT      O31063   7.984   3.837   0.329
10274WAT     H131064   7.890   3.849   0.295
10274WAT     H231065   8.023   3.754   0.291
10275WAT      O31066   8.548   9.139   7.066
10275WAT     H131067   8.525   9.143   7.163
10275WAT     H231068   8.465   9.121   7.012
10276WAT      O31069   8.378   3.149   5.364
10276WAT     H131070   8.369   3.188   5.455
10276WAT     H231071   8.475   3.147   5.338
10277WAT      O31072   9.268   3.323   9.238
10277WAT     H131073   9.342   3.377   9.198
10277WAT     H231074   9.291   3.226   9.233
10278WAT      O31075   0.837   2.898   0.478
10278WAT     H131076   0.758   2.946   0.516
10278WAT     H231077   0.830   2.800   0.498
10279WAT      O31078   7.251   1.736   3.717
10279WAT     H131079   7.165   1.708   3.760
10279WAT     H231080   7.261   1.835   3.724
10280WAT      O31081   7.043   0.474   1.877
10280WAT     H131082   6.999   0.385   1.886
10280WAT     H231083   7.026   0.511   1.786
10281WAT      O31084   0.677   8.667   5.495
10281WAT     H131085   0.688   8.607   5.416
10281WAT     H231086   0.750   8.735   5.496
10282WAT      O31087   2.514   6.224   5.671
10282WAT     H131088   2.519   6.253   5.575
10282WAT     H231089   2.481   6.301   5.727
10283WAT      O31090   6.409   7.767   4.138
10283WAT     H131091   6.489   7.778   4.078
10283WAT     H231092   6.326   7.787   4.086
10284WAT      O31093   8.866   7.247   8.265
10284WAT     H131094   8.821   7.237   8.353
10284WAT     H231095   8.965   7.257   8.279
10285WAT      O31096   4.705   2.985   8.734
10285WAT     H131097   4.628   2.923   8.746
10285WAT     H231098   4.729   2.990   8.637
10286WAT      O31099   0.288   3.889   7.629
10286WAT     H131100   0.363   3.950   7.655
10286WAT     H231101   0.226   3.878   7.706
10287WAT      O31102   7.136   7.623   1.859
10287WAT     H131103   7.201   7.548   1.841
10287WAT     H231104   7.118   7.672   1.774
10288WAT      O31105   3.488   9.804   8.746
10288WAT     H131106   3.456   9.899   8.745
10288WAT     H231107   3.503   9.775   8.841
10289WAT      O31108   0.789   5.529   3.040
10289WAT     H131109   0.725   5.460   3.075
10289WAT     H231110   0.774   5.541   2.942
10290WAT      O31111   9.444   0.271   4.349
10290WAT     H131112   9.421   0.320   4.265
10290WAT     H231113   9.373   0.287   4.417
10291WAT      O31114   8.375   8.255   6.717
10291WAT     H131115   8.298   8.239   6.780
10291WAT     H231116   8.342   8.252   6.623
10292WAT      O31117   5.137   2.883   3.186
10292WAT     H131118   5.165   2.949   3.116
10292WAT     H231119   5.057   2.833   3.156
10293WAT      O31120   6.644   0.327   0.715
10293WAT     H131121   6.687   0.339   0.804
10293WAT     H231122   6.649   0.231   0.688
10294WAT      O31123   3.080   1.887   1.776
10294WAT     H131124   3.004   1.854   1.719
10294WAT     H231125   3.161   1.830   1.760
10295WAT      O31126   7.700   5.073   7.697
10295WAT     H131127   7.715   5.169   7.721
10295WAT     H231128   7.607   5.063   7.660
10296WAT      O31129   3.122   7.283   4.105
10296WAT     H131130   3.101   7.352   4.036
10296WAT     H231131   3.193   7.221   4.069
10297WAT      O31132   0.175   1.985   0.430
10297WAT     H131133   0.193   1.895   0.390
10297WAT     H231134   0.225   1.994   0.516
10298WAT      O31135   6.106   9.355   0.377
10298WAT     H131136   6.201   9.360   0.408
10298WAT     H231137   6.053   9.428   0.420
10299WAT      O31138   4.732   0.443   6.599
10299WAT     H131139   4.697   0.390   6.522
10299WAT     H231140   4.709   0.396   6.685
10300WAT      O31141   5.319   7.040   7.293
10300WAT     H131142   5.397   7.102   7.281
10300WAT     H231143   5.239   7.093   7.321
10301WAT      O31144   4.367   9.277   3.367
10301WAT     H131145   4.443   9.212   3.371
10301WAT     H231146   4.403   9.369   3.351
10302WAT      O31147   5.910   8.879   7.868
10302WAT     H131148   5.847   8.805   7.844
10302WAT     H231149   5.975   8.846   7.936
10303WAT      O31150   7.464   0.377   5.426
10303WAT     H131151   7.557   0.407   5.446
10303WAT     H231152   7.450   0.285   5.463
10304WAT      O31153   3.754   4.343   7.641
10304WAT     H131154   3.762   4.370   7.545
10304WAT     H231155   3.822   4.393   7.695
10305WAT      O31156   9.766   8.968   1.995
10305WAT     H131157   9.702   8.992   2.067
10305WAT     H231158   9.838   8.909   2.031
10306WAT      O31159   8.473   6.111   2.498
10306WAT     H131160   8.535   6.178   2.539
10306WAT     H231161   8.431   6.056   2.571
10307WAT      O31162   5.430   0.029   7.998
10307WAT     H131163   5.496  -0.015   8.059
10307WAT     H231164   5.445   0.128   7.998
10308WAT      O31165   0.789   5.145   4.706
10308WAT     H131166   0.841   5.230   4.719
10308WAT     H231167   0.816   5.079   4.776
10309WAT      O31168   5.285   6.812   9.892
10309WAT     H131169   5.263   6.718   9.865
10309WAT     H231170   5.384   6.825   9.891
10310WAT      O31171   6.045   9.745   0.703
10310WAT     H131172   5.975   9.745   0.774
10310WAT     H231173   6.131   9.781   0.741
10311WAT      O31174   0.639   9.598   9.359
10311WAT     H131175   0.721   9.546   9.380
10311WAT     H231176   0.571   9.584   9.432
10312WAT      O31177   5.101   3.708   9.254
10312WAT     H131178   5.065   3.660   9.174
10312WAT     H231179   5.025   3.745   9.307
10313WAT      O31180   4.877   6.435   6.647
10313WAT     H131181   4.954   6.371   6.649
10313WAT     H231182   4.881   6.488   6.562
10314WAT      O31183   9.339   4.340   6.778
10314WAT     H131184   9.325   4.271   6.707
10314WAT     H231185   9.337   4.431   6.736
10315WAT      O31186   3.922   1.353   7.402
10315WAT     H131187   3.970   1.439   7.422
10315WAT     H231188   3.965   1.278   7.453
10316WAT      O31189   2.098   4.072   4.907
10316WAT     H131190   2.134   4.043   4.995
10316WAT     H231191   2.021   4.134   4.920
10317WAT      O31192   7.116   1.698   2.400
10317WAT     H131193   7.184   1.662   2.337
10317WAT     H231194   7.123   1.798   2.403
10318WAT      O31195   6.972   6.175   8.778
10318WAT     H131196   7.035   6.192   8.853
10318WAT     H231197   6.943   6.079   8.781
10319WAT      O31198   4.755   7.894   4.793
10319WAT     H131199   4.684   7.933   4.851
10319WAT     H231200   4.796   7.815   4.839
10320WAT      O31201   4.183   1.913   1.352
10320WAT     H131202   4.227   1.823   1.358
10320WAT     H231203   4.086   1.900   1.333
10321WAT      O31204   4.354   5.389   3.349
10321WAT     H131205   4.347   5.485   3.320
10321WAT     H231206   4.356   5.385   3.449
10322WAT      O31207   4.982   4.014   1.774
10322WAT     H131208   4.968   4.080   1.700
10322WAT     H231209   4.932   3.930   1.755
10323WAT      O31210   5.569   2.287   6.894
10323WAT     H131211   5.584   2.357   6.964
10323WAT     H231212   5.605   2.319   6.807
10324WAT      O31213   2.901   1.516   7.636
10324WAT     H131214   2.805   1.493   7.649
10324WAT     H231215   2.956   1.433   7.640
10325WAT      O31216   7.837   4.862   7.609
10325WAT     H131217   7.794   4.950   7.629
10325WAT     H231218   7.891   4.832   7.687
10326WAT      O31219   7.859   9.103   4.700
10326WAT     H131220   7.801   9.184   4.710
10326WAT     H231221   7.814   9.025   4.744
10327WAT      O31222   5.804   4.693   6.999
10327WAT     H131223   5.896   4.712   6.963
10327WAT     H231224   5.736   4.717   6.930
10328WAT      O31225   3.418   4.106   4.539
10328WAT     H131226   3.501   4.074   4.584
10328WAT     H231227   3.357   4.029   4.522
10329WAT      O31228   4.066   4.710   4.608
10329WAT     H131229   4.087   4.755   4.521
10329WAT     H231230   3.967   4.708   4.621
10330WAT      O31231   3.427   6.944   1.329
10330WAT     H131232   3.493   6.878   1.293
10330WAT     H231233   3.471   7.033   1.338
10331WAT      O31234   2.807   5.157   5.784
10331WAT     H131235   2.766   5.188   5.870
10331WAT     H231236   2.757   5.077   5.750
10332WAT      O31237   4.514   2.875   2.828
10332WAT     H131238   4.421   2.847   2.805
10332WAT     H231239   4.546   2.942   2.761
10333WAT      O31240   6.641   4.991   0.782
10333WAT     H131241   6.581   4.911   0.786
10333WAT     H231242   6.626   5.039   0.696
10334WAT      O31243   3.085   7.887   1.171
10334WAT     H131244   3.039   7.928   1.250
10334WAT     H231245   3.149   7.952   1.131
10335WAT      O31246   7.161   5.678   4.565
10335WAT     H131247   7.175   5.643   4.473
10335WAT     H231248   7.191   5.773   4.570
10336WAT      O31249   5.409   7.125   9.091
10336WAT     H131250   5.389   7.114   9.189
10336WAT     H231251   5.432   7.036   9.052
10337WAT      O31252   8.968   3.555   0.373
10337WAT     H131253   9.012   3.569   0.285
10337WAT     H231254   9.028   3.586   0.446
10338WAT      O31255   6.398   8.128   1.296
10338WAT     H131256   6.350   8.120   1.383
10338WAT     H231257   6.342   8.180   1.231
10339WAT      O31258   8.477   6.067   8.849
10339WAT     H131259   8.554   6.006   8.836
10339WAT     H231260   8.486   6.114   8.937
10340WAT      O31261   9.139   5.679   4.367
10340WAT     H131262   9.195   5.685   4.284
10340WAT     H231263   9.175   5.741   4.436
10341WAT      O31264   4.819   3.832   8.817
10341WAT     H131265   4.905   3.863   8.855
10341WAT     H231266   4.746   3.841   8.885
10342WAT      O31267   0.964   4.987   1.738
10342WAT     H131268   0.915   5.017   1.656
10342WAT     H231269   0.936   4.893   1.761
10343WAT      O31270   0.716   5.941   8.735
10343WAT     H131271   0.659   6.008   8.783
10343WAT     H231272   0.771   5.988   8.666
10344WAT      O31273   3.639   7.809   9.170
10344WAT     H131274   3.710   7.811   9.099
10344WAT     H231275   3.649   7.726   9.225
10345WAT      O31276   1.586   8.572   8.884
10345WAT     H131277   1.500   8.595   8.839
10345WAT     H231278   1.568   8.521   8.968
10346WAT      O31279   7.799   4.482   6.298
10346WAT     H131280   7.820   4.485   6.201
10346WAT     H231281   7.739   4.558   6.322
10347WAT      O31282   0.347   1.971   8.835
10347WAT     H131283   0.346   1.965   8.736
10347WAT     H231284   0.409   2.043   8.864
10348WAT      O31285   1.173   9.376   3.320
10348WAT     H131286   1.144   9.347   3.411
10348WAT     H231287   1.204   9.471   3.323
10349WAT      O31288   8.572   2.639   3.703
10349WAT     H131289   8.505   2.637   3.629
10349WAT     H231290   8.617   2.728   3.705
10350WAT      O31291   3.297   1.979   5.652
10350WAT     H131292   3.335   1.959   5.561
10350WAT     H231293   3.368   2.023   5.707
10351WAT      O31294   9.498   3.048   4.630
10351WAT     H131295   9.403   3.054   4.661
10351WAT     H231296   9.545   3.134   4.650
10352WAT      O31297   6.050   3.279   3.992
10352WAT     H131298   6.049   3.378   3.979
10352WAT     H231299   5.957   3.247   4.010
10353WAT      O31300   7.092   5.029   4.860
10353WAT     H131301   7.154   5.002   4.934
10353WAT     H231302   7.014   4.966   4.856
10354WAT      O31303   3.626   4.820   2.154
10354WAT     H131304   3.589   4.774   2.074
10354WAT     H231305   3.726   4.816   2.152
10355WAT      O31306   5.777   8.128   2.546
10355WAT     H131307   5.849   8.079   2.595
10355WAT     H231308   5.740   8.201   2.604
10356WAT      O31309   8.292   3.818   4.684
10356WAT     H131310   8.215   3.802   4.746
10356WAT     H231311   8.318   3.915   4.689
10357WAT      O31312   2.591   8.123   3.741
10357WAT     H131313   2.547   8.034   3.737
10357WAT     H231314   2.623   8.140   3.834
10358WAT      O31315   3.068   2.404   0.431
10358WAT     H131316   3.030   2.320   0.468
10358WAT     H231317   3.168   2.400   0.436
10359WAT      O31318   9.203   7.571   6.948
10359WAT     H131319   9.178   7.572   6.852
10359WAT     H231320   9.136   7.516   6.999
10360WAT      O31321   8.390   7.707   5.135
10360WAT     H131322   8.394   7.763   5.053
10360WAT     H231323   8.427   7.758   5.212
10361WAT      O31324   9.275   4.476   1.089
10361WAT     H131325   9.306   4.396   1.037
10361WAT     H231326   9.192   4.453   1.140
10362WAT      O31327   1.192   0.695   1.279
10362WAT     H131328   1.245   0.763   1.227
10362WAT     H231329   1.249   0.657   1.352
10363WAT      O31330   9.089   4.401   0.831
10363WAT     H131331   9.057   4.403   0.736
10363WAT     H231332   9.012   4.423   0.892
10364WAT      O31333   1.915   5.863   5.896
10364WAT     H131334   1.902   5.859   5.995
10364WAT     H231335   1.981   5.936   5.875
10365WAT      O31336   5.683   8.250   7.582
10365WAT     H131337   5.707   8.243   7.679
10365WAT     H231338   5.585   8.238   7.570
10366WAT      O31339   6.195   8.199   0.338
10366WAT     H131340   6.152   8.286   0.360
10366WAT     H231341   6.262   8.213   0.265
10367WAT      O31342   6.773   7.850   8.936
10367WAT     H131343   6.806   7.942   8.959
10367WAT     H231344   6.674   7.846   8.949
10368WAT      O31345   7.899   0.425   3.333
10368WAT     H131346   7.966   0.354   3.351
10368WAT     H231347   7.940   0.515   3.346
10369WAT      O31348   5.388   6.848   2.565
10369WAT     H131349   5.331   6.840   2.483
10369WAT     H231350   5.345   6.798   2.640
10370WAT      O31351   9.027   6.001   5.120
10370WAT     H131352   9.084   5.928   5.083
10370WAT     H231353   9.082   6.083   5.133
10371WAT      O31354   8.609   4.585   6.017
10371WAT     H131355   8.562   4.528   5.949
10371WAT     H231356   8.659   4.526   6.080
10372WAT      O31357   2.793   2.690   6.571
10372WAT     H131358   2.773   2.750   6.494
10372WAT     H231359   2.756   2.729   6.655
10373WAT      O31360   0.650   2.872   2.052
10373WAT     H131361   0.613   2.858   2.144
10373WAT     H231362   0.575   2.882   1.987
10374WAT      O31363   9.735   2.332   4.571
10374WAT     H131364   9.826   2.314   4.610
10374WAT     H231365   9.666   2.326   4.643
10375WAT      O31366   1.993   5.836   1.717
10375WAT     H131367   2.032   5.927   1.732
10375WAT     H231368   1.895   5.838   1.738
10376WAT      O31369   8.158   9.283   0.511
10376WAT     H131370   8.243   9.329   0.484
10376WAT     H231371   8.173   9.184   0.513
10377WAT      O31372   8.596   0.646   0.785
10377WAT     H131373   8.653   0.719   0.824
10377WAT     H231374   8.538   0.607   0.856
10378WAT      O31375   6.392   5.149   5.272
10378WAT     H131376   6.347   5.131   5.359
10378WAT     H231377   6.332   5.120   5.197
10379WAT      O31378   9.179   9.729   8.042
10379WAT     H131379   9.276   9.723   8.018
10379WAT     H231380   9.125   9.740   7.958
10380WAT      O31381   4.705   8.624   7.048
10380WAT     H131382   4.757   8.543   7.023
10380WAT     H231383   4.620   8.596   7.093
10381WAT      O31384   4.266   3.278   2.636
10381WAT     H131385   4.268   3.377   2.628
10381WAT     H231386   4.344   3.239   2.588
10382WAT      O31387   5.352   0.437   8.534
10382WAT     H131388   5.305   0.416   8.620
10382WAT     H231389   5.408   0.358   8.507
10383WAT      O31390   7.610   8.445   4.611
10383WAT     H131391   7.658   8.403   4.534
10383WAT     H231392   7.655   8.530   4.636
10384WAT      O31393   9.361   1.357   8.941
10384WAT     H131394   9.420   1.371   9.020
10384WAT     H231395   9.390   1.276   8.890
10385WAT      O31396   4.109   9.458   1.849
10385WAT     H131397   4.056   9.432   1.930
10385WAT     H231398   4.048   9.464   1.770
10386WAT      O31399   5.795   3.468   6.134
10386WAT     H131400   5.892   3.464   6.155
10386WAT     H231401   5.751   3.383   6.163
10387WAT      O31402   4.977   6.998   8.424
10387WAT     H131403   4.886   6.956   8.417
10387WAT     H231404   4.968   7.098   8.425
10388WAT      O31405   1.955   3.520   9.573
10388WAT     H131406   2.011   3.474   9.504
10388WAT     H231407   1.949   3.618   9.551
10389WAT      O31408   1.659   0.282   3.964
10389WAT     H131409   1.720   0.307   4.039
10389WAT     H231410   1.713   0.254   3.885
10390WAT      O31411   6.578   1.857   4.157
10390WAT     H131412   6.545   1.882   4.066
10390WAT     H231413   6.501   1.847   4.219
10391WAT      O31414   4.235   0.872   8.638
10391WAT     H131415   4.282   0.960   8.631
10391WAT     H231416   4.246   0.835   8.730
10392WAT      O31417   3.112   7.581   8.741
10392WAT     H131418   3.023   7.577   8.697
10392WAT     H231419   3.180   7.613   8.675
10393WAT      O31420   2.799   1.695   4.910
10393WAT     H131421   2.845   1.713   4.997
10393WAT     H231422   2.843   1.618   4.864
10394WAT      O31423   4.099   6.447   4.313
10394WAT     H131424   4.182   6.421   4.263
10394WAT     H231425   4.123   6.473   4.406
10395WAT      O31426   6.797   1.001   5.861
10395WAT     H131427   6.818   1.032   5.953
10395WAT     H231428   6.761   0.908   5.864
10396WAT      O31429   4.089   7.544   7.673
10396WAT     H131430   4.066   7.587   7.760
10396WAT     H231431   4.074   7.445   7.680
10397WAT      O31432   2.218   2.658   6.333
10397WAT     H131433   2.221   2.682   6.430
10397WAT     H231434   2.139   2.599   6.315
10398WAT      O31435   3.553   8.061   9.292
10398WAT     H131436   3.466   8.069   9.341
10398WAT     H231437   3.564   7.967   9.259
10399WAT      O31438   7.754   4.419   9.527
10399WAT     H131439   7.689   4.468   9.468
10399WAT     H231440   7.835   4.394   9.474
10400WAT      O31441   8.860   5.232   2.600
10400WAT     H131442   8.817   5.304   2.655
10400WAT     H231443   8.875   5.267   2.507
10401WAT      O31444   3.186   5.161   3.149
10401WAT     H131445   3.232   5.198   3.069
10401WAT     H231446   3.237   5.184   3.231
10402WAT      O31447   8.034   1.012   9.433
10402WAT     H131448   7.994   0.922   9.414
10402WAT     H231449   8.105   1.032   9.366
10403WAT      O31450   3.396   4.945   3.037
10403WAT     H131451   3.344   5.010   3.092
10403WAT     H231452   3.370   4.952   2.941
10404WAT      O31453   4.752   7.059   5.522
10404WAT     H131454   4.740   7.000   5.443
10404WAT     H231455   4.840   7.107   5.516
10405WAT      O31456   2.716   8.789   1.050
10405WAT     H131457   2.805   8.755   1.082
10405WAT     H231458   2.690   8.739   0.967
10406WAT      O31459   1.516   4.868   0.237
10406WAT     H131460   1.485   4.774   0.224
10406WAT     H231461   1.567   4.875   0.323
10407WAT      O31462   8.770   7.997   3.757
10407WAT     H131463   8.806   8.076   3.707
10407WAT     H231464   8.795   8.003   3.853
10408WAT      O31465   9.518   6.376   7.777
10408WAT     H131466   9.421   6.390   7.761
10408WAT     H231467   9.531   6.287   7.822
10409WAT      O31468   8.193   3.384   4.170
10409WAT     H131469   8.154   3.451   4.107
10409WAT     H231470   8.258   3.326   4.121
10410WAT      O31471   4.674   0.102   5.045
10410WAT     H131472   4.730   0.115   5.127
10410WAT     H231473   4.704   0.020   4.997
10411WAT      O31474   6.589   3.753   6.226
10411WAT     H131475   6.498   3.782   6.197
10411WAT     H231476   6.584   3.659   6.260
10412WAT      O31477   5.529   2.272   6.065
10412WAT     H131478   5.519   2.179   6.101
10412WAT     H231479   5.468   2.334   6.114
10413WAT      O31480   8.384   2.283   5.918
10413WAT     H131481   8.481   2.285   5.943
10413WAT     H231482   8.362   2.363   5.863
10414WAT      O31483   1.820   4.276   2.137
10414WAT     H131484   1.774   4.280   2.226
10414WAT     H231485   1.816   4.183   2.101
10415WAT      O31486   2.221   5.706   8.334
10415WAT     H131487   2.235   5.653   8.250
10415WAT     H231488   2.249   5.651   8.413
10416WAT      O31489   8.193   4.534   6.525
10416WAT     H131490   8.189   4.439   6.494
10416WAT     H231491   8.247   4.539   6.609
10417WAT      O31492   6.010   4.695   7.660
10417WAT     H131493   6.053   4.741   7.582
10417WAT     H231494   5.912   4.688   7.644
10418WAT      O31495   1.004   7.305   6.581
10418WAT     H131496   1.026   7.288   6.677
10418WAT     H231497   0.939   7.235   6.549
10419WAT      O31498   8.764   8.503   2.423
10419WAT     H131499   8.827   8.568   2.382
10419WAT     H231500   8.755   8.422   2.364
10420WAT      O31501   4.624   5.961   1.712
10420WAT     H131502   4.626   5.863   1.735
10420WAT     H231503   4.556   6.007   1.770
10421WAT      O31504   6.765   0.415   3.102
10421WAT     H131505   6.835   0.351   3.134
10421WAT     H231506   6.768   0.421   3.003
10422WAT      O31507   8.319   1.876   3.376
10422WAT     H131508   8.284   1.890   3.469
10422WAT     H231509   8.418   1.863   3.379
10423WAT      O31510   7.710   0.943   3.873
10423WAT     H131511   7.706   0.992   3.961
10423WAT     H231512   7.799   0.958   3.830
10424WAT      O31513   4.541   5.856   9.621
10424WAT     H131514   4.483   5.864   9.702
10424WAT     H231515   4.614   5.791   9.639
10425WAT      O31516   6.170   5.269   4.353
10425WAT     H131517   6.164   5.188   4.295
10425WAT     H231518   6.195   5.243   4.446
10426WAT      O31519   1.974   7.140   0.814
10426WAT     H131520   2.039   7.213   0.790
10426WAT     H231521   1.888   7.155   0.766
10427WAT      O31522   5.777   0.567   5.561
10427WAT     H131523   5.826   0.507   5.624
10427WAT     H231524   5.825   0.655   5.555
10428WAT      O31525   4.908   8.053   4.625
10428WAT     H131526   4.834   8.005   4.672
10428WAT     H231527   4.871   8.133   4.577
10429WAT      O31528   2.431   6.872   6.920
10429WAT     H131529   2.397   6.828   6.837
10429WAT     H231530   2.363   6.864   6.993
10430WAT      O31531   9.310   2.679   3.134
10430WAT     H131532   9.243   2.650   3.066
10430WAT     H231533   9.377   2.605   3.147
10431WAT      O31534   5.392   7.366   7.804
10431WAT     H131535   5.336   7.417   7.739
10431WAT     H231536   5.371   7.269   7.799
10432WAT      O31537   3.980   0.905   6.507
10432WAT     H131538   3.952   0.996   6.539
10432WAT     H231539   4.079   0.894   6.518
10433WAT      O31540   0.763   1.737   5.224
10433WAT     H131541   0.797   1.679   5.150
10433WAT     H231542   0.737   1.681   5.302
10434WAT      O31543   1.834   6.125   7.032
10434WAT     H131544   1.868   6.046   6.980
10434WAT     H231545   1.758   6.167   6.983
10435WAT      O31546   8.341   3.691   5.458
10435WAT     H131547   8.257   3.638   5.442
10435WAT     H231548   8.420   3.630   5.457
10436WAT      O31549   0.752   9.798   2.836
10436WAT     H131550   0.793   9.823   2.749
10436WAT     H231551   0.712   9.879   2.879
10437WAT      O31552   3.225   7.238   1.950
10437WAT     H131553   3.275   7.153   1.964
10437WAT     H231554   3.212   7.284   2.038
10438WAT      O31555   5.545   7.878   7.469
10438WAT     H131556   5.600   7.961   7.477
10438WAT     H231557   5.588   7.804   7.520
10439WAT      O31558   7.317   2.657   4.703
10439WAT     H131559   7.388   2.718   4.739
10439WAT     H231560   7.350   2.613   4.620
10440WAT      O31561   8.730   9.368   0.542
10440WAT     H131562   8.793   9.444   0.559
10440WAT     H231563   8.777   9.281   0.556
10441WAT      O31564   9.749   6.534   8.360
10441WAT     H131565   9.766   6.612   8.300
10441WAT     H231566   9.813   6.537   8.437
10442WAT      O31567   3.847   4.600   9.338
10442WAT     H131568   3.908   4.654   9.280
10442WAT     H231569   3.884   4.507   9.347
10443WAT      O31570   2.040   3.579   0.742
10443WAT     H131571   2.044   3.640   0.663
10443WAT     H231572   2.049   3.484   0.712
10444WAT      O31573   2.419   6.145   9.623
10444WAT     H131574   2.351   6.090   9.673
10444WAT     H231575   2.379   6.177   9.537
10445WAT      O31576   7.586   7.368   8.172
10445WAT     H131577   7.523   7.328   8.106
10445WAT     H231578   7.671   7.393   8.126
10446WAT      O31579   3.515   2.656   6.724
10446WAT     H131580   3.459   2.573   6.727
10446WAT     H231581   3.464   2.730   6.680
10447WAT      O31582   8.434   4.660   5.478
10447WAT     H131583   8.505   4.729   5.465
10447WAT     H231584   8.352   4.685   5.426
10448WAT      O31585   4.153   2.266   0.291
10448WAT     H131586   4.101   2.349   0.308
10448WAT     H231587   4.237   2.289   0.240
10449WAT      O31588   7.114   4.247   9.534
10449WAT     H131589   7.127   4.184   9.458
10449WAT     H231590   7.037   4.215   9.590
10450WAT      O31591   4.229   1.938   8.061
10450WAT     H131592   4.160   1.955   8.131
10450WAT     H231593   4.287   1.861   8.089
10451WAT      O31594   7.855   8.441   3.597
10451WAT     H131595   7.850   8.491   3.510
10451WAT     H231596   7.777   8.378   3.603
10452WAT      O31597   8.581   5.771   5.572
10452WAT     H131598   8.555   5.855   5.620
10452WAT     H231599   8.498   5.727   5.536
10453WAT      O31600   8.166   3.332   1.512
10453WAT     H131601   8.250   3.346   1.460
10453WAT     H231602   8.141   3.418   1.558
10454WAT      O31603   0.840   8.789   4.200
10454WAT     H131604   0.787   8.835   4.271
10454WAT     H231605   0.778   8.751   4.132
10455WAT      O31606   9.423   2.636   1.403
10455WAT     H131607   9.421   2.724   1.356
10455WAT     H231608   9.332   2.616   1.440
10456WAT      O31609   1.528   2.140   9.615
10456WAT     H131610   1.543   2.068   9.683
10456WAT     H231611   1.486   2.219   9.660
10457WAT      O31612   1.325   9.063   6.493
10457WAT     H131613   1.251   9.130   6.488
10457WAT     H231614   1.342   9.038   6.588
10458WAT      O31615   0.442   3.641   0.824
10458WAT     H131616   0.431   3.711   0.753
10458WAT     H231617   0.539   3.627   0.844
10459WAT      O31618   2.397   0.469   5.972
10459WAT     H131619   2.305   0.477   5.935
10459WAT     H231620   2.453   0.414   5.910
10460WAT      O31621   1.002   6.219   7.765
10460WAT     H131622   1.022   6.317   7.763
10460WAT     H231623   1.087   6.167   7.756
10461WAT      O31624   1.115   4.084   5.934
10461WAT     H131625   1.191   4.058   5.873
10461WAT     H231626   1.116   4.183   5.948
10462WAT      O31627   1.582   1.822   7.317
10462WAT     H131628   1.523   1.761   7.266
10462WAT     H231629   1.652   1.769   7.365
10463WAT      O31630   3.577   4.813   6.052
10463WAT     H131631   3.566   4.714   6.042
10463WAT     H231632   3.673   4.835   6.067
10464WAT      O31633   5.718   9.624   0.776
10464WAT     H131634   5.781   9.689   0.819
10464WAT     H231635   5.701   9.653   0.682
10465WAT      O31636   5.782   1.355   0.145
10465WAT     H131637   5.746   1.449   0.144
10465WAT     H231638   5.786   1.320   0.051
10466WAT      O31639   0.436   2.628   8.980
10466WAT     H131640   0.501   2.632   8.905
10466WAT     H231641   0.472   2.569   9.053
10467WAT      O31642   0.725   4.707   7.605
10467WAT     H131643   0.663   4.645   7.557
10467WAT     H231644   0.703   4.706   7.703
10468WAT      O31645   4.288   5.146   2.972
10468WAT     H131646   4.295   5.221   2.907
10468WAT     H231647   4.264   5.181   3.062
10469WAT      O31648   2.687   6.558   0.929
10469WAT     H131649   2.611   6.497   0.954
10469WAT     H231650   2.748   6.569   1.008
10470WAT      O31651   2.639   1.415   7.622
10470WAT     H131652   2.658   1.381   7.529
10470WAT     H231653   2.683   1.355   7.688
10471WAT      O31654   5.143   4.918   9.108
10471WAT     H131655   5.213   4.984   9.136
10471WAT     H231656   5.171   4.826   9.134
10472WAT      O31657   6.943   2.005   9.816
10472WAT     H131658   6.973   1.912   9.836
10472WAT     H231659   7.015   2.069   9.840
10473WAT      O31660   8.981   6.933   0.366
10473WAT     H131661   8.953   6.934   0.462
10473WAT     H231662   8.920   6.873   0.315
10474WAT      O31663   8.012   0.635   0.468
10474WAT     H131664   7.941   0.639   0.538
10474WAT     H231665   7.978   0.582   0.389
10475WAT      O31666   7.669   7.717   0.667
10475WAT     H131667   7.693   7.621   0.653
10475WAT     H231668   7.734   7.759   0.730
10476WAT      O31669   9.566   0.609   2.665
10476WAT     H131670   9.626   0.674   2.618
10476WAT     H231671   9.612   0.576   2.748
10477WAT      O31672   4.056   8.802   2.279
10477WAT     H131673   4.011   8.831   2.363
10477WAT     H231674   4.049   8.702   2.270
10478WAT      O31675   4.303   5.918   5.706
10478WAT     H131676   4.330   5.827   5.737
10478WAT     H231677   4.307   5.982   5.783
10479WAT      O31678   4.298   8.511   2.213
10479WAT     H131679   4.264   8.523   2.306
10479WAT     H231680   4.234   8.455   2.161
10480WAT      O31681   1.196   7.575   2.518
10480WAT     H131682   1.286   7.543   2.548
10480WAT     H231683   1.126   7.508   2.543
10481WAT      O31684   1.541   5.429   7.184
10481WAT     H131685   1.525   5.513   7.131
10481WAT     H231686   1.578   5.454   7.274
10482WAT      O31687   1.919   2.594   4.435
10482WAT     H131688   1.915   2.576   4.336
10482WAT     H231689   1.835   2.641   4.463
10483WAT      O31690   4.632   0.753   2.958
10483WAT     H131691   4.673   0.776   3.046
10483WAT     H231692   4.679   0.674   2.919
10484WAT      O31693   5.129   5.464   5.932
10484WAT     H131694   5.113   5.367   5.916
10484WAT     H231695   5.220   5.477   5.972
10485WAT      O31696   3.001   0.564   3.439
10485WAT     H131697   2.911   0.521   3.437
10485WAT     H231698   3.024   0.598   3.348
10486WAT      O31699   1.244   5.868   8.106
10486WAT     H131700   1.330   5.892   8.062
10486WAT     H231701   1.167   5.888   8.045
10487WAT      O31702   6.369   4.957   7.499
10487WAT     H131703   6.289   4.917   7.454
10487WAT     H231704   6.421   4.886   7.545
10488WAT      O31705   8.219   0.330   9.129
10488WAT     H131706   8.304   0.293   9.094
10488WAT     H231707   8.161   0.359   9.053
10489WAT      O31708   0.102   6.145   6.186
10489WAT     H131709   0.111   6.063   6.129
10489WAT     H231710   0.081   6.119   6.280
10490WAT      O31711   2.891   6.021   7.514
10490WAT     H131712   2.962   5.985   7.453
10490WAT     H231713   2.873   5.954   7.586
10491WAT      O31714   1.491   4.814   3.824
10491WAT     H131715   1.527   4.809   3.731
10491WAT     H231716   1.438   4.731   3.844
10492WAT      O31717   6.070   7.156   1.705
10492WAT     H131718   6.009   7.215   1.652
10492WAT     H231719   6.030   7.065   1.713
10493WAT      O31720   0.062   2.231   6.040
10493WAT     H131721   0.100   2.168   5.972
10493WAT     H231722   0.069   2.190   6.131
10494WAT      O31723   4.210   6.185   7.244
10494WAT     H131724   4.263   6.231   7.172
10494WAT     H231725   4.113   6.202   7.229
10495WAT      O31726   5.173   8.555   1.335
10495WAT     H131727   5.130   8.547   1.425
10495WAT     H231728   5.118   8.615   1.277
10496WAT      O31729   7.392   8.404   1.631
10496WAT     H131730   7.386   8.402   1.730
10496WAT     H231731   7.480   8.365   1.602
10497WAT      O31732   8.132   2.786   2.006
10497WAT     H131733   8.205   2.819   2.066
10497WAT     H231734   8.169   2.715   1.946
10498WAT      O31735   5.358   6.154   3.843
10498WAT     H131736   5.271   6.161   3.795
10498WAT     H231737   5.372   6.235   3.900
10499WAT      O31738   2.113   8.301   6.605
10499WAT     H131739   2.071   8.344   6.686
10499WAT     H231740   2.181   8.363   6.566
10500WAT      O31741   5.312   1.044   3.365
10500WAT     H131742   5.215   1.065   3.361
10500WAT     H231743   5.325   0.954   3.407
10501WAT      O31744   7.137   2.936   8.055
10501WAT     H131745   7.224   2.947   8.104
10501WAT     H231746   7.139   2.990   7.971
10502WAT      O31747   4.482   3.334   1.444
10502WAT     H131748   4.389   3.355   1.474
10502WAT     H231749   4.538   3.417   1.449
10503WAT      O31750   2.142   7.931   1.655
10503WAT     H131751   2.208   8.004   1.670
10503WAT     H231752   2.055   7.954   1.698
10504WAT      O31753   5.509   4.265   7.617
10504WAT     H131754   5.432   4.225   7.566
10504WAT     H231755   5.477   4.344   7.668
10505WAT      O31756   9.003   7.567   0.452
10505WAT     H131757   8.977   7.641   0.390
10505WAT     H231758   9.046   7.493   0.400
10506WAT      O31759   6.073   1.803   3.965
10506WAT     H131760   6.042   1.735   4.031
10506WAT     H231761   6.008   1.808   3.889
10507WAT      O31762   5.495   8.974   6.411
10507WAT     H131763   5.484   9.049   6.476
10507WAT     H231764   5.587   8.975   6.373
10508WAT      O31765   2.107   5.085   4.909
10508WAT     H131766   2.174   5.032   4.961
10508WAT     H231767   2.109   5.056   4.813
10509WAT      O31768   6.769   1.050   8.428
10509WAT     H131769   6.744   1.097   8.513
10509WAT     H231770   6.862   1.015   8.436
10510WAT      O31771   8.508   2.795   7.615
10510WAT     H131772   8.440   2.863   7.641
10510WAT     H231773   8.574   2.783   7.690
10511WAT      O31774   6.527   2.882   5.837
10511WAT     H131775   6.492   2.898   5.745
10511WAT     H231776   6.578   2.962   5.868
10512WAT      O31777   9.855   4.770   9.760
10512WAT     H131778   9.887   4.773   9.855
10512WAT     H231779   9.931   4.792   9.699
10513WAT      O31780   2.677   7.849   8.503
10513WAT     H131781   2.770   7.844   8.467
10513WAT     H231782   2.633   7.932   8.470
10514WAT      O31783   5.032   0.975   8.550
10514WAT     H131784   4.994   1.028   8.626
10514WAT     H231785   5.109   0.919   8.584
10515WAT      O31786   1.986   7.771   4.699
10515WAT     H131787   1.909   7.714   4.670
10515WAT     H231788   2.070   7.739   4.655
10516WAT      O31789   8.524   7.404   4.465
10516WAT     H131790   8.613   7.437   4.432
10516WAT     H231791   8.465   7.483   4.484
10517WAT      O31792   9.179   1.975   8.280
10517WAT     H131793   9.242   1.898   8.278
10517WAT     H231794   9.156   2.002   8.187
10518WAT      O31795   8.248   7.236   5.536
10518WAT     H131796   8.336   7.257   5.492
10518WAT     H231797   8.239   7.137   5.546
10519WAT      O31798   3.867   2.012   5.215
10519WAT     H131799   3.891   2.037   5.121
10519WAT     H231800   3.830   1.919   5.216
10520WAT      O31801   2.042   0.231   5.150
10520WAT     H131802   2.082   0.263   5.064
10520WAT     H231803   2.058   0.133   5.159
10521WAT      O31804   3.741   3.013   2.811
10521WAT     H131805   3.713   2.983   2.902
10521WAT     H231806   3.705   3.105   2.793
10522WAT      O31807   3.967   0.288   7.510
10522WAT     H131808   3.882   0.326   7.546
10522WAT     H231809   3.993   0.207   7.563
10523WAT      O31810   6.031   9.718   2.356
10523WAT     H131811   6.075   9.725   2.446
10523WAT     H231812   5.936   9.689   2.367
10524WAT      O31813   2.217   3.742   8.619
10524WAT     H131814   2.289   3.790   8.569
10524WAT     H231815   2.127   3.779   8.593
10525WAT      O31816   2.869   4.897   1.105
10525WAT     H131817   2.770   4.885   1.101
10525WAT     H231818   2.912   4.847   1.030
10526WAT      O31819   7.413   5.923   9.136
10526WAT     H131820   7.320   5.931   9.102
10526WAT     H231821   7.432   5.827   9.158
10527WAT      O31822   5.375   7.510   5.287
10527WAT     H131823   5.296   7.458   5.318
10527WAT     H231824   5.355   7.550   5.198
10528WAT      O31825   8.310   4.081   5.008
10528WAT     H131826   8.366   4.107   5.086
10528WAT     H231827   8.296   3.982   5.009
10529WAT      O31828   5.522   6.940   1.986
10529WAT     H131829   5.517   7.030   1.944
10529WAT     H231830   5.560   6.874   1.921
10530WAT      O31831   6.311   6.504   9.682
10530WAT     H131832   6.368   6.586   9.677
10530WAT     H231833   6.366   6.425   9.708
10531WAT      O31834   3.168   9.490   6.775
10531WAT     H131835   3.092   9.471   6.713
10531WAT     H231836   3.218   9.571   6.745
10532WAT      O31837   4.334   3.806   2.365
10532WAT     H131838   4.402   3.850   2.424
10532WAT     H231839   4.244   3.847   2.380
10533WAT      O31840   2.401   9.354   1.628
10533WAT     H131841   2.448   9.288   1.570
10533WAT     H231842   2.460   9.380   1.704
10534WAT      O31843   4.390   3.189   6.820
10534WAT     H131844   4.356   3.138   6.899
10534WAT     H231845   4.368   3.139   6.736
10535WAT      O31846   5.052   3.537   1.954
10535WAT     H131847   4.985   3.611   1.955
10535WAT     H231848   5.100   3.535   1.866
10536WAT      O31849   8.554   3.161   2.902
10536WAT     H131850   8.593   3.073   2.875
10536WAT     H231851   8.552   3.222   2.823
10537WAT      O31852   6.867   2.802   0.204
10537WAT     H131853   6.817   2.771   0.123
10537WAT     H231854   6.803   2.827   0.276
10538WAT      O31855   5.695   5.843   0.257
10538WAT     H131856   5.654   5.765   0.304
10538WAT     H231857   5.628   5.883   0.195
10539WAT      O31858   1.228   7.341   8.945
10539WAT     H131859   1.321   7.303   8.938
10539WAT     H231860   1.209   7.397   8.865
10540WAT      O31861   3.020   8.882   3.365
10540WAT     H131862   2.940   8.888   3.426
10540WAT     H231863   3.086   8.953   3.392
10541WAT      O31864   7.405   9.354   8.345
10541WAT     H131865   7.432   9.281   8.282
10541WAT     H231866   7.375   9.314   8.431
10542WAT      O31867   5.477   0.113   3.871
10542WAT     H131868   5.496   0.211   3.880
10542WAT     H231869   5.391   0.100   3.823
10543WAT      O31870   3.120   3.353   8.921
10543WAT     H131871   3.111   3.254   8.936
10543WAT     H231872   3.133   3.371   8.824
10544WAT      O31873   9.222   7.751   1.096
10544WAT     H131874   9.200   7.828   1.036
10544WAT     H231875   9.233   7.668   1.041
10545WAT      O31876   4.638   4.064   1.960
10545WAT     H131877   4.649   4.002   1.882
10545WAT     H231878   4.643   4.012   2.045
10546WAT      O31879   2.143   7.480   0.541
10546WAT     H131880   2.063   7.523   0.583
10546WAT     H231881   2.173   7.403   0.597
10547WAT      O31882   7.486   1.202   7.913
10547WAT     H131883   7.407   1.233   7.860
10547WAT     H231884   7.550   1.155   7.853
10548WAT      O31885   1.401   7.849   1.188
10548WAT     H131886   1.348   7.768   1.212
10548WAT     H231887   1.370   7.927   1.243
10549WAT      O31888   8.947   9.119   6.312
10549WAT     H131889   8.850   9.135   6.327
10549WAT     H231890   8.997   9.204   6.326
10550WAT      O31891   7.140   2.819   6.238
10550WAT     H131892   7.128   2.758   6.159
10550WAT     H231893   7.237   2.839   6.250
10551WAT      O31894   1.198   6.104   3.218
10551WAT     H131895   1.147   6.045   3.281
10551WAT     H231896   1.278   6.054   3.184
10552WAT      O31897   5.685   0.982   0.092
10552WAT     H131898   5.656   0.987  -0.004
10552WAT     H231899   5.606   0.996   0.152
10553WAT      O31900   0.245   3.754   3.476
10553WAT     H131901   0.327   3.788   3.431
10553WAT     H231902   0.201   3.828   3.526
10554WAT      O31903   5.105   7.694   1.462
10554WAT     H131904   5.203   7.699   1.448
10554WAT     H231905   5.058   7.710   1.375
10555WAT      O31906   9.002   4.433   8.328
10555WAT     H131907   9.053   4.514   8.298
10555WAT     H231908   9.066   4.361   8.352
10556WAT      O31909   8.751   6.489   7.933
10556WAT     H131910   8.724   6.405   7.885
10556WAT     H231911   8.710   6.490   8.024
10557WAT      O31912   1.637   0.198   6.891
10557WAT     H131913   1.567   0.269   6.882
10557WAT     H231914   1.667   0.194   6.987
10558WAT      O31915   8.252   7.382   9.255
10558WAT     H131916   8.187   7.306   9.261
10558WAT     H231917   8.240   7.428   9.167
10559WAT      O31918   8.643   9.683   0.488
10559WAT     H131919   8.588   9.606   0.520
10559WAT     H231920   8.675   9.736   0.566
10560WAT      O31921   9.011   9.245   3.833
10560WAT     H131922   8.997   9.219   3.737
10560WAT     H231923   8.963   9.180   3.892
10561WAT      O31924   9.212   7.901   5.561
10561WAT     H131925   9.218   7.999   5.580
10561WAT     H231926   9.247   7.883   5.469
10562WAT      O31927   1.666   3.444   0.020
10562WAT     H131928   1.756   3.465   0.059
10562WAT     H231929   1.664   3.471  -0.076
10563WAT      O31930   2.949   7.168   6.038
10563WAT     H131931   2.910   7.208   6.120
10563WAT     H231932   3.018   7.229   6.000
10564WAT      O31933   4.035   1.309   8.253
10564WAT     H131934   4.106   1.308   8.183
10564WAT     H231935   4.073   1.344   8.339
10565WAT      O31936   6.877   4.354   2.797
10565WAT     H131937   6.973   4.340   2.821
10565WAT     H231938   6.821   4.342   2.879
10566WAT      O31939   7.495   7.225   5.559
10566WAT     H131940   7.517   7.135   5.596
10566WAT     H231941   7.578   7.268   5.524
10567WAT      O31942   6.500   9.849   2.065
10567WAT     H131943   6.533   9.758   2.039
10567WAT     H231944   6.406   9.843   2.097
10568WAT      O31945   9.083   1.270   1.872
10568WAT     H131946   9.006   1.234   1.820
10568WAT     H231947   9.053   1.296   1.964
10569WAT      O31948   1.839   8.591   6.568
10569WAT     H131949   1.897   8.560   6.492
10569WAT     H231950   1.746   8.606   6.535
10570WAT      O31951   6.913   1.439   3.753
10570WAT     H131952   6.895   1.403   3.844
10570WAT     H231953   6.928   1.363   3.690
10571WAT      O31954   7.492   4.301   5.195
10571WAT     H131955   7.468   4.375   5.132
10571WAT     H231956   7.448   4.316   5.283
10572WAT      O31957   2.671   6.583   5.420
10572WAT     H131958   2.753   6.620   5.379
10572WAT     H231959   2.594   6.645   5.404
10573WAT      O31960   2.497   1.458   8.516
10573WAT     H131961   2.428   1.529   8.523
10573WAT     H231962   2.521   1.425   8.607
10574WAT      O31963   1.266   8.343   6.753
10574WAT     H131964   1.228   8.435   6.756
10574WAT     H231965   1.308   8.322   6.842
10575WAT      O31966   6.105   7.082   4.282
10575WAT     H131967   6.151   7.117   4.363
10575WAT     H231968   6.173   7.046   4.218
10576WAT      O31969   9.069   4.174   1.361
10576WAT     H131970   9.003   4.112   1.320
10576WAT     H231971   9.115   4.128   1.437
10577WAT      O31972   0.120   2.572   2.287
10577WAT     H131973   0.157   2.480   2.302
10577WAT     H231974   0.117   2.621   2.374
10578WAT      O31975   6.287   6.868   5.640
10578WAT     H131976   6.259   6.875   5.736
10578WAT     H231977   6.387   6.866   5.635
10579WAT      O31978   7.566   9.150   6.880
10579WAT     H131979   7.587   9.113   6.970
10579WAT     H231980   7.510   9.085   6.829
10580WAT      O31981   2.004   6.659   9.831
10580WAT     H131982   2.100   6.653   9.858
10580WAT     H231983   1.946   6.651   9.911
10581WAT      O31984   7.969   8.994   5.851
10581WAT     H131985   8.037   9.052   5.807
10581WAT     H231986   8.003   8.966   5.941
10582WAT      O31987   1.296   4.422   5.580
10582WAT     H131988   1.329   4.387   5.668
10582WAT     H231989   1.350   4.502   5.554
10583WAT      O31990   3.853   8.992   9.078
10583WAT     H131991   3.920   8.955   9.142
10583WAT     H231992   3.878   8.967   8.985
10584WAT      O31993   0.832   4.173   2.958
10584WAT     H131994   0.811   4.212   3.048
10584WAT     H231995   0.909   4.223   2.917
10585WAT      O31996   6.984   8.632   1.471
10585WAT     H131997   6.912   8.693   1.503
10585WAT     H231998   6.969   8.607   1.376
10586WAT      O31999   8.519   8.310   3.341
10586WAT     H132000   8.435   8.364   3.354
10586WAT     H232001   8.531   8.292   3.243
10587WAT      O32002   1.934   4.164   4.378
10587WAT     H132003   1.875   4.241   4.404
10587WAT     H232004   2.003   4.149   4.449
10588WAT      O32005   7.827   3.483   4.443
10588WAT     H132006   7.827   3.421   4.364
10588WAT     H232007   7.917   3.482   4.487
10589WAT      O32008   3.586   9.631   1.227
10589WAT     H132009   3.614   9.607   1.320
10589WAT     H232010   3.598   9.552   1.167
10590WAT      O32011   9.317   4.835   2.702
10590WAT     H132012   9.415   4.853   2.703
10590WAT     H232013   9.267   4.921   2.696
10591WAT      O32014   2.893   7.083   8.060
10591WAT     H132015   2.928   7.107   7.970
10591WAT     H232016   2.928   7.148   8.128
10592WAT      O32017   2.037   6.352   4.706
10592WAT     H132018   2.054   6.320   4.613
10592WAT     H232019   2.123   6.379   4.748
10593WAT      O32020   5.365   4.505   2.030
10593WAT     H132021   5.321   4.557   2.103
10593WAT     H232022   5.324   4.529   1.942
10594WAT      O32023   0.962   5.415   9.224
10594WAT     H132024   0.867   5.425   9.254
10594WAT     H232025   0.984   5.486   9.157
10595WAT      O32026   0.682   8.534   7.682
10595WAT     H132027   0.772   8.570   7.707
10595WAT     H232028   0.612   8.574   7.742
10596WAT      O32029   9.688   4.080   7.034
10596WAT     H132030   9.649   4.064   7.125
10596WAT     H232031   9.669   4.174   7.007
10597WAT      O32032   8.969   1.356   0.354
10597WAT     H132033   8.974   1.256   0.345
10597WAT     H232034   9.036   1.387   0.422
10598WAT      O32035   9.595   8.126   3.037
10598WAT     H132036   9.694   8.141   3.024
10598WAT     H232037   9.581   8.051   3.102
10599WAT      O32038   8.867   4.043   3.830
10599WAT     H132039   8.865   4.143   3.839
10599WAT     H232040   8.931   4.005   3.897
10600WAT      O32041   5.679   8.927   7.010
10600WAT     H132042   5.758   8.977   7.045
10600WAT     H232043   5.631   8.982   6.942
10601WAT      O32044   9.283   0.587   2.709
10601WAT     H132045   9.269   0.678   2.749
10601WAT     H232046   9.381   0.571   2.696
10602WAT      O32047   7.155   8.005   7.947
10602WAT     H132048   7.254   8.004   7.958
10602WAT     H232049   7.128   8.082   7.889
10603WAT      O32050   3.123   3.297   9.403
10603WAT     H132051   3.220   3.283   9.420
10603WAT     H232052   3.110   3.367   9.333
10604WAT      O32053   0.787   0.543   8.697
10604WAT     H132054   0.816   0.638   8.690
10604WAT     H232055   0.865   0.486   8.723
10605WAT      O32056   1.810   0.270   7.507
10605WAT     H132057   1.873   0.324   7.563
10605WAT     H232058   1.785   0.322   7.425
10606WAT      O32059   4.928   4.037   7.149
10606WAT     H132060   5.018   3.995   7.143
10606WAT     H232061   4.911   4.067   7.243
10607WAT      O32062   6.988   6.742   4.860
10607WAT     H132063   6.940   6.821   4.898
10607WAT     H232064   7.044   6.700   4.931
10608WAT      O32065   0.931   0.190   6.099
10608WAT     H132066   1.021   0.194   6.057
10608WAT     H232067   0.889   0.281   6.097
10609WAT      O32068   8.206   4.053   3.817
10609WAT     H132069   8.215   4.150   3.797
10609WAT     H232070   8.109   4.028   3.820
10610WAT      O32071   2.927   5.790   3.920
10610WAT     H132072   2.854   5.813   3.985
10610WAT     H232073   2.950   5.871   3.866
10611WAT      O32074   2.277   1.667   7.130
10611WAT     H132075   2.258   1.576   7.094
10611WAT     H232076   2.372   1.691   7.113
10612WAT      O32077   3.031   3.423   5.003
10612WAT     H132078   2.992   3.383   5.086
10612WAT     H232079   2.958   3.454   4.942
10613WAT      O32080   0.676   5.575   4.026
10613WAT     H132081   0.709   5.482   4.005
10613WAT     H232082   0.754   5.634   4.045
10614WAT      O32083   9.453   9.165   7.720
10614WAT     H132084   9.385   9.181   7.791
10614WAT     H232085   9.536   9.217   7.741
10615WAT      O32086   3.838   8.585   3.046
10615WAT     H132087   3.874   8.659   2.989
10615WAT     H232088   3.769   8.622   3.109
10616WAT      O32089   5.851   1.486   1.586
10616WAT     H132090   5.778   1.477   1.518
10616WAT     H232091   5.870   1.583   1.601
10617WAT      O32092   9.529   2.428   7.118
10617WAT     H132093   9.479   2.479   7.049
10617WAT     H232094   9.536   2.482   7.202
10618WAT      O32095   3.888   7.694   8.860
10618WAT     H132096   3.982   7.721   8.838
10618WAT     H232097   3.880   7.595   8.854
10619WAT      O32098   5.859   7.396   7.884
10619WAT     H132099   5.905   7.330   7.825
10619WAT     H232100   5.891   7.384   7.979
10620WAT      O32101   0.333   3.283   5.446
10620WAT     H132102   0.304   3.341   5.522
10620WAT     H232103   0.332   3.187   5.476
10621WAT      O32104   9.537   6.720   4.994
10621WAT     H132105   9.437   6.716   4.991
10621WAT     H232106   9.574   6.628   4.989
10622WAT      O32107   7.905   8.904   6.311
10622WAT     H132108   7.924   8.886   6.408
10622WAT     H232109   7.811   8.876   6.290
10623WAT      O32110   4.762   6.388   0.189
10623WAT     H132111   4.824   6.412   0.264
10623WAT     H232112   4.668   6.408   0.215
10624WAT      O32113   5.837   6.952   3.398
10624WAT     H132114   5.839   6.864   3.350
10624WAT     H232115   5.903   6.950   3.474
10625WAT      O32116   3.479   3.346   1.485
10625WAT     H132117   3.494   3.345   1.387
10625WAT     H232118   3.392   3.301   1.507
10626WAT      O32119   6.977   0.579   4.096
10626WAT     H132120   7.070   0.593   4.064
10626WAT     H232121   6.922   0.660   4.077
10627WAT      O32122   0.871   8.046   6.276
10627WAT     H132123   0.777   8.014   6.279
10627WAT     H232124   0.909   8.050   6.368
10628WAT      O32125   1.075   4.885   3.563
10628WAT     H132126   1.147   4.820   3.585
10628WAT     H232127   0.998   4.837   3.522
10629WAT      O32128   7.868   6.200   8.384
10629WAT     H132129   7.829   6.268   8.322
10629WAT     H232130   7.908   6.245   8.463
10630WAT      O32131   2.917   8.033   0.815
10630WAT     H132132   2.898   8.106   0.881
10630WAT     H232133   2.963   8.071   0.735
10631WAT      O32134   0.909   6.616   6.539
10631WAT     H132135   0.888   6.570   6.625
10631WAT     H232136   0.856   6.701   6.533
10632WAT      O32137   0.401   7.623   2.468
10632WAT     H132138   0.407   7.607   2.370
10632WAT     H232139   0.350   7.707   2.486
10633WAT      O32140   9.550   3.138   2.594
10633WAT     H132141   9.520   3.150   2.499
10633WAT     H232142   9.595   3.221   2.625
10634WAT      O32143   4.604   0.676   6.551
10634WAT     H132144   4.658   0.594   6.571
10634WAT     H232145   4.571   0.715   6.636
10635WAT      O32146   2.991   1.905   5.981
10635WAT     H132147   3.046   1.838   5.931
10635WAT     H232148   3.045   1.986   5.999
10636WAT      O32149   6.192   9.004   3.407
10636WAT     H132150   6.203   8.929   3.342
10636WAT     H232151   6.164   9.087   3.358
10637WAT      O32152   3.510   9.500   5.729
10637WAT     H132153   3.510   9.589   5.682
10637WAT     H232154   3.418   9.461   5.726
10638WAT      O32155   2.604   2.725   6.278
10638WAT     H132156   2.601   2.632   6.241
10638WAT     H232157   2.567   2.789   6.212
10639WAT      O32158   8.905   3.997   1.239
10639WAT     H132159   8.814   3.955   1.242
10639WAT     H232160   8.975   3.927   1.233
10640WAT      O32161   5.433   2.398   1.091
10640WAT     H132162   5.340   2.411   1.124
10640WAT     H232163   5.447   2.302   1.067
10641WAT      O32164   2.340   1.235   2.633
10641WAT     H132165   2.293   1.181   2.703
10641WAT     H232166   2.291   1.228   2.546
10642WAT      O32167   2.053   4.543   1.114
10642WAT     H132168   1.997   4.587   1.044
10642WAT     H232169   2.149   4.541   1.084
10643WAT      O32170   3.800   3.369   2.451
10643WAT     H132171   3.799   3.467   2.431
10643WAT     H232172   3.710   3.330   2.433
10644WAT      O32173   8.463   9.437   1.182
10644WAT     H132174   8.520   9.467   1.259
10644WAT     H232175   8.473   9.502   1.106
10645WAT      O32176   5.147   7.241   8.154
10645WAT     H132177   5.124   7.163   8.096
10645WAT     H232178   5.081   7.248   8.228
10646WAT      O32179   7.336   1.680   5.674
10646WAT     H132180   7.414   1.703   5.732
10646WAT     H232181   7.350   1.718   5.583
10647WAT      O32182   7.596   7.807   5.827
10647WAT     H132183   7.557   7.855   5.906
10647WAT     H232184   7.580   7.709   5.837
10648WAT      O32185   2.626   6.107   6.088
10648WAT     H132186   2.682   6.035   6.128
10648WAT     H232187   2.674   6.149   6.012
10649WAT      O32188   3.503   9.328   6.228
10649WAT     H132189   3.503   9.263   6.303
10649WAT     H232190   3.527   9.282   6.143
10650WAT      O32191   3.460   7.622   0.039
10650WAT     H132192   3.501   7.646  -0.049
10650WAT     H232193   3.489   7.530   0.065
10651WAT      O32194   5.752   6.433   9.806
10651WAT     H132195   5.841   6.476   9.824
10651WAT     H232196   5.765   6.335   9.789
10652WAT      O32197   8.792   1.342   0.140
10652WAT     H132198   8.846   1.349   0.224
10652WAT     H232199   8.850   1.307   0.067
10653WAT      O32200   0.747   3.164   7.993
10653WAT     H132201   0.698   3.188   7.910
10653WAT     H232202   0.684   3.127   8.061
10654WAT      O32203   6.755   1.861   0.241
10654WAT     H132204   6.728   1.849   0.337
10654WAT     H232205   6.768   1.772   0.199
10655WAT      O32206   2.390   7.145   3.802
10655WAT     H132207   2.437   7.233   3.788
10655WAT     H232208   2.337   7.122   3.721
10656WAT      O32209   2.248   8.387   4.189
10656WAT     H132210   2.283   8.295   4.171
10656WAT     H232211   2.219   8.429   4.103
10657WAT      O32212   8.124   2.775   1.649
10657WAT     H132213   8.034   2.820   1.655
10657WAT     H232214   8.191   2.840   1.614
10658WAT      O32215   0.410   6.958   0.248
10658WAT     H132216   0.437   7.035   0.304
10658WAT     H232217   0.491   6.917   0.205
10659WAT      O32218   5.932   2.460   8.289
10659WAT     H132219   5.834   2.455   8.310
10659WAT     H232220   5.956   2.553   8.264
10660WAT      O32221   4.105   3.538   8.208
10660WAT     H132222   4.039   3.468   8.237
10660WAT     H232223   4.169   3.497   8.143
10661WAT      O32224   5.702   0.014   5.716
10661WAT     H132225   5.685   0.006   5.618
10661WAT     H232226   5.617   0.039   5.763
10662WAT      O32227   0.210   1.777   0.260
10662WAT     H132228   0.168   1.687   0.249
10662WAT     H232229   0.270   1.796   0.182
10663WAT      O32230   0.757   9.129   2.164
10663WAT     H132231   0.818   9.203   2.193
10663WAT     H232232   0.673   9.168   2.125
10664WAT      O32233   5.550   5.859   3.613
10664WAT     H132234   5.600   5.935   3.654
10664WAT     H232235   5.455   5.860   3.645
10665WAT      O32236   0.771   0.843   2.861
10665WAT     H132237   0.776   0.792   2.775
10665WAT     H232238   0.847   0.908   2.866
10666WAT      O32239   7.418   2.833   7.830
10666WAT     H132240   7.434   2.763   7.899
10666WAT     H232241   7.504   2.878   7.807
10667WAT      O32242   6.282   8.131   1.557
10667WAT     H132243   6.260   8.184   1.638
10667WAT     H232244   6.312   8.039   1.584
10668WAT      O32245   6.828   1.062   2.609
10668WAT     H132246   6.916   1.017   2.624
10668WAT     H232247   6.760   1.025   2.673
10669WAT      O32248   3.393   8.101   6.178
10669WAT     H132249   3.436   8.188   6.203
10669WAT     H232250   3.298   8.101   6.208
10670WAT      O32251   7.167   4.001   1.697
10670WAT     H132252   7.082   3.949   1.704
10670WAT     H232253   7.172   4.067   1.772
10671WAT      O32254   4.165   2.141   8.275
10671WAT     H132255   4.101   2.066   8.253
10671WAT     H232256   4.114   2.219   8.309
10672WAT      O32257   4.905   7.399   5.231
10672WAT     H132258   4.906   7.408   5.132
10672WAT     H232259   4.814   7.371   5.262
10673WAT      O32260   4.360   2.852   8.368
10673WAT     H132261   4.418   2.856   8.450
10673WAT     H232262   4.270   2.816   8.393
10674WAT      O32263   9.474   5.500   1.628
10674WAT     H132264   9.495   5.447   1.546
10674WAT     H232265   9.550   5.561   1.649
10675WAT      O32266   6.259   1.485   3.488
10675WAT     H132267   6.358   1.476   3.499
10675WAT     H232268   6.237   1.498   3.391
10676WAT      O32269   3.267   0.377   4.864
10676WAT     H132270   3.272   0.324   4.780
10676WAT     H232271   3.346   0.356   4.922
10677WAT      O32272   0.206   4.815   4.113
10677WAT     H132273   0.189   4.830   4.210
10677WAT     H232274   0.270   4.739   4.103
10678WAT      O32275   0.689   4.893   8.433
10678WAT     H132276   0.748   4.925   8.359
10678WAT     H232277   0.666   4.969   8.492
10679WAT      O32278   6.385   6.169   1.513
10679WAT     H132279   6.375   6.098   1.443
10679WAT     H232280   6.443   6.135   1.587
10680WAT      O32281   5.797   2.680   2.567
10680WAT     H132282   5.865   2.724   2.626
10680WAT     H232283   5.714   2.662   2.619
10681WAT      O32284   7.252   0.317   2.327
10681WAT     H132285   7.209   0.274   2.407
10681WAT     H232286   7.314   0.252   2.283
10682WAT      O32287   8.669   9.810   3.432
10682WAT     H132288   8.753   9.787   3.481
10682WAT     H232289   8.598   9.742   3.453
10683WAT      O32290   9.537   6.817   3.872
10683WAT     H132291   9.627   6.786   3.905
10683WAT     H232292   9.529   6.798   3.774
10684WAT      O32293   7.130   0.826   5.291
10684WAT     H132294   7.223   0.795   5.272
10684WAT     H232295   7.078   0.752   5.334
10685WAT      O32296   1.165   1.592   8.417
10685WAT     H132297   1.217   1.662   8.369
10685WAT     H232298   1.078   1.629   8.446
10686WAT      O32299   2.965   8.646   5.239
10686WAT     H132300   2.965   8.569   5.176
10686WAT     H232301   2.872   8.660   5.275
10687WAT      O32302   8.034   7.240   2.383
10687WAT     H132303   8.050   7.189   2.467
10687WAT     H232304   8.016   7.336   2.404
10688WAT      O32305   5.109   1.602   5.853
10688WAT     H132306   5.012   1.584   5.867
10688WAT     H232307   5.163   1.539   5.910
10689WAT      O32308   8.917   8.147   2.146
10689WAT     H132309   9.004   8.147   2.097
10689WAT     H232310   8.852   8.089   2.097
10690WAT      O32311   9.652   2.303   0.720
10690WAT     H132312   9.645   2.284   0.818
10690WAT     H232313   9.681   2.397   0.706
10691WAT      O32314   1.183   6.877   4.568
10691WAT     H132315   1.240   6.800   4.541
10691WAT     H232316   1.226   6.963   4.541
10692WAT      O32317   8.055   4.542   8.784
10692WAT     H132318   8.075   4.560   8.688
10692WAT     H232319   8.137   4.559   8.840
10693WAT      O32320   5.490   3.541   5.893
10693WAT     H132321   5.450   3.523   5.983
10693WAT     H232322   5.487   3.639   5.874
10694WAT      O32323   6.535   2.615   9.605
10694WAT     H132324   6.625   2.597   9.644
10694WAT     H232325   6.544   2.632   9.507
10695WAT      O32326   9.126   2.937   3.361
10695WAT     H132327   9.202   2.885   3.399
10695WAT     H232328   9.142   3.035   3.376
10696WAT      O32329   0.395   5.587   1.693
10696WAT     H132330   0.485   5.583   1.651
10696WAT     H232331   0.404   5.596   1.792
10697WAT      O32332   2.099   7.123   1.729
10697WAT     H132333   2.109   7.179   1.812
10697WAT     H232334   2.006   7.133   1.694
10698WAT      O32335   2.902   7.414   9.007
10698WAT     H132336   2.892   7.357   8.925
10698WAT     H232337   2.821   7.472   9.016
10699WAT      O32338   2.254   7.793   6.458
10699WAT     H132339   2.344   7.773   6.419
10699WAT     H232340   2.252   7.887   6.492
10700WAT      O32341   1.427   8.719   7.188
10700WAT     H132342   1.451   8.814   7.169
10700WAT     H232343   1.485   8.658   7.133
10701WAT      O32344   8.484   7.201   2.482
10701WAT     H132345   8.547   7.124   2.491
10701WAT     H232346   8.534   7.287   2.496
10702WAT      O32347   8.808   9.026   4.887
10702WAT     H132348   8.825   9.055   4.793
10702WAT     H232349   8.709   9.021   4.903
10703WAT      O32350   8.940   5.753   4.009
10703WAT     H132351   8.904   5.777   4.100
10703WAT     H232352   8.864   5.752   3.943
10704WAT      O32353   1.227   2.028   6.827
10704WAT     H132354   1.132   1.998   6.819
10704WAT     H232355   1.256   2.070   6.740
10705WAT      O32356   0.253   0.387   6.608
10705WAT     H132357   0.306   0.397   6.524
10705WAT     H232358   0.316   0.378   6.685
10706WAT      O32359   6.741   3.549   8.647
10706WAT     H132360   6.738   3.630   8.706
10706WAT     H232361   6.674   3.559   8.573
10707WAT      O32362   0.434   4.300   0.285
10707WAT     H132363   0.384   4.340   0.208
10707WAT     H232364   0.511   4.359   0.310
10708WAT      O32365   8.114   3.279   3.877
10708WAT     H132366   8.142   3.290   3.781
10708WAT     H232367   8.115   3.367   3.923
10709WAT      O32368   6.539   4.746   3.433
10709WAT     H132369   6.522   4.653   3.399
10709WAT     H232370   6.626   4.780   3.395
10710WAT      O32371   5.527   0.639   4.597
10710WAT     H132372   5.594   0.618   4.668
10710WAT     H232373   5.575   0.652   4.510
10711WAT      O32374   2.466   1.133   5.134
10711WAT     H132375   2.453   1.161   5.039
10711WAT     H232376   2.492   1.213   5.188
10712WAT      O32377   9.406   7.236   9.831
10712WAT     H132378   9.440   7.319   9.874
10712WAT     H232379   9.421   7.241   9.733
10713WAT      O32380   5.893   3.056   6.178
10713WAT     H132381   5.923   3.046   6.083
10713WAT     H232382   5.813   3.115   6.182
10714WAT      O32383   9.416   7.567   3.848
10714WAT     H132384   9.397   7.474   3.879
10714WAT     H232385   9.401   7.631   3.924
10715WAT      O32386   5.842   4.197   3.446
10715WAT     H132387   5.886   4.171   3.532
10715WAT     H232388   5.875   4.287   3.417
10716WAT      O32389   7.483   9.789   1.539
10716WAT     H132390   7.484   9.741   1.627
10716WAT     H232391   7.434   9.875   1.548
10717WAT      O32392   3.227   4.921   5.404
10717WAT     H132393   3.199   4.923   5.500
10717WAT     H232394   3.146   4.921   5.346
10718WAT      O32395   6.115   6.218   3.891
10718WAT     H132396   6.042   6.173   3.839
10718WAT     H232397   6.203   6.199   3.848
10719WAT      O32398   1.837   6.700   6.615
10719WAT     H132399   1.857   6.767   6.544
10719WAT     H232400   1.809   6.614   6.572
10720WAT      O32401   7.732   3.327   1.262
10720WAT     H132402   7.636   3.349   1.243
10720WAT     H232403   7.746   3.228   1.254
10721WAT      O32404   1.772   2.779   6.032
10721WAT     H132405   1.770   2.728   6.118
10721WAT     H232406   1.810   2.870   6.048
10722WAT      O32407   9.847   5.519   4.374
10722WAT     H132408   9.756   5.545   4.341
10722WAT     H232409   9.873   5.431   4.336
10723WAT      O32410   4.461   1.826   1.613
10723WAT     H132411   4.556   1.830   1.645
10723WAT     H232412   4.448   1.742   1.560
10724WAT      O32413   6.540   1.436   2.657
10724WAT     H132414   6.551   1.453   2.755
10724WAT     H232415   6.459   1.485   2.624
10725WAT      O32416   6.841   2.958   5.668
10725WAT     H132417   6.895   2.912   5.738
10725WAT     H232418   6.847   3.057   5.680
10726WAT      O32419   2.593   6.511   4.068
10726WAT     H132420   2.539   6.451   4.009
10726WAT     H232421   2.576   6.606   4.043
10727WAT      O32422   4.210   5.152   4.920
10727WAT     H132423   4.124   5.126   4.963
10727WAT     H232424   4.208   5.127   4.824
10728WAT      O32425   7.277   6.938   4.940
10728WAT     H132426   7.319   6.932   4.849
10728WAT     H232427   7.295   7.029   4.978
10729WAT      O32428   6.048   1.406   3.830
10729WAT     H132429   6.123   1.460   3.867
10729WAT     H232430   6.080   1.315   3.805
10730WAT      O32431   1.761   4.735   2.610
10730WAT     H132432   1.707   4.667   2.560
10730WAT     H232433   1.719   4.825   2.599
10731WAT      O32434   8.992   2.981   8.094
10731WAT     H132435   9.076   3.031   8.113
10731WAT     H232436   8.974   2.916   8.168
10732WAT      O32437   7.715   6.944   8.963
10732WAT     H132438   7.699   7.027   8.909
10732WAT     H232439   7.631   6.919   9.011
10733WAT      O32440   7.023   4.203   6.080
10733WAT     H132441   7.107   4.166   6.120
10733WAT     H232442   7.035   4.301   6.065
10734WAT      O32443   9.402   3.870   7.971
10734WAT     H132444   9.477   3.840   8.029
10734WAT     H232445   9.363   3.955   8.007
10735WAT      O32446   1.544   5.683   5.183
10735WAT     H132447   1.467   5.684   5.119
10735WAT     H232448   1.596   5.768   5.174
10736WAT      O32449   4.481   7.732   2.632
10736WAT     H132450   4.387   7.767   2.637
10736WAT     H232451   4.495   7.664   2.703
10737WAT      O32452   5.654   2.188   8.529
10737WAT     H132453   5.575   2.182   8.589
10737WAT     H232454   5.627   2.164   8.436
10738WAT      O32455   9.163   1.718   3.979
10738WAT     H132456   9.146   1.664   4.061
10738WAT     H232457   9.087   1.782   3.964
10739WAT      O32458   3.346   8.652   2.603
10739WAT     H132459   3.302   8.732   2.644
10739WAT     H232460   3.287   8.615   2.531
10740WAT      O32461   2.602   9.224   4.410
10740WAT     H132462   2.544   9.191   4.336
10740WAT     H232463   2.657   9.148   4.445
10741WAT      O32464   2.721   0.814   3.987
10741WAT     H132465   2.763   0.896   3.949
10741WAT     H232466   2.741   0.736   3.928
10742WAT      O32467   1.560   7.624   5.867
10742WAT     H132468   1.538   7.568   5.787
10742WAT     H232469   1.492   7.609   5.938
10743WAT      O32470   2.925   5.419   6.670
10743WAT     H132471   2.855   5.363   6.714
10743WAT     H232472   3.007   5.420   6.726
10744WAT      O32473   8.415   9.031   1.565
10744WAT     H132474   8.514   9.027   1.578
10744WAT     H232475   8.395   9.057   1.470
10745WAT      O32476   2.040   0.877   9.093
10745WAT     H132477   2.054   0.846   8.999
10745WAT     H232478   2.114   0.938   9.120
10746WAT      O32479   5.408   4.813   1.689
10746WAT     H132480   5.359   4.825   1.775
10746WAT     H232481   5.345   4.777   1.620
10747WAT      O32482   9.231   3.092   8.197
10747WAT     H132483   9.277   3.081   8.109
10747WAT     H232484   9.262   3.021   8.260
10748WAT      O32485   2.970   8.979   7.804
10748WAT     H132486   2.989   8.922   7.883
10748WAT     H232487   2.884   9.029   7.819
10749WAT      O32488   8.737   3.839   5.576
10749WAT     H132489   8.759   3.843   5.673
10749WAT     H232490   8.693   3.751   5.555
10750WAT      O32491   5.936   2.303   1.042
10750WAT     H132492   5.997   2.314   0.964
10750WAT     H232493   5.980   2.243   1.110
10751WAT      O32494   9.811   8.611   4.850
10751WAT     H132495   9.860   8.532   4.814
10751WAT     H232496   9.862   8.650   4.927
10752WAT      O32497   3.955   7.186   7.319
10752WAT     H132498   4.004   7.271   7.299
10752WAT     H232499   4.014   7.108   7.301
10753WAT      O32500   4.895   2.274   3.817
10753WAT     H132501   4.978   2.304   3.770
10753WAT     H232502   4.841   2.353   3.845
10754WAT      O32503   6.048   2.714   7.929
10754WAT     H132504   6.029   2.807   7.897
10754WAT     H232505   6.082   2.718   8.023
10755WAT      O32506   1.110   4.322   2.016
10755WAT     H132507   1.039   4.252   2.026
10755WAT     H232508   1.111   4.355   1.922
10756WAT      O32509   2.274   4.957   7.446
10756WAT     H132510   2.227   4.879   7.486
10756WAT     H232511   2.368   4.931   7.424
10757WAT      O32512   7.936   2.522   1.035
10757WAT     H132513   8.021   2.484   0.997
10757WAT     H232514   7.871   2.539   0.961
10758WAT      O32515   1.064   2.137   2.358
10758WAT     H132516   1.096   2.149   2.264
10758WAT     H232517   1.136   2.162   2.422
10759WAT      O32518   3.964   0.512   5.342
10759WAT     H132519   3.873   0.551   5.350
10759WAT     H232520   3.966   0.447   5.266
10760WAT      O32521   2.720   7.372   2.798
10760WAT     H132522   2.724   7.299   2.867
10760WAT     H232523   2.734   7.333   2.707
10761WAT      O32524   6.161   1.459   2.725
10761WAT     H132525   6.098   1.400   2.676
10761WAT     H232526   6.233   1.491   2.664
10762WAT      O32527   7.886   5.974   9.836
10762WAT     H132528   7.907   6.063   9.795
10762WAT     H232529   7.925   5.970   9.929
10763WAT      O32530   4.354   6.743   7.675
10763WAT     H132531   4.427   6.675   7.680
10763WAT     H232532   4.276   6.712   7.730
10764WAT      O32533   4.472   5.786   8.488
10764WAT     H132534   4.430   5.865   8.533
10764WAT     H232535   4.554   5.815   8.439
10765WAT      O32536   1.097   1.855   3.996
10765WAT     H132537   1.049   1.941   3.982
10765WAT     H232538   1.193   1.866   3.971
10766WAT      O32539   8.899   5.336   9.384
10766WAT     H132540   8.957   5.349   9.304
10766WAT     H232541   8.851   5.421   9.405
10767WAT      O32542   2.469   0.957   3.035
10767WAT     H132543   2.504   1.036   2.985
10767WAT     H232544   2.403   0.988   3.104
10768WAT      O32545   6.109   8.117   7.769
10768WAT     H132546   6.020   8.070   7.772
10768WAT     H232547   6.165   8.088   7.846
10769WAT      O32548   0.772   5.356   1.439
10769WAT     H132549   0.853   5.406   1.470
10769WAT     H232550   0.786   5.258   1.456
10770WAT      O32551   1.190   6.793   7.499
10770WAT     H132552   1.274   6.739   7.508
10770WAT     H232553   1.126   6.745   7.439
10771WAT      O32554   5.257   6.375   2.028
10771WAT     H132555   5.240   6.376   1.930
10771WAT     H232556   5.170   6.387   2.077
10772WAT      O32557   1.591   4.049   2.805
10772WAT     H132558   1.657   4.089   2.868
10772WAT     H232559   1.522   4.117   2.781
10773WAT      O32560   9.705   2.649   1.147
10773WAT     H132561   9.663   2.739   1.132
10773WAT     H232562   9.713   2.632   1.245
10774WAT      O32563   2.652   8.218   4.046
10774WAT     H132564   2.751   8.217   4.032
10774WAT     H232565   2.617   8.311   4.033
10775WAT      O32566   6.720   5.196   9.764
10775WAT     H132567   6.760   5.174   9.852
10775WAT     H232568   6.651   5.128   9.739
10776WAT      O32569   4.542   2.258   0.585
10776WAT     H132570   4.582   2.318   0.516
10776WAT     H232571   4.442   2.261   0.577
10777WAT      O32572   8.891   6.682   9.840
10777WAT     H132573   8.904   6.732   9.755
10777WAT     H232574   8.799   6.643   9.842
10778WAT      O32575   1.337   6.499   3.742
10778WAT     H132576   1.316   6.507   3.645
10778WAT     H232577   1.326   6.588   3.787
10779WAT      O32578   5.568   0.334   5.821
10779WAT     H132579   5.505   0.260   5.799
10779WAT     H232580   5.528   0.422   5.793
10780WAT      O32581   0.628   7.880   4.916
10780WAT     H132582   0.586   7.815   4.980
10780WAT     H232583   0.682   7.830   4.848
10781WAT      O32584   0.537   7.403   3.126
10781WAT     H132585   0.515   7.463   3.049
10781WAT     H232586   0.493   7.314   3.111
10782WAT      O32587   1.152   2.440   6.233
10782WAT     H132588   1.164   2.510   6.304
10782WAT     H232589   1.154   2.484   6.143
10783WAT      O32590   0.675   5.437   7.632
10783WAT     H132591   0.765   5.433   7.675
10783WAT     H232592   0.625   5.517   7.666
10784WAT      O32593   6.961   9.147   7.336
10784WAT     H132594   6.971   9.192   7.247
10784WAT     H232595   6.923   9.056   7.323
10785WAT      O32596   3.572   3.576   5.075
10785WAT     H132597   3.669   3.559   5.092
10785WAT     H232598   3.534   3.503   5.018
10786WAT      O32599   2.570   2.262   7.309
10786WAT     H132600   2.617   2.265   7.398
10786WAT     H232601   2.607   2.333   7.250
10787WAT      O32602   0.555   2.538   6.325
10787WAT     H132603   0.623   2.488   6.271
10787WAT     H232604   0.601   2.600   6.388
10788WAT      O32605   6.355   0.801   1.898
10788WAT     H132606   6.274   0.837   1.945
10788WAT     H232607   6.396   0.728   1.952
10789WAT      O32608   2.752   6.319   0.397
10789WAT     H132609   2.713   6.336   0.307
10789WAT     H232610   2.787   6.225   0.401
10790WAT      O32611   0.431   9.681   1.147
10790WAT     H132612   0.332   9.697   1.148
10790WAT     H232613   0.454   9.607   1.210
10791WAT      O32614   7.817   1.321   3.712
10791WAT     H132615   7.843   1.235   3.667
10791WAT     H232616   7.805   1.392   3.644
10792WAT      O32617   3.025   6.610   3.194
10792WAT     H132618   3.010   6.592   3.291
10792WAT     H232619   2.965   6.685   3.165
10793WAT      O32620   2.903   7.115   7.426
10793WAT     H132621   2.811   7.145   7.399
10793WAT     H232622   2.907   7.015   7.427
10794WAT      O32623   8.546   0.387   5.083
10794WAT     H132624   8.447   0.384   5.096
10794WAT     H232625   8.587   0.444   5.155
10795WAT      O32626   7.159   7.633   3.516
10795WAT     H132627   7.204   7.657   3.430
10795WAT     H232628   7.195   7.690   3.589
10796WAT      O32629   3.852   8.275   3.446
10796WAT     H132630   3.830   8.305   3.354
10796WAT     H232631   3.792   8.199   3.472
10797WAT      O32632   1.992   1.431   3.190
10797WAT     H132633   1.914   1.399   3.245
10797WAT     H232634   2.051   1.489   3.246
10798WAT      O32635   5.176   1.381   1.491
10798WAT     H132636   5.077   1.370   1.485
10798WAT     H232637   5.201   1.414   1.581
10799WAT      O32638   5.080   4.409   1.225
10799WAT     H132639   5.072   4.443   1.132
10799WAT     H232640   4.995   4.427   1.275
10800WAT      O32641   4.968   9.060   8.927
10800WAT     H132642   4.874   9.094   8.923
10800WAT     H232643   4.967   8.964   8.956
10801WAT      O32644   2.240   0.486   5.070
10801WAT     H132645   2.295   0.409   5.102
10801WAT     H232646   2.216   0.545   5.147
10802WAT      O32647   4.070   1.644   4.745
10802WAT     H132648   4.015   1.655   4.662
10802WAT     H232649   4.099   1.734   4.777
10803WAT      O32650   2.069   6.196   7.150
10803WAT     H132651   1.987   6.156   7.107
10803WAT     H232652   2.147   6.136   7.134
10804WAT      O32653   0.546   7.178   3.616
10804WAT     H132654   0.555   7.194   3.714
10804WAT     H232655   0.484   7.101   3.600
10805WAT      O32656   4.961   4.740   3.474
10805WAT     H132657   4.990   4.828   3.436
10805WAT     H232658   4.969   4.670   3.404
10806WAT      O32659   0.201   2.894   6.755
10806WAT     H132660   0.244   2.908   6.845
10806WAT     H232661   0.244   2.955   6.688
10807WAT      O32662   2.082   4.947   4.674
10807WAT     H132663   2.143   4.869   4.659
10807WAT     H232664   1.989   4.923   4.647
10808WAT      O32665   3.576   6.079   9.664
10808WAT     H132666   3.569   6.168   9.619
10808WAT     H232667   3.537   6.085   9.757
10809WAT      O32668   9.733   3.131   6.261
10809WAT     H132669   9.639   3.164   6.265
10809WAT     H232670   9.739   3.041   6.302
10810WAT      O32671   0.367   1.078   8.254
10810WAT     H132672   0.378   0.979   8.246
10810WAT     H232673   0.438   1.123   8.200
10811WAT      O32674   8.935   7.857   5.562
10811WAT     H132675   9.019   7.905   5.588
10811WAT     H232676   8.956   7.790   5.491
10812WAT      O32677   1.957   2.300   7.427
10812WAT     H132678   1.974   2.392   7.392
10812WAT     H232679   1.984   2.232   7.359
10813WAT      O32680   9.744   5.406   6.810
10813WAT     H132681   9.789   5.351   6.881
10813WAT     H232682   9.686   5.475   6.854
10814WAT      O32683   1.915   6.519   5.404
10814WAT     H132684   1.884   6.434   5.361
10814WAT     H232685   1.839   6.583   5.410
10815WAT      O32686   7.679   4.619   5.187
10815WAT     H132687   7.646   4.701   5.140
10815WAT     H232688   7.670   4.540   5.126
10816WAT      O32689   6.180   4.381   7.126
10816WAT     H132690   6.132   4.342   7.205
10816WAT     H232691   6.154   4.332   7.043
10817WAT      O32692   0.032   1.133   1.554
10817WAT     H132693  -0.038   1.117   1.485
10817WAT     H232694   0.008   1.087   1.639
10818WAT      O32695   1.622   0.829   3.016
10818WAT     H132696   1.533   0.874   3.015
10818WAT     H232697   1.628   0.767   3.094
10819WAT      O32698   8.846   0.294   4.253
10819WAT     H132699   8.843   0.297   4.153
10819WAT     H232700   8.752   0.296   4.288
10820WAT      O32701   2.045   8.831   3.388
10820WAT     H132702   2.019   8.911   3.441
10820WAT     H232703   2.143   8.815   3.398
10821WAT      O32704   8.741   5.672   8.330
10821WAT     H132705   8.671   5.613   8.290
10821WAT     H232706   8.725   5.682   8.428
10822WAT      O32707   7.631   8.821   8.880
10822WAT     H132708   7.652   8.778   8.968
10822WAT     H232709   7.533   8.833   8.871
10823WAT      O32710   2.724   5.587   6.601
10823WAT     H132711   2.746   5.668   6.655
10823WAT     H232712   2.798   5.520   6.610
10824WAT      O32713   6.243   9.709   6.775
10824WAT     H132714   6.277   9.680   6.685
10824WAT     H232715   6.287   9.655   6.846
10825WAT      O32716   6.829   1.955   6.086
10825WAT     H132717   6.761   1.882   6.079
10825WAT     H232718   6.891   1.950   6.008
10826WAT      O32719   8.763   7.218   5.094
10826WAT     H132720   8.827   7.209   5.017
10826WAT     H232721   8.764   7.312   5.128
10827WAT      O32722   3.564   0.305   5.536
10827WAT     H132723   3.637   0.244   5.504
10827WAT     H232724   3.598   0.361   5.611
10828WAT      O32725   7.576   5.018   3.566
10828WAT     H132726   7.624   5.058   3.488
10828WAT     H232727   7.563   4.920   3.551
10829WAT      O32728   8.512   2.166   4.791
10829WAT     H132729   8.581   2.178   4.719
10829WAT     H232730   8.493   2.254   4.834
10830WAT      O32731   4.956   2.936   2.057
10830WAT     H132732   5.038   2.898   2.100
10830WAT     H232733   4.876   2.912   2.112
10831WAT      O32734   6.722   0.700   7.615
10831WAT     H132735   6.649   0.767   7.602
10831WAT     H232736   6.775   0.723   7.696
10832WAT      O32737   7.013   6.785   6.206
10832WAT     H132738   7.062   6.746   6.284
10832WAT     H232739   7.037   6.736   6.123
10833WAT      O32740   0.957   0.285   8.414
10833WAT     H132741   0.988   0.301   8.321
10833WAT     H232742   0.863   0.319   8.424
10834WAT      O32743   0.518   8.243   5.774
10834WAT     H132744   0.592   8.227   5.840
10834WAT     H232745   0.491   8.157   5.733
10835WAT      O32746   9.494   4.368   7.166
10835WAT     H132747   9.568   4.330   7.221
10835WAT     H232748   9.462   4.299   7.100
10836WAT      O32749   1.821   8.785   9.688
10836WAT     H132750   1.800   8.870   9.737
10836WAT     H232751   1.901   8.799   9.629
10837WAT      O32752   0.661   2.813   2.976
10837WAT     H132753   0.625   2.839   3.065
10837WAT     H232754   0.656   2.892   2.914
10838WAT      O32755   1.087   5.271   5.203
10838WAT     H132756   1.140   5.351   5.230
10838WAT     H232757   1.150   5.194   5.187
10839WAT      O32758   4.353   0.586   5.236
10839WAT     H132759   4.401   0.499   5.226
10839WAT     H232760   4.283   0.578   5.307
10840WAT      O32761   7.908   4.236   7.298
10840WAT     H132762   7.965   4.155   7.283
10840WAT     H232763   7.946   4.291   7.372
10841WAT      O32764   7.531   0.752   8.991
10841WAT     H132765   7.440   0.716   9.010
10841WAT     H232766   7.576   0.694   8.923
10842WAT      O32767   1.201  -0.002   5.812
10842WAT     H132768   1.271  -0.039   5.873
10842WAT     H232769   1.160   0.078   5.855
10843WAT      O32770   4.992   8.164   8.526
10843WAT     H132771   4.969   8.165   8.623
10843WAT     H232772   4.990   8.070   8.492
10844WAT      O32773   0.621   8.084   4.726
10844WAT     H132774   0.641   8.030   4.645
10844WAT     H232775   0.622   8.025   4.807
10845WAT      O32776   4.590   4.814   3.184
10845WAT     H132777   4.649   4.894   3.177
10845WAT     H232778   4.618   4.759   3.263
10846WAT      O32779   8.999   8.829   9.184
10846WAT     H132780   8.919   8.824   9.244
10846WAT     H232781   8.971   8.812   9.089
10847WAT      O32782   9.010   2.306   8.200
10847WAT     H132783   9.106   2.307   8.174
10847WAT     H232784   8.986   2.394   8.241
10848WAT      O32785   1.072   9.495   1.821
10848WAT     H132786   0.993   9.474   1.879
10848WAT     H232787   1.147   9.433   1.842
10849WAT      O32788   0.581   1.723   1.649
10849WAT     H132789   0.657   1.751   1.592
10849WAT     H232790   0.579   1.623   1.655
10850WAT      O32791   9.001   7.945   6.103
10850WAT     H132792   8.968   7.855   6.076
10850WAT     H232793   9.052   7.987   6.028
10851WAT      O32794   3.783   2.496   3.153
10851WAT     H132795   3.762   2.518   3.248
10851WAT     H232796   3.873   2.534   3.130
10852WAT      O32797   0.455   0.876   5.267
10852WAT     H132798   0.411   0.883   5.357
10852WAT     H232799   0.553   0.894   5.276
10853WAT      O32800   7.442   4.195   9.339
10853WAT     H132801   7.521   4.167   9.394
10853WAT     H232802   7.374   4.123   9.339
10854WAT      O32803   6.597   1.942   2.500
10854WAT     H132804   6.581   2.035   2.469
10854WAT     H232805   6.695   1.925   2.505
10855WAT      O32806   1.899   0.556   8.177
10855WAT     H132807   1.974   0.615   8.149
10855WAT     H232808   1.889   0.559   8.276
10856WAT      O32809   1.783   2.949   9.346
10856WAT     H132810   1.845   3.026   9.363
10856WAT     H232811   1.712   2.948   9.417
10857WAT      O32812   0.891   2.253   5.217
10857WAT     H132813   0.808   2.255   5.272
10857WAT     H232814   0.971   2.247   5.277
10858WAT      O32815   6.553   0.779   6.614
10858WAT     H132816   6.537   0.717   6.537
10858WAT     H232817   6.512   0.741   6.696
10859WAT      O32818   1.616   6.561   4.569
10859WAT     H132819   1.652   6.534   4.480
10859WAT     H232820   1.691   6.565   4.635
10860WAT      O32821   3.140   0.628   2.203
10860WAT     H132822   3.104   0.540   2.172
10860WAT     H232823   3.096   0.701   2.152
10861WAT      O32824   5.522   7.808   1.848
10861WAT     H132825   5.553   7.731   1.904
10861WAT     H232826   5.422   7.810   1.846
10862WAT      O32827   1.910   3.865   5.149
10862WAT     H132828   1.908   3.961   5.176
10862WAT     H232829   2.004   3.835   5.137
10863WAT      O32830   0.149   4.855   0.652
10863WAT     H132831   0.141   4.843   0.751
10863WAT     H232832   0.163   4.767   0.608
10864WAT      O32833   7.879   8.666   3.085
10864WAT     H132834   7.943   8.724   3.035
10864WAT     H232835   7.881   8.573   3.047
10865WAT      O32836   8.655   9.701   4.930
10865WAT     H132837   8.704   9.672   5.012
10865WAT     H232838   8.634   9.798   4.937
10866WAT      O32839   1.525   2.142   1.813
10866WAT     H132840   1.441   2.186   1.844
10866WAT     H232841   1.522   2.133   1.713
10867WAT      O32842   2.292   5.811   4.750
10867WAT     H132843   2.268   5.902   4.716
10867WAT     H232844   2.357   5.820   4.826
10868WAT      O32845   8.340   1.458   8.748
10868WAT     H132846   8.262   1.395   8.749
10868WAT     H232847   8.421   1.412   8.713
10869WAT      O32848   6.314   9.417   1.638
10869WAT     H132849   6.381   9.439   1.568
10869WAT     H232850   6.294   9.499   1.692
10870WAT      O32851   4.196   0.472   8.214
10870WAT     H132852   4.286   0.437   8.189
10870WAT     H232853   4.204   0.527   8.298
10871WAT      O32854   8.660   2.580   5.838
10871WAT     H132855   8.708   2.592   5.925
10871WAT     H232856   8.569   2.620   5.844
10872WAT      O32857   8.316   7.927   1.752
10872WAT     H132858   8.255   7.876   1.814
10872WAT     H232859   8.290   7.909   1.657
10873WAT      O32860   0.002   3.940   4.140
10873WAT     H132861   0.045   3.857   4.105
10873WAT     H232862   0.018   4.015   4.076
10874WAT      O32863   2.510   7.628   6.380
10874WAT     H132864   2.599   7.616   6.335
10874WAT     H232865   2.481   7.541   6.420
10875WAT      O32866   1.347   5.231   7.070
10875WAT     H132867   1.410   5.293   7.119
10875WAT     H232868   1.379   5.218   6.977
10876WAT      O32869   1.404   2.984   3.620
10876WAT     H132870   1.497   2.984   3.657
10876WAT     H232871   1.397   3.051   3.545
10877WAT      O32872   4.065   2.908   1.360
10877WAT     H132873   3.978   2.862   1.378
10877WAT     H232874   4.135   2.874   1.423
10878WAT      O32875   2.758   6.847   0.981
10878WAT     H132876   2.686   6.848   1.051
10878WAT     H232877   2.770   6.754   0.948
10879WAT      O32878   9.513   0.294   3.996
10879WAT     H132879   9.609   0.290   4.023
10879WAT     H232880   9.482   0.203   3.968
10880WAT      O32881   8.638   4.101   6.516
10880WAT     H132882   8.605   4.028   6.575
10880WAT     H232883   8.737   4.112   6.528
10881WAT      O32884   5.199   4.640   6.330
10881WAT     H132885   5.272   4.619   6.395
10881WAT     H232886   5.110   4.628   6.375
10882WAT      O32887   0.105   7.859   7.648
10882WAT     H132888   0.050   7.788   7.604
10882WAT     H232889   0.191   7.870   7.598
10883WAT      O32890   2.088   6.316   0.875
10883WAT     H132891   2.125   6.248   0.812
10883WAT     H232892   2.163   6.374   0.909
10884WAT      O32893   4.782   8.434   3.925
10884WAT     H132894   4.801   8.525   3.961
10884WAT     H232895   4.867   8.390   3.898
10885WAT      O32896   3.903   2.808   3.347
10885WAT     H132897   3.915   2.828   3.444
10885WAT     H232898   3.832   2.738   3.335
10886WAT      O32899   9.698   0.047   4.295
10886WAT     H132900   9.599   0.054   4.308
10886WAT     H232901   9.744   0.111   4.356
10887WAT      O32902   2.026   2.553   7.378
10887WAT     H132903   2.123   2.577   7.384
10887WAT     H232904   1.982   2.607   7.307
10888WAT      O32905   1.587   1.480   1.211
10888WAT     H132906   1.523   1.526   1.150
10888WAT     H232907   1.601   1.386   1.182
10889WAT      O32908   3.607   6.707   2.307
10889WAT     H132909   3.511   6.693   2.333
10889WAT     H232910   3.647   6.619   2.281
10890WAT      O32911   4.792   3.659   7.006
10890WAT     H132912   4.852   3.736   6.984
10890WAT     H232913   4.697   3.686   6.988
10891WAT      O32914   7.498   8.289   6.749
10891WAT     H132915   7.505   8.215   6.683
10891WAT     H232916   7.576   8.351   6.738
10892WAT      O32917   8.289   3.240   3.258
10892WAT     H132918   8.219   3.216   3.191
10892WAT     H232919   8.245   3.277   3.340
10893WAT      O32920   1.237   3.317   3.811
10893WAT     H132921   1.294   3.252   3.861
10893WAT     H232922   1.182   3.369   3.876
10894WAT      O32923   3.798   5.592   5.529
10894WAT     H132924   3.799   5.637   5.439
10894WAT     H232925   3.822   5.658   5.600
10895WAT      O32926   5.456   1.253   8.897
10895WAT     H132927   5.464   1.214   8.805
10895WAT     H232928   5.546   1.256   8.940
10896WAT      O32929   5.727   4.253   1.953
10896WAT     H132930   5.698   4.177   1.895
10896WAT     H232931   5.781   4.317   1.899
10897WAT      O32932   3.841   8.269   9.045
10897WAT     H132933   3.772   8.225   8.987
10897WAT     H232934   3.812   8.266   9.140
10898WAT      O32935   8.025   8.286   9.819
10898WAT     H132936   7.998   8.335   9.902
10898WAT     H232937   8.077   8.347   9.760
10899WAT      O32938   7.078   6.548   1.887
10899WAT     H132939   7.072   6.563   1.986
10899WAT     H232940   6.999   6.591   1.843
10900WAT      O32941   5.048   0.657   0.304
10900WAT     H132942   4.973   0.592   0.308
10900WAT     H232943   5.134   0.611   0.328
10901WAT      O32944   6.590   1.103   5.434
10901WAT     H132945   6.556   1.010   5.449
10901WAT     H232946   6.647   1.130   5.511
10902WAT      O32947   3.357   6.325   1.151
10902WAT     H132948   3.453   6.299   1.143
10902WAT     H232949   3.305   6.249   1.189
10903WAT      O32950   0.542   1.445   9.099
10903WAT     H132951   0.618   1.493   9.143
10903WAT     H232952   0.455   1.478   9.137
10904WAT      O32953   8.620   1.998   6.077
10904WAT     H132954   8.630   2.098   6.081
10904WAT     H232955   8.669   1.964   5.996
10905WAT      O32956   4.578   5.696   6.496
10905WAT     H132957   4.520   5.717   6.418
10905WAT     H232958   4.579   5.774   6.559
10906WAT      O32959   9.005   2.966   2.660
10906WAT     H132960   9.062   3.042   2.627
10906WAT     H232961   9.047   2.925   2.741
10907WAT      O32962   9.628   1.564   7.071
10907WAT     H132963   9.642   1.543   6.974
10907WAT     H232964   9.531   1.573   7.090
10908WAT      O32965   7.660   3.336   7.137
10908WAT     H132966   7.627   3.241   7.138
10908WAT     H232967   7.609   3.390   7.204
10909WAT      O32968   5.256   1.430   5.179
10909WAT     H132969   5.198   1.420   5.098
10909WAT     H232970   5.350   1.450   5.151
10910WAT      O32971   6.363   7.760   3.708
10910WAT     H132972   6.369   7.682   3.771
10910WAT     H232973   6.289   7.745   3.644
10911WAT      O32974   3.385   4.869   2.505
10911WAT     H132975   3.316   4.803   2.475
10911WAT     H232976   3.476   4.830   2.493
10912WAT      O32977   5.647   0.965   6.991
10912WAT     H132978   5.726   0.907   7.005
10912WAT     H232979   5.570   0.933   7.046
10913WAT      O32980   0.076   8.190   5.143
10913WAT     H132981   0.127   8.114   5.101
10913WAT     H232982   0.120   8.276   5.118
10914WAT      O32983   2.845   3.071   1.350
10914WAT     H132984   2.819   3.132   1.275
10914WAT     H232985   2.846   3.122   1.436
10915WAT      O32986   0.492   3.110   4.023
10915WAT     H132987   0.545   3.069   4.097
10915WAT     H232988   0.546   3.112   3.940
10916WAT      O32989   6.540   9.827   6.588
10916WAT     H132990   6.624   9.791   6.547
10916WAT     H232991   6.461   9.779   6.551
10917WAT      O32992   5.300   3.482   5.470
10917WAT     H132993   5.373   3.450   5.531
10917WAT     H232994   5.212   3.450   5.505
10918WAT      O32995   7.212   9.165   4.235
10918WAT     H132996   7.277   9.230   4.273
10918WAT     H232997   7.141   9.145   4.302
10919WAT      O32998   1.560   1.957   9.819
10919WAT     H132999   1.474   1.921   9.783
10919WAT     H233000   1.542   2.008   9.903
10920WAT      O33001   1.007   5.670   3.087
10920WAT     H133002   0.933   5.606   3.070
10920WAT     H233003   1.029   5.720   3.003
10921WAT      O33004   8.284   0.660   8.873
10921WAT     H133005   8.299   0.627   8.780
10921WAT     H233006   8.206   0.612   8.913
10922WAT      O33007   2.574   4.719   1.281
10922WAT     H133008   2.581   4.776   1.200
10922WAT     H233009   2.665   4.684   1.305
10923WAT      O33010   1.627   1.415   7.498
10923WAT     H133011   1.622   1.514   7.485
10923WAT     H233012   1.535   1.376   7.491
10924WAT      O33013   4.679   4.531   7.346
10924WAT     H133014   4.579   4.519   7.342
10924WAT     H233015   4.714   4.550   7.255
10925WAT      O33016   9.424   0.317   2.117
10925WAT     H133017   9.327   0.303   2.139
10925WAT     H233018   9.462   0.232   2.081
10926WAT      O33019   7.576   4.832   0.422
10926WAT     H133020   7.657   4.884   0.449
10926WAT     H233021   7.594   4.784   0.336
10927WAT      O33022   2.215   3.642   7.543
10927WAT     H133023   2.143   3.585   7.584
10927WAT     H233024   2.255   3.701   7.613
10928WAT      O33025   4.649   2.433   9.252
10928WAT     H133026   4.643   2.493   9.172
10928WAT     H233027   4.559   2.391   9.268
10929WAT      O33028   3.991   0.971   5.388
10929WAT     H133029   3.977   1.027   5.470
10929WAT     H233030   3.903   0.957   5.342
10930WAT      O33031   1.905   2.172   9.079
10930WAT     H133032   1.980   2.182   9.144
10930WAT     H233033   1.821   2.206   9.119
10931WAT      O33034   7.578   3.001   3.434
10931WAT     H133035   7.633   2.930   3.478
10931WAT     H233036   7.555   2.973   3.341
10932WAT      O33037   7.526   7.838   2.815
10932WAT     H133038   7.614   7.879   2.790
10932WAT     H233039   7.462   7.849   2.740
10933WAT      O33040   0.270   8.947   0.206
10933WAT     H133041   0.224   8.962   0.119
10933WAT     H233042   0.335   8.872   0.196
10934WAT      O33043   2.722   7.642   6.196
10934WAT     H133044   2.652   7.666   6.129
10934WAT     H233045   2.807   7.619   6.149
10935WAT      O33046   4.190   9.353   8.527
10935WAT     H133047   4.112   9.363   8.588
10935WAT     H233048   4.274   9.348   8.581
10936WAT      O33049   3.548   7.049   8.153
10936WAT     H133050   3.519   7.124   8.094
10936WAT     H233051   3.592   7.086   8.235
10937WAT      O33052   9.855   0.381   8.764
10937WAT     H133053   9.800   0.312   8.716
10937WAT     H233054   9.798   0.426   8.833
10938WAT      O33055   1.078   0.434   9.124
10938WAT     H133056   1.177   0.439   9.124
10938WAT     H233057   1.045   0.433   9.029
10939WAT      O33058   7.680   8.241   9.438
10939WAT     H133059   7.647   8.332   9.412
10939WAT     H233060   7.710   8.243   9.534
10940WAT      O33061   0.009   2.175   0.886
10940WAT     H133062   0.008   2.211   0.980
10940WAT     H233063   0.014   2.252   0.822
10941WAT      O33064   1.793   5.687   9.584
10941WAT     H133065   1.861   5.759   9.571
10941WAT     H233066   1.839   5.601   9.604
10942WAT      O33067   1.608   6.748   3.583
10942WAT     H133068   1.523   6.797   3.568
10942WAT     H233069   1.600   6.655   3.546
10943WAT      O33070   7.137   6.432   8.126
10943WAT     H133071   7.077   6.446   8.204
10943WAT     H233072   7.227   6.402   8.159
10944WAT      O33073   2.626   7.030   3.743
10944WAT     H133074   2.699   7.087   3.783
10944WAT     H233075   2.537   7.065   3.771
10945WAT      O33076   3.045   1.864   4.474
10945WAT     H133077   3.091   1.916   4.546
10945WAT     H233078   2.951   1.845   4.502
10946WAT      O33079   0.700   5.430   6.719
10946WAT     H133080   0.705   5.343   6.769
10946WAT     H233081   0.604   5.455   6.707
10947WAT      O33082   3.010   8.662   0.772
10947WAT     H133083   3.017   8.760   0.791
10947WAT     H233084   2.934   8.646   0.709
10948WAT      O33085   8.094   8.245   7.922
10948WAT     H133086   8.104   8.241   8.022
10948WAT     H233087   8.029   8.317   7.898
10949WAT      O33088   8.859   4.166   8.928
10949WAT     H133089   8.862   4.216   8.841
10949WAT     H233090   8.786   4.098   8.925
10950WAT      O33091   1.704   3.699   7.669
10950WAT     H133092   1.680   3.753   7.589
10950WAT     H233093   1.797   3.721   7.698
10951WAT      O33094   2.682   3.421   3.952
10951WAT     H133095   2.739   3.474   3.890
10951WAT     H233096   2.642   3.344   3.902
10952WAT      O33097   3.418   1.466   1.989
10952WAT     H133098   3.405   1.562   2.014
10952WAT     H233099   3.509   1.436   2.016
10953WAT      O33100   1.987   6.984   8.010
10953WAT     H133101   2.085   6.965   8.014
10953WAT     H233102   1.942   6.917   7.950
10954WAT      O33103   8.189   8.383   3.972
10954WAT     H133104   8.201   8.423   3.882
10954WAT     H233105   8.163   8.287   3.963
10955WAT      O33106   0.849   5.058   5.670
10955WAT     H133107   0.858   5.134   5.606
10955WAT     H233108   0.879   4.974   5.627
10956WAT      O33109   5.314   3.257   2.644
10956WAT     H133110   5.322   3.221   2.552
10956WAT     H233111   5.405   3.278   2.680
10957WAT      O33112   9.450   5.644   0.227
10957WAT     H133113   9.423   5.702   0.150
10957WAT     H233114   9.389   5.564   0.232
10958WAT      O33115   8.472   8.864   7.986
10958WAT     H133116   8.399   8.797   7.971
10958WAT     H233117   8.542   8.852   7.916
10959WAT      O33118   7.279   5.932   4.500
10959WAT     H133119   7.361   5.986   4.479
10959WAT     H233120   7.216   5.988   4.554
10960WAT      O33121   0.167   7.163   9.775
10960WAT     H133122   0.168   7.079   9.830
10960WAT     H233123   0.084   7.165   9.720
10961WAT      O33124   8.134   2.197   3.094
10961WAT     H133125   8.228   2.164   3.088
10961WAT     H233126   8.092   2.164   3.178
10962WAT      O33127   4.883   0.145   2.874
10962WAT     H133128   4.889   0.061   2.822
10962WAT     H233129   4.974   0.187   2.880
10963WAT      O33130   4.095   9.724   9.600
10963WAT     H133131   4.087   9.760   9.693
10963WAT     H233132   4.190   9.701   9.580
10964WAT      O33133   9.086   4.584   7.752
10964WAT     H133134   9.160   4.522   7.727
10964WAT     H233135   9.107   4.628   7.840
10965WAT      O33136   0.692   3.395   1.060
10965WAT     H133137   0.726   3.477   1.106
10965WAT     H233138   0.632   3.345   1.122
10966WAT      O33139   4.488   3.127   3.025
10966WAT     H133140   4.572   3.072   3.019
10966WAT     H233141   4.474   3.155   3.120
10967WAT      O33142   9.579   3.177   6.589
10967WAT     H133143   9.656   3.139   6.640
10967WAT     H233144   9.495   3.131   6.616
10968WAT      O33145   7.770   9.372   2.921
10968WAT     H133146   7.841   9.430   2.962
10968WAT     H233147   7.735   9.416   2.838
10969WAT      O33148   6.225   4.322   0.425
10969WAT     H133149   6.199   4.378   0.346
10969WAT     H233150   6.159   4.334   0.499
10970WAT      O33151   8.063   2.447   8.603
10970WAT     H133152   8.098   2.355   8.591
10970WAT     H233153   7.964   2.447   8.589
10971WAT      O33154   8.293   6.331   5.207
10971WAT     H133155   8.347   6.385   5.143
10971WAT     H233156   8.240   6.392   5.266
10972WAT      O33157   7.965   7.342   7.431
10972WAT     H133158   7.972   7.287   7.515
10972WAT     H233159   7.915   7.426   7.450
10973WAT      O33160   1.161   2.469   3.855
10973WAT     H133161   1.084   2.406   3.846
10973WAT     H233162   1.200   2.461   3.947
10974WAT      O33163   7.278   6.110   2.274
10974WAT     H133164   7.375   6.129   2.255
10974WAT     H233165   7.246   6.172   2.346
10975WAT      O33166   8.119   8.634   4.849
10975WAT     H133167   8.151   8.667   4.938
10975WAT     H233168   8.175   8.557   4.819
10976WAT      O33169   6.078   5.894   1.236
10976WAT     H133170   5.981   5.906   1.258
10976WAT     H233171   6.087   5.829   1.161
10977WAT      O33172   2.087   9.089   1.889
10977WAT     H133173   2.002   9.086   1.943
10977WAT     H233174   2.088   9.173   1.835
10978WAT      O33175   9.628   3.837   8.149
10978WAT     H133176   9.625   3.864   8.246
10978WAT     H233177   9.708   3.779   8.133
10979WAT      O33178   4.900   2.425   8.489
10979WAT     H133179   4.977   2.405   8.549
10979WAT     H233180   4.858   2.339   8.459
10980WAT      O33181   2.675   4.963   3.747
10980WAT     H133182   2.715   5.034   3.805
10980WAT     H233183   2.629   5.005   3.669
10981WAT      O33184   0.364   7.343   9.824
10981WAT     H133185   0.324   7.425   9.864
10981WAT     H233186   0.292   7.277   9.805
10982WAT      O33187   4.207   4.174   5.914
10982WAT     H133188   4.243   4.160   5.822
10982WAT     H233189   4.171   4.088   5.950
10983WAT      O33190   2.090   3.578   9.137
10983WAT     H133191   1.992   3.563   9.148
10983WAT     H233192   2.105   3.672   9.104
10984WAT      O33193   1.847   4.201   0.649
10984WAT     H133194   1.879   4.156   0.732
10984WAT     H233195   1.864   4.142   0.570
10985WAT      O33196   5.636   2.877   9.830
10985WAT     H133197   5.614   2.974   9.820
10985WAT     H233198   5.735   2.866   9.827
10986WAT      O33199   6.011   3.505   1.652
10986WAT     H133200   6.066   3.542   1.726
10986WAT     H233201   5.936   3.450   1.689
10987WAT      O33202   9.457   3.186   2.925
10987WAT     H133203   9.495   3.257   2.865
10987WAT     H233204   9.491   3.097   2.896
10988WAT      O33205   2.229   4.086   6.811
10988WAT     H133206   2.187   4.000   6.783
10988WAT     H233207   2.232   4.092   6.911
10989WAT      O33208   1.627   6.732   1.231
10989WAT     H133209   1.628   6.782   1.145
10989WAT     H233210   1.532   6.722   1.262
10990WAT      O33211   9.073   5.716   6.439
10990WAT     H133212   9.144   5.711   6.509
10990WAT     H233213   9.031   5.807   6.440
10991WAT      O33214   9.775   8.686   8.890
10991WAT     H133215   9.853   8.639   8.851
10991WAT     H233216   9.692   8.661   8.840
10992WAT      O33217   9.626   5.958   3.028
10992WAT     H133218   9.721   5.985   3.042
10992WAT     H233219   9.579   5.951   3.116
10993WAT      O33220   0.995   0.414   8.864
10993WAT     H133221   0.964   0.336   8.811
10993WAT     H233222   1.082   0.448   8.827
10994WAT      O33223   8.505   5.437   0.647
10994WAT     H133224   8.409   5.410   0.639
10994WAT     H233225   8.533   5.431   0.743
10995WAT      O33226   3.271   4.393   8.885
10995WAT     H133227   3.262   4.412   8.983
10995WAT     H233228   3.321   4.468   8.841
10996WAT      O33229   1.891   2.593   4.173
10996WAT     H133230   1.896   2.514   4.111
10996WAT     H233231   1.938   2.671   4.131
10997WAT      O33232   3.757   0.668   8.401
10997WAT     H133233   3.786   0.578   8.369
10997WAT     H233234   3.811   0.738   8.354
10998WAT      O33235   4.072   5.571   8.259
10998WAT     H133236   4.028   5.493   8.305
10998WAT     H233237   4.008   5.610   8.193
10999WAT      O33238   5.259   4.177   5.657
10999WAT     H133239   5.187   4.127   5.610
10999WAT     H233240   5.274   4.136   5.747
11000WAT      O33241   5.899   0.561   2.752
11000WAT     H133242   5.925   0.588   2.659
11000WAT     H233243   5.976   0.516   2.797
11001WAT      O33244   6.102   8.576   2.045
11001WAT     H133245   6.027   8.640   2.060
11001WAT     H233246   6.144   8.594   1.956
11002WAT      O33247   6.388   4.325   8.560
11002WAT     H133248   6.303   4.293   8.519
11002WAT     H233249   6.375   4.340   8.658
11003WAT      O33250   4.407   1.229   3.973
11003WAT     H133251   4.374   1.158   3.911
11003WAT     H233252   4.487   1.195   4.023
11004WAT      O33253   2.668   7.878   5.819
11004WAT     H133254   2.611   7.844   5.895
11004WAT     H233255   2.703   7.969   5.841
11005WAT      O33256   8.110   4.220   0.856
11005WAT     H133257   8.108   4.313   0.893
11005WAT     H233258   8.167   4.219   0.774
11006WAT      O33259   1.526   6.350   8.278
11006WAT     H133260   1.617   6.316   8.301
11006WAT     H233261   1.524   6.378   8.182
11007WAT      O33262   8.865   0.754   5.149
11007WAT     H133263   8.900   0.840   5.112
11007WAT     H233264   8.883   0.680   5.085
11008WAT      O33265   1.669   3.017   3.251
11008WAT     H133266   1.704   3.091   3.308
11008WAT     H233267   1.682   2.930   3.298
11009WAT      O33268   4.743   7.285   4.368
11009WAT     H133269   4.718   7.319   4.278
11009WAT     H233270   4.838   7.255   4.368
11010WAT      O33271   3.273   9.243   8.575
11010WAT     H133272   3.277   9.167   8.510
11010WAT     H233273   3.194   9.301   8.553
11011WAT      O33274   4.472   9.544   9.806
11011WAT     H133275   4.397   9.530   9.871
11011WAT     H233276   4.540   9.605   9.846
11012WAT      O33277   0.907   2.171   1.578
11012WAT     H133278   0.974   2.116   1.629
11012WAT     H233279   0.937   2.266   1.575
11013WAT      O33280   0.741   7.227   3.323
11013WAT     H133281   0.722   7.316   3.364
11013WAT     H233282   0.803   7.237   3.246
11014WAT      O33283   2.452   8.039   1.959
11014WAT     H133284   2.492   8.127   1.987
11014WAT     H233285   2.376   8.056   1.896
11015WAT      O33286   5.457   8.812   3.829
11015WAT     H133287   5.482   8.809   3.926
11015WAT     H233288   5.363   8.844   3.820
11016WAT      O33289   6.062   9.592   7.306
11016WAT     H133290   6.036   9.516   7.247
11016WAT     H233291   6.131   9.562   7.371
11017WAT      O33292   3.114   0.934   2.820
11017WAT     H133293   3.079   0.914   2.728
11017WAT     H233294   3.148   0.849   2.861
11018WAT      O33295   6.860   1.229   5.314
11018WAT     H133296   6.875   1.141   5.358
11018WAT     H233297   6.778   1.272   5.353
11019WAT      O33298   1.672   8.029   0.075
11019WAT     H133299   1.705   8.122   0.092
11019WAT     H233300   1.708   7.967   0.145
11020WAT      O33301   5.469   3.807   5.907
11020WAT     H133302   5.485   3.767   5.998
11020WAT     H233303   5.488   3.905   5.910
11021WAT      O33304   0.004   1.870   5.451
11021WAT     H133305   0.087   1.912   5.486
11021WAT     H233306  -0.020   1.791   5.508
11022WAT      O33307   8.226   7.528   7.382
11022WAT     H133308   8.280   7.444   7.371
11022WAT     H233309   8.129   7.505   7.379
11023WAT      O33310   8.164   5.745   0.672
11023WAT     H133311   8.092   5.775   0.610
11023WAT     H233312   8.142   5.654   0.707
11024WAT      O33313   6.423   7.952   3.280
11024WAT     H133314   6.455   7.956   3.374
11024WAT     H233315   6.350   7.884   3.272
11025WAT      O33316   6.028   1.504   9.670
11025WAT     H133317   6.118   1.543   9.652
11025WAT     H233318   6.030   1.406   9.652
11026WAT      O33319   4.309   6.593   4.785
11026WAT     H133320   4.372   6.528   4.827
11026WAT     H233321   4.300   6.673   4.845
11027WAT      O33322   2.252   2.219   0.017
11027WAT     H133323   2.162   2.175   0.012
11027WAT     H233324   2.240   2.318   0.017
11028WAT      O33325   4.832   5.401   2.521
11028WAT     H133326   4.864   5.435   2.609
11028WAT     H233327   4.859   5.305   2.510
11029WAT      O33328   6.328   5.102   6.814
11029WAT     H133329   6.239   5.146   6.824
11029WAT     H233330   6.326   5.039   6.737
11030WAT      O33331   5.587   1.979   9.425
11030WAT     H133332   5.517   2.049   9.438
11030WAT     H233333   5.571   1.904   9.489
11031WAT      O33334   4.246   8.915   5.579
11031WAT     H133335   4.152   8.947   5.563
11031WAT     H233336   4.273   8.854   5.506
11032WAT      O33337   1.769   9.019   9.392
11032WAT     H133338   1.729   9.068   9.470
11032WAT     H233339   1.710   8.943   9.367
11033WAT      O33340   4.804   0.600   3.741
11033WAT     H133341   4.773   0.542   3.816
11033WAT     H233342   4.863   0.672   3.776
11034WAT      O33343   5.356   5.617   0.208
11034WAT     H133344   5.443   5.622   0.257
11034WAT     H233345   5.286   5.579   0.268
11035WAT      O33346   8.933   3.341   8.768
11035WAT     H133347   8.933   3.435   8.803
11035WAT     H233348   9.013   3.293   8.802
11036WAT      O33349   1.058   0.061   0.007
11036WAT     H133350   1.110   0.133  -0.038
11036WAT     H233351   1.119  -0.014   0.032
11037WAT      O33352   4.571   4.010   2.237
11037WAT     H133353   4.655   4.064   2.230
11037WAT     H233354   4.587   3.919   2.199
11038WAT      O33355   0.765   2.590   3.725
11038WAT     H133356   0.760   2.685   3.692
11038WAT     H233357   0.842   2.544   3.680
11039WAT      O33358   7.758   3.347   7.536
11039WAT     H133359   7.691   3.365   7.464
11039WAT     H233360   7.806   3.432   7.559
11040WAT      O33361   1.175   6.543   2.861
11040WAT     H133362   1.262   6.557   2.909
11040WAT     H233363   1.171   6.450   2.826
11041WAT      O33364   3.920   3.585   3.736
11041WAT     H133365   4.002   3.587   3.678
11041WAT     H233366   3.929   3.653   3.808
11042WAT      O33367   7.695   8.697   2.463
11042WAT     H133368   7.745   8.689   2.550
11042WAT     H233369   7.703   8.612   2.412
11043WAT      O33370   9.740   1.263   9.410
11043WAT     H133371   9.783   1.336   9.357
11043WAT     H233372   9.756   1.175   9.366
11044WAT      O33373   0.551   1.802   8.379
11044WAT     H133374   0.580   1.759   8.293
11044WAT     H233375   0.487   1.742   8.426
11045WAT      O33376   7.413   0.520   4.357
11045WAT     H133377   7.414   0.595   4.291
11045WAT     H233378   7.396   0.434   4.309
11046WAT      O33379   2.684   3.771   8.155
11046WAT     H133380   2.760   3.835   8.166
11046WAT     H233381   2.705   3.706   8.083
11047WAT      O33382   6.768   5.641   3.973
11047WAT     H133383   6.673   5.648   4.003
11047WAT     H233384   6.782   5.698   3.891
11048WAT      O33385   7.683   7.370   6.369
11048WAT     H133386   7.762   7.430   6.359
11048WAT     H233387   7.680   7.305   6.293
11049WAT      O33388   8.388   8.003   0.372
11049WAT     H133389   8.456   7.989   0.300
11049WAT     H233390   8.297   7.983   0.336
11050WAT      O33391   1.126   1.161   9.431
11050WAT     H133392   1.048   1.143   9.371
11050WAT     H233393   1.113   1.115   9.518
11051WAT      O33394   3.849   4.860   7.417
11051WAT     H133395   3.762   4.909   7.415
11051WAT     H233396   3.841   4.776   7.362
11052WAT      O33397   9.358   0.034   5.193
11052WAT     H133398   9.427   0.021   5.123
11052WAT     H233399   9.397   0.083   5.271
11053WAT      O33400   7.941   3.039   4.647
11053WAT     H133401   8.027   2.989   4.658
11053WAT     H233402   7.870   2.995   4.702
11054WAT      O33403   6.562   8.907   5.084
11054WAT     H133404   6.478   8.941   5.041
11054WAT     H233405   6.583   8.816   5.049
11055WAT      O33406   1.394   2.766   5.644
11055WAT     H133407   1.472   2.718   5.605
11055WAT     H233408   1.337   2.803   5.570
11056WAT      O33409   1.715   6.061   6.181
11056WAT     H133410   1.752   6.152   6.164
11056WAT     H233411   1.671   6.026   6.099
11057WAT      O33412   9.322   9.345   1.861
11057WAT     H133413   9.287   9.437   1.849
11057WAT     H233414   9.257   9.291   1.914
11058WAT      O33415   6.943   7.707   2.202
11058WAT     H133416   6.871   7.719   2.270
11058WAT     H233417   7.002   7.631   2.229
11059WAT      O33418   2.726   1.727   2.506
11059WAT     H133419   2.822   1.734   2.480
11059WAT     H233420   2.717   1.661   2.581
11060WAT      O33421   7.868   8.159   8.549
11060WAT     H133422   7.917   8.135   8.633
11060WAT     H233423   7.769   8.159   8.567
11061WAT      O33424   8.388   1.057   5.771
11061WAT     H133425   8.334   0.989   5.821
11061WAT     H233426   8.429   1.122   5.836
11062WAT      O33427   3.608   8.269   6.081
11062WAT     H133428   3.657   8.224   6.156
11062WAT     H233429   3.557   8.200   6.029
11063WAT      O33430   3.846   8.005   4.330
11063WAT     H133431   3.819   8.100   4.315
11063WAT     H233432   3.829   7.981   4.426
11064WAT      O33433   2.185   9.792   1.655
11064WAT     H133434   2.138   9.806   1.742
11064WAT     H233435   2.159   9.864   1.591
11065WAT      O33436   3.050   1.324   7.776
11065WAT     H133437   3.037   1.393   7.847
11065WAT     H233438   3.121   1.259   7.806
11066WAT      O33439   2.353   5.194   3.114
11066WAT     H133440   2.290   5.202   3.190
11066WAT     H233441   2.305   5.210   3.028
11067WAT      O33442   5.784   9.453   2.003
11067WAT     H133443   5.830   9.399   2.073
11067WAT     H233444   5.816   9.424   1.913
11068WAT      O33445   7.966   3.563   7.568
11068WAT     H133446   8.014   3.504   7.633
11068WAT     H233447   7.962   3.656   7.603
11069WAT      O33448   0.695   2.522   0.083
11069WAT     H133449   0.608   2.498   0.040
11069WAT     H233450   0.694   2.620   0.106
11070WAT      O33451   2.543   9.008   7.973
11070WAT     H133452   2.549   9.092   8.027
11070WAT     H233453   2.634   8.974   7.952
11071WAT      O33454   7.220   1.086   8.826
11071WAT     H133455   7.242   0.993   8.798
11071WAT     H233456   7.294   1.122   8.882
11072WAT      O33457   4.908   7.133   4.919
11072WAT     H133458   4.978   7.123   4.990
11072WAT     H233459   4.936   7.084   4.837
11073WAT      O33460   9.308   5.794   9.265
11073WAT     H133461   9.217   5.811   9.228
11073WAT     H233462   9.301   5.736   9.347
11074WAT      O33463   6.365   5.319   7.828
11074WAT     H133464   6.465   5.325   7.826
11074WAT     H233465   6.337   5.227   7.801
11075WAT      O33466   6.554   1.942   0.068
11075WAT     H133467   6.630   1.932   0.132
11075WAT     H233468   6.587   1.927  -0.025
11076WAT      O33469   9.807   2.014   5.740
11076WAT     H133470   9.757   1.943   5.789
11076WAT     H233471   9.765   2.027   5.650
11077WAT      O33472   1.717   4.192   6.965
11077WAT     H133473   1.762   4.269   7.010
11077WAT     H233474   1.653   4.149   7.028
11078WAT      O33475   3.295   4.308   4.641
11078WAT     H133476   3.353   4.240   4.595
11078WAT     H233477   3.261   4.270   4.727
11079WAT      O33478   1.632   0.822   0.772
11079WAT     H133479   1.602   0.907   0.730
11079WAT     H233480   1.671   0.762   0.703
11080WAT      O33481   9.375   0.754   8.961
11080WAT     H133482   9.310   0.810   9.013
11080WAT     H233483   9.325   0.683   8.911
11081WAT      O33484   7.714   7.672   8.517
11081WAT     H133485   7.654   7.752   8.520
11081WAT     H233486   7.667   7.596   8.472
11082WAT      O33487   9.127   2.316   4.730
11082WAT     H133488   9.128   2.378   4.652
11082WAT     H233489   9.076   2.357   4.805
11083WAT      O33490   8.908   2.546   9.552
11083WAT     H133491   8.864   2.491   9.481
11083WAT     H233492   8.846   2.619   9.581
11084WAT      O33493   0.971   1.971   6.042
11084WAT     H133494   0.923   2.037   6.099
11084WAT     H233495   1.070   1.984   6.051
11085WAT      O33496   7.063   0.410   0.256
11085WAT     H133497   7.025   0.404   0.164
11085WAT     H233498   7.053   0.503   0.291
11086WAT      O33499   4.304   9.123   2.464
11086WAT     H133500   4.297   9.158   2.370
11086WAT     H233501   4.389   9.070   2.473
11087WAT      O33502   7.912   9.491   9.696
11087WAT     H133503   7.955   9.408   9.731
11087WAT     H233504   7.911   9.490   9.596
11088WAT      O33505   0.494   3.439   2.406
11088WAT     H133506   0.492   3.524   2.354
11088WAT     H233507   0.490   3.459   2.503
11089WAT      O33508   4.078   7.200   9.308
11089WAT     H133509   4.129   7.269   9.359
11089WAT     H233510   4.022   7.244   9.238
11090WAT      O33511   5.060   0.922   1.133
11090WAT     H133512   5.033   1.016   1.152
11090WAT     H233513   5.020   0.892   1.046
11091WAT      O33514   0.352   8.899   7.820
11091WAT     H133515   0.361   8.879   7.722
11091WAT     H233516   0.426   8.961   7.848
11092WAT      O33517   0.155   7.375   7.519
11092WAT     H133518   0.237   7.432   7.527
11092WAT     H233519   0.148   7.340   7.425
11093WAT      O33520   1.019   8.125   3.147
11093WAT     H133521   0.928   8.166   3.157
11093WAT     H233522   1.088   8.198   3.141
11094WAT      O33523   0.793   1.465   1.301
11094WAT     H133524   0.734   1.410   1.360
11094WAT     H233525   0.756   1.558   1.294
11095WAT      O33526   8.022   2.631   7.950
11095WAT     H133527   8.031   2.546   8.002
11095WAT     H233528   8.107   2.647   7.900
11096WAT      O33529   7.353   5.465   7.032
11096WAT     H133530   7.372   5.541   7.094
11096WAT     H233531   7.434   5.407   7.025
11097WAT      O33532   9.605   8.543   8.059
11097WAT     H133533   9.686   8.557   8.117
11097WAT     H233534   9.572   8.631   8.025
11098WAT      O33535   8.096   2.190   8.602
11098WAT     H133536   8.064   2.141   8.521
11098WAT     H233537   8.191   2.166   8.620
11099WAT      O33538   5.097   2.876   3.466
11099WAT     H133539   5.108   2.914   3.374
11099WAT     H233540   5.009   2.906   3.504
11100WAT      O33541   5.426   9.078   8.991
11100WAT     H133542   5.474   9.113   9.071
11100WAT     H233543   5.347   9.024   9.021
11101WAT      O33544   7.921   6.804   8.574
11101WAT     H133545   7.888   6.775   8.664
11101WAT     H233546   7.855   6.866   8.532
11102WAT      O33547   8.385   1.629   9.759
11102WAT     H133548   8.456   1.558   9.762
11102WAT     H233549   8.298   1.587   9.733
11103WAT      O33550   4.002   4.640   6.132
11103WAT     H133551   3.996   4.545   6.102
11103WAT     H233552   4.098   4.666   6.140
11104WAT      O33553   7.224   6.524   7.360
11104WAT     H133554   7.237   6.615   7.399
11104WAT     H233555   7.241   6.455   7.430
11105WAT      O33556   2.470   9.454   8.521
11105WAT     H133557   2.568   9.461   8.504
11105WAT     H233558   2.443   9.523   8.588
11106WAT      O33559   4.193   6.855   1.043
11106WAT     H133560   4.183   6.756   1.029
11106WAT     H233561   4.172   6.904   0.959
11107WAT      O33562   0.917   7.608   0.984
11107WAT     H133563   0.857   7.664   0.927
11107WAT     H233564   0.862   7.559   1.052
11108WAT      O33565   0.016   7.473   4.674
11108WAT     H133566  -0.014   7.415   4.599
11108WAT     H233567  -0.062   7.525   4.710
11109WAT      O33568   3.084   2.002   5.431
11109WAT     H133569   3.150   1.928   5.421
11109WAT     H233570   3.132   2.086   5.457
11110WAT      O33571   3.330   2.508   9.305
11110WAT     H133572   3.267   2.566   9.253
11110WAT     H233573   3.367   2.559   9.383
11111WAT      O33574   7.141   2.885   8.851
11111WAT     H133575   7.235   2.898   8.820
11111WAT     H233576   7.079   2.936   8.792
11112WAT      O33577   4.621   3.994   0.406
11112WAT     H133578   4.543   3.960   0.353
11112WAT     H233579   4.702   3.940   0.385
11113WAT      O33580   7.745   9.476   1.260
11113WAT     H133581   7.719   9.572   1.276
11113WAT     H233582   7.791   9.469   1.172
11114WAT      O33583   8.914   2.261   9.176
11114WAT     H133584   8.826   2.222   9.203
11114WAT     H233585   8.956   2.205   9.105
11115WAT      O33586   7.688   1.821   1.808
11115WAT     H133587   7.589   1.807   1.817
11115WAT     H233588   7.719   1.886   1.877
11116WAT      O33589   2.505   2.818   0.941
11116WAT     H133590   2.501   2.776   1.032
11116WAT     H233591   2.600   2.820   0.909
11117WAT      O33592   7.707   7.014   7.659
11117WAT     H133593   7.619   6.967   7.662
11117WAT     H233594   7.736   7.024   7.564
11118WAT      O33595   9.346   1.846   8.844
11118WAT     H133596   9.325   1.807   8.755
11118WAT     H233597   9.338   1.945   8.841
11119WAT      O33598   2.390   1.027   0.458
11119WAT     H133599   2.478   0.990   0.429
11119WAT     H233600   2.386   1.030   0.558
11120WAT      O33601   7.974   2.146   2.256
11120WAT     H133602   7.940   2.160   2.348
11120WAT     H233603   8.067   2.107   2.260
11121WAT      O33604   6.239   0.240   4.700
11121WAT     H133605   6.268   0.286   4.784
11121WAT     H233606   6.141   0.256   4.687
11122WAT      O33607   9.062   0.655   5.734
11122WAT     H133608   9.050   0.690   5.642
11122WAT     H233609   9.101   0.563   5.730
11123WAT      O33610   9.825   1.347   4.878
11123WAT     H133611   9.924   1.365   4.878
11123WAT     H233612   9.780   1.413   4.939
11124WAT      O33613   1.587   2.326   7.282
11124WAT     H133614   1.626   2.389   7.348
11124WAT     H233615   1.509   2.370   7.236
11125WAT      O33616   9.561   4.914   4.489
11125WAT     H133617   9.464   4.933   4.502
11125WAT     H233618   9.574   4.862   4.404
11126WAT      O33619   5.514   9.184   9.621
11126WAT     H133620   5.580   9.110   9.616
11126WAT     H233621   5.534   9.253   9.550
11127WAT      O33622   0.573   8.678   8.499
11127WAT     H133623   0.634   8.611   8.458
11127WAT     H233624   0.530   8.640   8.581
11128WAT      O33625   0.381   4.809   7.662
11128WAT     H133626   0.450   4.764   7.605
11128WAT     H233627   0.426   4.859   7.736
11129WAT      O33628   4.876   8.657   7.554
11129WAT     H133629   4.796   8.597   7.544
11129WAT     H233630   4.949   8.625   7.495
11130WAT      O33631   0.563   7.077   6.170
11130WAT     H133632   0.604   6.992   6.202
11130WAT     H233633   0.617   7.155   6.203
11131WAT      O33634   0.650   6.252   1.141
11131WAT     H133635   0.659   6.336   1.194
11131WAT     H233636   0.741   6.221   1.110
11132WAT      O33637   0.694   3.641   9.770
11132WAT     H133638   0.785   3.682   9.772
11132WAT     H233639   0.658   3.644   9.677
11133WAT      O33640   7.394   6.085   7.132
11133WAT     H133641   7.489   6.088   7.100
11133WAT     H233642   7.389   6.028   7.213
11134WAT      O33643   2.634   3.941   8.878
11134WAT     H133644   2.722   3.969   8.839
11134WAT     H233645   2.577   4.022   8.893
11135WAT      O33646   9.277   1.193   3.391
11135WAT     H133647   9.374   1.172   3.375
11135WAT     H233648   9.235   1.221   3.305
11136WAT      O33649   2.249   4.676   4.634
11136WAT     H133650   2.195   4.615   4.576
11136WAT     H233651   2.344   4.645   4.635
11137WAT      O33652   5.388   2.121   4.091
11137WAT     H133653   5.472   2.162   4.055
11137WAT     H233654   5.371   2.034   4.045
11138WAT      O33655   5.610   6.747   0.775
11138WAT     H133656   5.624   6.830   0.829
11138WAT     H233657   5.585   6.772   0.681
11139WAT      O33658   0.621   7.855   4.280
11139WAT     H133659   0.703   7.866   4.223
11139WAT     H233660   0.564   7.782   4.241
11140WAT      O33661   1.414   8.920   9.720
11140WAT     H133662   1.451   8.835   9.758
11140WAT     H233663   1.422   8.993   9.788
11141WAT      O33664   5.903   8.804   2.555
11141WAT     H133665   5.965   8.792   2.632
11141WAT     H233666   5.878   8.901   2.546
11142WAT      O33667   7.313   4.022   6.046
11142WAT     H133668   7.329   4.075   5.963
11142WAT     H233669   7.243   3.953   6.029
11143WAT      O33670   6.230   9.810   4.159
11143WAT     H133671   6.229   9.906   4.188
11143WAT     H233672   6.271   9.754   4.231
11144WAT      O33673   7.438   8.596   1.225
11144WAT     H133674   7.440   8.621   1.322
11144WAT     H233675   7.384   8.513   1.213
11145WAT      O33676   2.645   2.492   7.942
11145WAT     H133677   2.740   2.463   7.960
11145WAT     H233678   2.632   2.506   7.844
11146WAT      O33679   9.773   4.758   2.091
11146WAT     H133680   9.802   4.716   2.177
11146WAT     H233681   9.853   4.785   2.038
11147WAT      O33682   1.145   1.943   5.762
11147WAT     H133683   1.185   1.951   5.671
11147WAT     H233684   1.142   1.847   5.789
11148WAT      O33685   2.277   4.005   9.505
11148WAT     H133686   2.339   4.067   9.554
11148WAT     H233687   2.196   3.988   9.562
11149WAT      O33688   2.692   3.039   2.199
11149WAT     H133689   2.670   3.057   2.295
11149WAT     H233690   2.704   2.941   2.185
11150WAT      O33691   2.207   6.375   6.760
11150WAT     H133692   2.286   6.314   6.763
11150WAT     H233693   2.216   6.445   6.831
11151WAT      O33694   5.183   2.362   9.240
11151WAT     H133695   5.117   2.315   9.181
11151WAT     H233696   5.139   2.443   9.280
11152WAT      O33697   6.498   2.868   7.048
11152WAT     H133698   6.413   2.847   7.095
11152WAT     H233699   6.563   2.793   7.060
11153WAT      O33700   4.370   3.575   2.206
11153WAT     H133701   4.452   3.524   2.232
11153WAT     H233702   4.362   3.657   2.262
11154WAT      O33703   7.066   5.880   8.274
11154WAT     H133704   7.001   5.853   8.345
11154WAT     H233705   7.017   5.903   8.190
11155WAT      O33706   6.672   7.911   7.736
11155WAT     H133707   6.616   7.851   7.793
11155WAT     H233708   6.711   7.984   7.793
11156WAT      O33709   3.593   3.687   0.025
11156WAT     H133710   3.498   3.708   0.048
11156WAT     H233711   3.605   3.692  -0.074
11157WAT      O33712   0.186   1.780   0.783
11157WAT     H133713   0.206   1.878   0.776
11157WAT     H233714   0.263   1.728   0.745
11158WAT      O33715   8.220   8.549   0.784
11158WAT     H133716   8.120   8.541   0.791
11158WAT     H233717   8.250   8.506   0.699
11159WAT      O33718   0.419   6.529   4.514
11159WAT     H133719   0.429   6.625   4.488
11159WAT     H233720   0.509   6.489   4.532
11160WAT      O33721   1.034   9.746   2.820
11160WAT     H133722   1.007   9.709   2.730
11160WAT     H233723   0.959   9.732   2.885
11161WAT      O33724   0.520   0.367   7.191
11161WAT     H133725   0.428   0.395   7.165
11161WAT     H233726   0.527   0.363   7.291
11162WAT      O33727   0.750   0.930   9.458
11162WAT     H133728   0.772   1.027   9.450
11162WAT     H233729   0.805   0.889   9.531
11163WAT      O33730   2.316   2.668   5.599
11163WAT     H133731   2.273   2.757   5.614
11163WAT     H233732   2.299   2.609   5.678
11164WAT      O33733   8.544   6.860   5.454
11164WAT     H133734   8.549   6.810   5.541
11164WAT     H233735   8.636   6.882   5.422
11165WAT      O33736   8.144   1.194   5.484
11165WAT     H133737   8.236   1.185   5.522
11165WAT     H233738   8.091   1.257   5.541
11166WAT      O33739   8.188   7.624   1.546
11166WAT     H133740   8.212   7.718   1.521
11166WAT     H233741   8.094   7.606   1.517
11167WAT      O33742   2.780   5.944   8.257
11167WAT     H133743   2.864   5.996   8.274
11167WAT     H233744   2.712   5.967   8.326
11168WAT      O33745   2.346   0.856   6.088
11168WAT     H133746   2.400   0.913   6.025
11168WAT     H233747   2.252   0.890   6.092
11169WAT      O33748   3.934   4.490   0.888
11169WAT     H133749   3.847   4.530   0.859
11169WAT     H233750   3.922   4.444   0.977
11170WAT      O33751   6.586   4.992   9.621
11170WAT     H133752   6.674   4.975   9.577
11170WAT     H233753   6.518   4.927   9.588
11171WAT      O33754   5.887   2.493   9.053
11171WAT     H133755   5.791   2.469   9.041
11171WAT     H233756   5.897   2.554   9.131
11172WAT      O33757   3.858   4.039   7.340
11172WAT     H133758   3.777   4.079   7.383
11172WAT     H233759   3.916   4.112   7.303
11173WAT      O33760   7.066   6.694   1.558
11173WAT     H133761   6.981   6.660   1.518
11173WAT     H233762   7.066   6.677   1.656
11174WAT      O33763   2.629   5.794   5.823
11174WAT     H133764   2.676   5.715   5.784
11174WAT     H233765   2.602   5.773   5.917
11175WAT      O33766   4.297   2.991   6.315
11175WAT     H133767   4.347   3.039   6.243
11175WAT     H233768   4.236   2.923   6.274
11176WAT      O33769   5.510   1.547   8.517
11176WAT     H133770   5.501   1.501   8.429
11176WAT     H233771   5.421   1.554   8.561
11177WAT      O33772   7.560   9.818   4.837
11177WAT     H133773   7.520   9.740   4.884
11177WAT     H233774   7.634   9.787   4.777
11178WAT      O33775   4.645   6.520   2.443
11178WAT     H133776   4.735   6.478   2.436
11178WAT     H233777   4.653   6.612   2.482
11179WAT      O33778   3.184   6.792   1.965
11179WAT     H133779   3.110   6.821   1.905
11179WAT     H233780   3.244   6.870   1.984
11180WAT      O33781   1.691   1.738   0.030
11180WAT     H133782   1.774   1.772   0.074
11180WAT     H233783   1.636   1.815  -0.003
11181WAT      O33784   9.299   5.081   9.382
11181WAT     H133785   9.378   5.137   9.359
11181WAT     H233786   9.328   5.001   9.434
11182WAT      O33787   0.934   3.928   4.279
11182WAT     H133788   1.020   3.978   4.287
11182WAT     H233789   0.886   3.931   4.367
11183WAT      O33790   2.729   8.583   0.335
11183WAT     H133791   2.644   8.635   0.327
11183WAT     H233792   2.802   8.630   0.284
11184WAT      O33793   5.328   7.897   2.603
11184WAT     H133794   5.353   7.854   2.517
11184WAT     H233795   5.383   7.980   2.617
11185WAT      O33796   6.959   3.311   9.660
11185WAT     H133797   7.001   3.228   9.696
11185WAT     H233798   6.888   3.286   9.594
11186WAT      O33799   6.341   7.388   9.603
11186WAT     H133800   6.430   7.373   9.647
11186WAT     H233801   6.356   7.424   9.511
11187WAT      O33802   9.772   8.578   2.803
11187WAT     H133803   9.829   8.660   2.797
11187WAT     H233804   9.769   8.546   2.897
11188WAT      O33805   1.284   0.319   4.072
11188WAT     H133806   1.201   0.285   4.028
11188WAT     H233807   1.363   0.269   4.037
11189WAT      O33808   9.075   8.077   3.496
11189WAT     H133809   9.047   7.984   3.518
11189WAT     H233810   9.081   8.088   3.397
11190WAT      O33811   1.274   2.893   7.098
11190WAT     H133812   1.215   2.974   7.097
11190WAT     H233813   1.225   2.818   7.143
11191WAT      O33814   2.893   5.655   1.149
11191WAT     H133815   2.946   5.572   1.167
11191WAT     H233816   2.795   5.636   1.159
11192WAT      O33817   6.953   4.539   2.177
11192WAT     H133818   7.033   4.534   2.237
11192WAT     H233819   6.887   4.468   2.202
11193WAT      O33820   2.564   5.015   5.447
11193WAT     H133821   2.500   4.943   5.422
11193WAT     H233822   2.513   5.094   5.481
11194WAT      O33823   1.792   6.231   8.337
11194WAT     H133824   1.880   6.270   8.309
11194WAT     H233825   1.792   6.133   8.317
11195WAT      O33826   0.076   7.734   9.732
11195WAT     H133827   0.145   7.733   9.660
11195WAT     H233828   0.011   7.660   9.717
11196WAT      O33829   0.665   3.047   0.639
11196WAT     H133830   0.598   3.084   0.574
11196WAT     H233831   0.673   3.109   0.717
11197WAT      O33832   5.392   2.968   1.996
11197WAT     H133833   5.473   2.912   1.978
11197WAT     H233834   5.402   3.055   1.948
11198WAT      O33835   4.010   1.268   7.038
11198WAT     H133836   4.003   1.185   7.094
11198WAT     H233837   4.034   1.243   6.945
11199WAT      O33838   2.982   0.758   1.808
11199WAT     H133839   3.078   0.748   1.781
11199WAT     H233840   2.939   0.830   1.753
11200WAT      O33841   7.620   5.072   1.406
11200WAT     H133842   7.702   5.048   1.458
11200WAT     H233843   7.626   5.031   1.314
11201WAT      O33844   4.214   8.306   2.912
11201WAT     H133845   4.308   8.329   2.887
11201WAT     H233846   4.213   8.225   2.970
11202WAT      O33847   7.080   9.184   8.416
11202WAT     H133848   7.106   9.112   8.351
11202WAT     H233849   7.158   9.208   8.472
11203WAT      O33850   2.105   2.358   2.580
11203WAT     H133851   2.059   2.327   2.663
11203WAT     H233852   2.144   2.279   2.533
11204WAT      O33853   0.559   8.732   9.054
11204WAT     H133854   0.471   8.757   9.014
11204WAT     H233855   0.580   8.638   9.029
11205WAT      O33856   2.786   0.702   9.118
11205WAT     H133857   2.817   0.779   9.062
11205WAT     H233858   2.809   0.718   9.214
11206WAT      O33859   2.865   0.418   9.881
11206WAT     H133860   2.776   0.433   9.925
11206WAT     H233861   2.903   0.506   9.852
11207WAT      O33862   0.533   0.482   7.856
11207WAT     H133863   0.515   0.384   7.847
11207WAT     H233864   0.452   0.528   7.892
11208WAT      O33865   7.790   2.881   6.756
11208WAT     H133866   7.719   2.903   6.689
11208WAT     H233867   7.874   2.929   6.733
11209WAT      O33868   8.309   3.817   6.589
11209WAT     H133869   8.405   3.845   6.590
11209WAT     H233870   8.294   3.745   6.657
11210WAT      O33871   8.737   4.566   2.390
11210WAT     H133872   8.782   4.622   2.459
11210WAT     H233873   8.766   4.596   2.299
11211WAT      O33874   7.728   4.416   3.105
11211WAT     H133875   7.666   4.355   3.056
11211WAT     H233876   7.821   4.404   3.071
11212WAT      O33877   1.763   1.110   9.592
11212WAT     H133878   1.837   1.177   9.603
11212WAT     H233879   1.799   1.025   9.554
11213WAT      O33880   7.517   1.143   2.966
11213WAT     H133881   7.439   1.100   3.012
11213WAT     H233882   7.577   1.185   3.034
11214WAT      O33883   7.079   1.338   0.790
11214WAT     H133884   7.067   1.296   0.880
11214WAT     H233885   7.097   1.435   0.800
11215WAT      O33886   7.911   8.181   2.051
11215WAT     H133887   7.842   8.252   2.033
11215WAT     H233888   7.967   8.168   1.970
11216WAT      O33889   9.266   5.280   3.614
11216WAT     H133890   9.328   5.359   3.608
11216WAT     H233891   9.172   5.312   3.624
11217WAT      O33892   6.607   1.835   8.011
11217WAT     H133893   6.702   1.860   7.996
11217WAT     H233894   6.600   1.777   8.092
11218WAT      O33895   9.579   8.647   2.598
11218WAT     H133896   9.626   8.732   2.575
11218WAT     H233897   9.634   8.596   2.664
11219WAT      O33898   6.464   9.068   2.162
11219WAT     H133899   6.412   9.148   2.132
11219WAT     H233900   6.453   8.994   2.096
11220WAT      O33901   4.310   3.136   9.044
11220WAT     H133902   4.241   3.093   8.987
11220WAT     H233903   4.267   3.176   9.125
11221WAT      O33904   2.762   8.795   9.515
11221WAT     H133905   2.664   8.782   9.529
11221WAT     H233906   2.812   8.744   9.585
11222WAT      O33907   1.225   2.810   7.476
11222WAT     H133908   1.186   2.742   7.414
11222WAT     H233909   1.203   2.785   7.570
11223WAT      O33910   0.885   8.325   0.747
11223WAT     H133911   0.866   8.255   0.678
11223WAT     H233912   0.962   8.295   0.803
11224WAT      O33913   1.964   0.384   7.973
11224WAT     H133914   1.928   0.424   7.889
11224WAT     H233915   1.946   0.445   8.050
11225WAT      O33916   1.846   6.385   0.294
11225WAT     H133917   1.931   6.436   0.283
11225WAT     H233918   1.769   6.440   0.260
11226WAT      O33919   7.152   8.633   3.226
11226WAT     H133920   7.090   8.625   3.304
11226WAT     H233921   7.167   8.730   3.205
11227WAT      O33922   5.333   7.584   4.110
11227WAT     H133923   5.246   7.630   4.091
11227WAT     H233924   5.357   7.525   4.034
11228WAT      O33925   7.414   5.599   4.115
11228WAT     H133926   7.494   5.652   4.088
11228WAT     H233927   7.378   5.550   4.035
11229WAT      O33928   9.511   2.039   2.667
11229WAT     H133929   9.548   2.035   2.760
11229WAT     H233930   9.576   2.086   2.608
11230WAT      O33931   4.933   8.070   9.632
11230WAT     H133932   4.985   8.104   9.711
11230WAT     H233933   4.918   8.145   9.568
11231WAT      O33934   6.914   2.282   0.177
11231WAT     H133935   6.847   2.229   0.230
11231WAT     H233936   6.971   2.219   0.124
11232WAT      O33937   8.492   1.499   3.924
11232WAT     H133938   8.583   1.482   3.886
11232WAT     H233939   8.497   1.572   3.992
11233WAT      O33940   1.762   5.244   3.168
11233WAT     H133941   1.809   5.156   3.155
11233WAT     H233942   1.664   5.230   3.168
11234WAT      O33943   5.851   9.249   0.168
11234WAT     H133944   5.810   9.204   0.248
11234WAT     H233945   5.940   9.288   0.194
11235WAT      O33946   0.930   0.293   2.184
11235WAT     H133947   0.934   0.278   2.085
11235WAT     H233948   0.847   0.343   2.207
11236WAT      O33949   2.971   7.883   3.342
11236WAT     H133950   2.955   7.972   3.384
11236WAT     H233951   2.889   7.827   3.350
11237WAT      O33952   0.987   8.647   5.572
11237WAT     H133953   1.047   8.568   5.561
11237WAT     H233954   1.002   8.687   5.662
11238WAT      O33955   0.209   9.326   0.979
11238WAT     H133956   0.203   9.423   0.999
11238WAT     H233957   0.127   9.297   0.930
11239WAT      O33958   2.040   6.105   4.475
11239WAT     H133959   1.959   6.127   4.420
11239WAT     H233960   2.020   6.027   4.534
11240WAT      O33961   3.312   4.496   2.218
11240WAT     H133962   3.270   4.478   2.129
11240WAT     H233963   3.287   4.587   2.249
11241WAT      O33964   5.162   1.976   1.066
11241WAT     H133965   5.068   2.004   1.046
11241WAT     H233966   5.184   2.002   1.160
11242WAT      O33967   9.880   1.257   4.184
11242WAT     H133968   9.896   1.256   4.282
11242WAT     H233969   9.911   1.344   4.145
11243WAT      O33970   7.078   5.950   5.560
11243WAT     H133971   7.027   5.894   5.625
11243WAT     H233972   7.136   5.891   5.504
11244WAT      O33973   3.688   3.507   1.054
11244WAT     H133974   3.699   3.409   1.069
11244WAT     H233975   3.595   3.526   1.023
11245WAT      O33976   5.541   5.984   8.080
11245WAT     H133977   5.474   5.936   8.023
11245WAT     H233978   5.569   6.069   8.035
11246WAT      O33979   4.937   1.017   8.296
11246WAT     H133980   4.962   0.977   8.384
11246WAT     H233981   4.913   1.113   8.309
11247WAT      O33982   1.997   8.241   1.166
11247WAT     H133983   2.041   8.284   1.245
11247WAT     H233984   2.064   8.189   1.114
11248WAT      O33985   9.692   0.133   9.320
11248WAT     H133986   9.613   0.142   9.260
11248WAT     H233987   9.774   0.164   9.272
11249WAT      O33988   3.548   9.702   4.761
11249WAT     H133989   3.633   9.684   4.810
11249WAT     H233990   3.563   9.775   4.694
11250WAT      O33991   7.485   3.576   0.780
11250WAT     H133992   7.410   3.640   0.764
11250WAT     H233993   7.557   3.621   0.834
11251WAT      O33994   6.911   3.401   1.155
11251WAT     H133995   6.814   3.391   1.175
11251WAT     H233996   6.939   3.495   1.171
11252WAT      O33997   4.266   9.020   8.583
11252WAT     H133998   4.345   9.075   8.556
11252WAT     H233999   4.202   9.077   8.635
11253WAT      O34000   9.871   8.947   6.765
11253WAT     H134001   9.942   8.886   6.730
11253WAT     H234002   9.811   8.896   6.826
11254WAT      O34003   1.712   1.811   5.295
11254WAT     H134004   1.731   1.906   5.273
11254WAT     H234005   1.718   1.798   5.394
11255WAT      O34006   5.925   1.589   9.050
11255WAT     H134007   5.965   1.679   9.072
11255WAT     H234008   5.976   1.518   9.098
11256WAT      O34009   6.006   4.590   9.595
11256WAT     H134010   5.998   4.582   9.694
11256WAT     H234011   6.025   4.685   9.571
11257WAT      O34012   6.208   7.566   5.945
11257WAT     H134013   6.179   7.658   5.920
11257WAT     H234014   6.269   7.530   5.875
11258WAT      O34015   9.034   3.167   6.416
11258WAT     H134016   8.996   3.172   6.508
11258WAT     H234017   9.008   3.249   6.364
11259WAT      O34018   0.801   9.703   5.644
11259WAT     H134019   0.826   9.727   5.550
11259WAT     H234020   0.845   9.617   5.669
11260WAT      O34021   9.513   6.400   4.176
11260WAT     H134022   9.443   6.431   4.240
11260WAT     H234023   9.491   6.432   4.084
11261WAT      O34024   8.858   3.279   9.275
11261WAT     H134025   8.759   3.285   9.268
11261WAT     H234026   8.890   3.342   9.346
11262WAT      O34027   7.100   4.259   6.561
11262WAT     H134028   7.043   4.331   6.521
11262WAT     H234029   7.049   4.211   6.632
11263WAT      O34030   7.257   9.680   3.318
11263WAT     H134031   7.238   9.584   3.339
11263WAT     H234032   7.356   9.696   3.323
11264WAT      O34033   5.793   7.309   1.842
11264WAT     H134034   5.817   7.279   1.749
11264WAT     H234035   5.840   7.252   1.909
11265WAT      O34036   0.212   1.947   1.208
11265WAT     H134037   0.279   1.978   1.140
11265WAT     H234038   0.256   1.884   1.271
11266WAT      O34039   7.270   1.189   5.840
11266WAT     H134040   7.267   1.157   5.746
11266WAT     H234041   7.366   1.205   5.867
11267WAT      O34042   9.741   4.828   1.490
11267WAT     H134043   9.698   4.743   1.459
11267WAT     H234044   9.748   4.892   1.414
11268WAT      O34045   7.491   8.177   2.723
11268WAT     H134046   7.419   8.234   2.683
11268WAT     H234047   7.553   8.235   2.777
11269WAT      O34048   0.645   5.894   4.305
11269WAT     H134049   0.667   5.899   4.208
11269WAT     H234050   0.609   5.803   4.327
11270WAT      O34051   3.860   1.702   6.418
11270WAT     H134052   3.891   1.796   6.400
11270WAT     H234053   3.937   1.640   6.410
11271WAT      O34054   0.492   5.567   6.250
11271WAT     H134055   0.442   5.614   6.178
11271WAT     H234056   0.500   5.470   6.227
11272WAT      O34057   2.203   6.252   6.511
11272WAT     H134058   2.195   6.299   6.598
11272WAT     H234059   2.123   6.272   6.454
11273WAT      O34060   3.874   9.131   4.251
11273WAT     H134061   3.874   9.089   4.160
11273WAT     H234062   3.964   9.170   4.270
11274WAT      O34063   4.833   5.531   4.812
11274WAT     H134064   4.778   5.465   4.761
11274WAT     H234065   4.906   5.484   4.860
11275WAT      O34066   2.901   4.877   9.499
11275WAT     H134067   2.851   4.829   9.572
11275WAT     H234068   2.890   4.976   9.511
11276WAT      O34069   5.893   0.468   8.978
11276WAT     H134070   5.930   0.506   9.062
11276WAT     H234071   5.959   0.479   8.904
11277WAT      O34072   1.727   1.281   5.754
11277WAT     H134073   1.666   1.254   5.829
11277WAT     H234074   1.816   1.306   5.790
11278WAT      O34075   7.000   4.912   5.549
11278WAT     H134076   7.083   4.958   5.516
11278WAT     H234077   7.005   4.902   5.648
11279WAT      O34078   7.910   4.262   1.210
11279WAT     H134079   7.881   4.184   1.266
11279WAT     H234080   7.850   4.340   1.227
11280WAT      O34081   8.794   6.839   1.906
11280WAT     H134082   8.843   6.920   1.936
11280WAT     H234083   8.726   6.814   1.974
11281WAT      O34084   7.223   0.387   3.354
11281WAT     H134085   7.142   0.336   3.381
11281WAT     H234086   7.201   0.448   3.278
11282WAT      O34087   0.137   9.825   7.843
11282WAT     H134088   0.124   9.782   7.932
11282WAT     H234089   0.149   9.924   7.855
11283WAT      O34090   2.478   6.266   6.243
11283WAT     H134091   2.519   6.205   6.175
11283WAT     H234092   2.550   6.314   6.292
11284WAT      O34093   9.117   6.219   4.748
11284WAT     H134094   9.158   6.264   4.828
11284WAT     H234095   9.130   6.277   4.668
11285WAT      O34096   9.120   3.897   4.447
11285WAT     H134097   9.084   3.980   4.406
11285WAT     H234098   9.219   3.895   4.438
11286WAT      O34099   9.184   2.921   1.022
11286WAT     H134100   9.222   2.829   1.025
11286WAT     H234101   9.171   2.948   0.926
11287WAT      O34102   8.145   6.221   0.036
11287WAT     H134103   8.190   6.150  -0.019
11287WAT     H234104   8.050   6.229   0.006
11288WAT      O34105   5.285   7.439   5.928
11288WAT     H134106   5.278   7.389   5.841
11288WAT     H234107   5.275   7.537   5.911
11289WAT      O34108   5.391   0.400   9.433
11289WAT     H134109   5.456   0.418   9.360
11289WAT     H234110   5.439   0.371   9.516
11290WAT      O34111   6.549   9.473   6.451
11290WAT     H134112   6.543   9.441   6.546
11290WAT     H234113   6.628   9.431   6.407
11291WAT      O34114   3.365   5.951   3.016
11291WAT     H134115   3.443   6.001   2.980
11291WAT     H234116   3.374   5.940   3.115
11292WAT      O34117   3.425   1.416   0.500
11292WAT     H134118   3.346   1.449   0.553
11292WAT     H234119   3.453   1.486   0.435
11293WAT      O34120   0.736   2.839   3.627
11293WAT     H134121   0.756   2.876   3.536
11293WAT     H234122   0.637   2.832   3.639
11294WAT      O34123   7.411   2.097   8.863
11294WAT     H134124   7.326   2.114   8.912
11294WAT     H234125   7.485   2.151   8.904
11295WAT      O34126   2.773   4.975   6.870
11295WAT     H134127   2.865   5.007   6.892
11295WAT     H234128   2.778   4.910   6.794
11296WAT      O34129   2.427   8.205   6.922
11296WAT     H134130   2.345   8.258   6.902
11296WAT     H234131   2.508   8.264   6.912
11297WAT      O34132   9.402   3.944   0.411
11297WAT     H134133   9.402   3.899   0.501
11297WAT     H234134   9.309   3.944   0.374
11298WAT      O34135   0.928   7.356   4.828
11298WAT     H134136   0.983   7.373   4.746
11298WAT     H234137   0.855   7.291   4.806
11299WAT      O34138   2.670   0.050   9.291
11299WAT     H134139   2.606   0.106   9.343
11299WAT     H234140   2.704   0.102   9.213
11300WAT      O34141   3.148   5.286   9.522
11300WAT     H134142   3.179   5.278   9.617
11300WAT     H234143   3.184   5.209   9.470
11301WAT      O34144   0.343   0.489   9.702
11301WAT     H134145   0.260   0.545   9.692
11301WAT     H234146   0.368   0.484   9.798
11302WAT      O34147   6.332   9.369   0.154
11302WAT     H134148   6.346   9.273   0.130
11302WAT     H234149   6.242   9.379   0.196
11303WAT      O34150   5.214   2.694   8.404
11303WAT     H134151   5.123   2.736   8.393
11303WAT     H234152   5.229   2.674   8.501
11304WAT      O34153   8.087   6.792   4.705
11304WAT     H134154   8.136   6.877   4.682
11304WAT     H234155   8.044   6.755   4.623
11305WAT      O34156   6.126   8.953   5.239
11305WAT     H134157   6.147   8.904   5.154
11305WAT     H234158   6.092   9.044   5.218
11306WAT      O34159   0.908   3.025   2.980
11306WAT     H134160   0.839   2.998   2.913
11306WAT     H234161   0.958   2.944   3.011
11307WAT      O34162   2.788   8.594   0.626
11307WAT     H134163   2.782   8.600   0.526
11307WAT     H234164   2.805   8.499   0.652
11308WAT      O34165   6.143   5.304   9.494
11308WAT     H134166   6.098   5.262   9.415
11308WAT     H234167   6.097   5.274   9.577
11309WAT      O34168   2.218   8.028   3.389
11309WAT     H134169   2.229   8.106   3.327
11309WAT     H234170   2.267   7.949   3.352
11310WAT      O34171   1.531   7.788   3.708
11310WAT     H134172   1.445   7.828   3.675
11310WAT     H234173   1.593   7.861   3.736
11311WAT      O34174   3.114   8.473   8.362
11311WAT     H134175   3.089   8.570   8.352
11311WAT     H234176   3.036   8.422   8.398
11312WAT      O34177   4.579   1.743   2.069
11312WAT     H134178   4.540   1.661   2.027
11312WAT     H234179   4.508   1.813   2.078
11313WAT      O34180   0.244   5.236   7.763
11313WAT     H134181   0.198   5.150   7.741
11313WAT     H234182   0.233   5.300   7.687
11314WAT      O34183   2.995   4.531   2.306
11314WAT     H134184   2.927   4.589   2.351
11314WAT     H234185   2.972   4.523   2.209
11315WAT      O34186   6.521   5.177   0.248
11315WAT     H134187   6.512   5.077   0.239
11315WAT     H234188   6.590   5.197   0.318
11316WAT      O34189   5.005   6.060   7.151
11316WAT     H134190   5.086   6.056   7.210
11316WAT     H234191   5.017   6.132   7.083
11317WAT      O34192   2.014   3.869   9.004
11317WAT     H134193   1.999   3.777   8.966
11317WAT     H234194   2.088   3.914   8.954
11318WAT      O34195   4.194   6.678   5.892
11318WAT     H134196   4.209   6.772   5.923
11318WAT     H234197   4.242   6.615   5.954
11319WAT      O34198   0.706   8.577   5.251
11319WAT     H134199   0.646   8.585   5.171
11319WAT     H234200   0.789   8.630   5.237
11320WAT      O34201   6.832   9.214   4.851
11320WAT     H134202   6.734   9.196   4.862
11320WAT     H234203   6.850   9.244   4.758
11321WAT      O34204   6.610   2.077   8.476
11321WAT     H134205   6.673   2.154   8.465
11321WAT     H234206   6.517   2.107   8.454
11322WAT      O34207   1.518   8.549   8.382
11322WAT     H134208   1.484   8.572   8.291
11322WAT     H234209   1.489   8.618   8.447
11323WAT      O34210   7.512   6.556   9.422
11323WAT     H134211   7.465   6.634   9.379
11323WAT     H234212   7.550   6.584   9.510
11324WAT      O34213   1.553   6.307   0.829
11324WAT     H134214   1.613   6.356   0.766
11324WAT     H234215   1.564   6.209   0.815
11325WAT      O34216   9.252   0.402   2.983
11325WAT     H134217   9.237   0.303   2.981
11325WAT     H234218   9.253   0.438   2.890
11326WAT      O34219   0.436   0.541   2.474
11326WAT     H134220   0.447   0.565   2.571
11326WAT     H234221   0.411   0.444   2.466
11327WAT      O34222   4.988   6.728   9.577
11327WAT     H134223   4.889   6.714   9.570
11327WAT     H234224   5.008   6.789   9.654
11328WAT      O34225   3.197   7.625   8.311
11328WAT     H134226   3.278   7.594   8.261
11328WAT     H234227   3.222   7.640   8.407
11329WAT      O34228   4.231   8.947   4.398
11329WAT     H134229   4.202   8.918   4.307
11329WAT     H234230   4.205   8.878   4.465
11330WAT      O34231   5.533   0.584   3.009
11330WAT     H134232   5.510   0.648   3.083
11330WAT     H234233   5.610   0.527   3.038
11331WAT      O34234   6.776   8.488   7.495
11331WAT     H134235   6.681   8.514   7.485
11331WAT     H234236   6.820   8.486   7.405
11332WAT      O34237   7.273   7.916   6.503
11332WAT     H134238   7.236   7.837   6.454
11332WAT     H234239   7.341   7.961   6.446
11333WAT      O34240   5.741   3.859   3.092
11333WAT     H134241   5.736   3.761   3.072
11333WAT     H234242   5.729   3.910   3.007
11334WAT      O34243   6.081   1.881   0.024
11334WAT     H134244   6.166   1.830   0.041
11334WAT     H234245   6.007   1.817   0.003
11335WAT      O34246   0.913   6.138   8.115
11335WAT     H134247   0.875   6.206   8.052
11335WAT     H234248   0.861   6.053   8.109
11336WAT      O34249   0.703   6.455   2.318
11336WAT     H134250   0.603   6.461   2.330
11336WAT     H234251   0.732   6.360   2.326
11337WAT      O34252   2.702   8.907   3.020
11337WAT     H134253   2.605   8.881   3.023
11337WAT     H234254   2.735   8.903   2.926
11338WAT      O34255   6.159   1.367   8.637
11338WAT     H134256   6.134   1.340   8.730
11338WAT     H234257   6.169   1.467   8.633
11339WAT      O34258   2.369   3.609   1.176
11339WAT     H134259   2.295   3.583   1.114
11339WAT     H234260   2.343   3.691   1.226
11340WAT      O34261   8.247   1.789   7.657
11340WAT     H134262   8.290   1.829   7.576
11340WAT     H234263   8.149   1.783   7.643
11341WAT      O34264   4.000   5.081   7.527
11341WAT     H134265   4.006   5.087   7.626
11341WAT     H234266   3.983   4.986   7.500
11342WAT      O34267   9.304   8.680   1.337
11342WAT     H134268   9.295   8.687   1.436
11342WAT     H234269   9.398   8.698   1.311
11343WAT      O34270   2.725   5.643   3.308
11343WAT     H134271   2.782   5.717   3.344
11343WAT     H234272   2.784   5.568   3.278
11344WAT      O34273   5.154   4.280   7.863
11344WAT     H134274   5.132   4.198   7.916
11344WAT     H234275   5.168   4.357   7.925
11345WAT      O34276   9.300   5.908   2.920
11345WAT     H134277   9.265   5.917   3.013
11345WAT     H234278   9.373   5.975   2.905
11346WAT      O34279   9.542   5.329   8.843
11346WAT     H134280   9.507   5.344   8.751
11346WAT     H234281   9.563   5.417   8.886
11347WAT      O34282   5.789   7.907   8.594
11347WAT     H134283   5.813   7.945   8.505
11347WAT     H234284   5.693   7.881   8.594
11348WAT      O34285   0.786   0.490   7.947
11348WAT     H134286   0.690   0.490   7.919
11348WAT     H234287   0.799   0.559   8.017
11349WAT      O34288   7.242   8.734   0.887
11349WAT     H134289   7.193   8.649   0.906
11349WAT     H234290   7.278   8.772   0.973
11350WAT      O34291   2.940   3.968   9.410
11350WAT     H134292   2.964   4.055   9.368
11350WAT     H234293   2.989   3.958   9.496
11351WAT      O34294   9.317   8.390   2.680
11351WAT     H134295   9.391   8.324   2.667
11351WAT     H234296   9.231   8.349   2.649
11352WAT      O34297   2.638   8.775   2.765
11352WAT     H134298   2.733   8.804   2.754
11352WAT     H234299   2.580   8.822   2.698
11353WAT      O34300   1.892   8.412   8.102
11353WAT     H134301   1.952   8.461   8.039
11353WAT     H234302   1.945   8.377   8.178
11354WAT      O34303   5.226   6.914   6.399
11354WAT     H134304   5.315   6.869   6.400
11354WAT     H234305   5.218   6.970   6.316
11355WAT      O34306   1.186   0.719   2.483
11355WAT     H134307   1.222   0.638   2.529
11355WAT     H234308   1.094   0.699   2.449
11356WAT      O34309   8.651   4.196   3.471
11356WAT     H134310   8.650   4.246   3.384
11356WAT     H234311   8.567   4.217   3.522
11357WAT      O34312   9.535   5.236   5.640
11357WAT     H134313   9.516   5.324   5.683
11357WAT     H234314   9.602   5.186   5.694
11358WAT      O34315   5.336   9.217   4.348
11358WAT     H134316   5.367   9.136   4.398
11358WAT     H234317   5.409   9.286   4.347
11359WAT      O34318   3.772   2.691   8.515
11359WAT     H134319   3.868   2.716   8.517
11359WAT     H234320   3.752   2.640   8.431
11360WAT      O34321   2.469   6.772   5.360
11360WAT     H134322   2.453   6.788   5.263
11360WAT     H234323   2.516   6.851   5.400
11361WAT      O34324   5.087   7.776   7.291
11361WAT     H134325   5.101   7.861   7.241
11361WAT     H234326   4.990   7.752   7.291
11362WAT      O34327   4.204   1.996   6.505
11362WAT     H134328   4.185   2.002   6.603
11362WAT     H234329   4.118   1.998   6.454
11363WAT      O34330   8.877   0.571   6.838
11363WAT     H134331   8.946   0.509   6.875
11363WAT     H234332   8.920   0.659   6.817
11364WAT      O34333   2.907   0.171   2.593
11364WAT     H134334   2.888   0.269   2.592
11364WAT     H234335   3.005   0.156   2.604
11365WAT      O34336   3.456   4.087   3.865
11365WAT     H134337   3.424   3.993   3.875
11365WAT     H234338   3.392   4.138   3.806
11366WAT      O34339   0.396   6.546   6.198
11366WAT     H134340   0.301   6.544   6.167
11366WAT     H234341   0.446   6.616   6.147
11367WAT      O34342   6.624   9.740   7.663
11367WAT     H134343   6.629   9.729   7.763
11367WAT     H234344   6.645   9.835   7.639
11368WAT      O34345   1.570   4.528   2.545
11368WAT     H134346   1.569   4.565   2.639
11368WAT     H234347   1.512   4.585   2.487
11369WAT      O34348   4.775   6.112   7.661
11369WAT     H134349   4.812   6.128   7.569
11369WAT     H234350   4.751   6.200   7.703
11370WAT      O34351   6.234   6.878   7.986
11370WAT     H134352   6.301   6.817   8.028
11370WAT     H234353   6.219   6.957   8.046
11371WAT      O34354   2.334   1.701   4.477
11371WAT     H134355   2.339   1.626   4.412
11371WAT     H234356   2.366   1.785   4.434
11372WAT      O34357   5.816   2.131   8.011
11372WAT     H134358   5.845   2.165   8.100
11372WAT     H234359   5.724   2.164   7.990
11373WAT      O34360   7.922   8.137   0.332
11373WAT     H134361   7.987   8.074   0.291
11373WAT     H234362   7.852   8.085   0.382
11374WAT      O34363   6.148   6.466   7.863
11374WAT     H134364   6.184   6.429   7.777
11374WAT     H234365   6.092   6.546   7.844
11375WAT      O34366   3.192   5.100   7.662
11375WAT     H134367   3.196   5.101   7.761
11375WAT     H234368   3.198   5.006   7.629
11376WAT      O34369   4.087   6.395   6.871
11376WAT     H134370   4.146   6.446   6.808
11376WAT     H234371   4.111   6.418   6.965
11377WAT      O34372   0.972   1.407   3.116
11377WAT     H134373   0.996   1.472   3.189
11377WAT     H234374   0.964   1.456   3.030
11378WAT      O34375   8.175   4.586   2.563
11378WAT     H134376   8.183   4.486   2.561
11378WAT     H234377   8.240   4.626   2.497
11379WAT      O34378   1.895   2.370   5.873
11379WAT     H134379   1.865   2.368   5.969
11379WAT     H234380   1.937   2.283   5.849
11380WAT      O34381   7.623   1.849   7.268
11380WAT     H134382   7.551   1.781   7.283
11380WAT     H234383   7.654   1.843   7.173
11381WAT      O34384   6.111   4.512   1.821
11381WAT     H134385   6.081   4.432   1.873
11381WAT     H234386   6.155   4.482   1.736
11382WAT      O34387   7.496   1.343   2.770
11382WAT     H134388   7.539   1.429   2.798
11382WAT     H234389   7.490   1.282   2.849
11383WAT      O34390   0.254   4.027   3.244
11383WAT     H134391   0.264   4.121   3.210
11383WAT     H234392   0.339   3.998   3.287
11384WAT      O34393   4.193   0.455   5.017
11384WAT     H134394   4.262   0.414   4.958
11384WAT     H234395   4.238   0.507   5.090
11385WAT      O34396   7.020   9.821   2.319
11385WAT     H134397   7.018   9.767   2.403
11385WAT     H234398   6.954   9.896   2.328
11386WAT      O34399   0.621   1.034   2.698
11386WAT     H134400   0.622   1.122   2.746
11386WAT     H234401   0.662   0.964   2.757
11387WAT      O34402   0.679   3.932   0.345
11387WAT     H134403   0.768   3.935   0.300
11387WAT     H234404   0.613   3.986   0.293
11388WAT      O34405   3.936   2.758   4.839
11388WAT     H134406   4.031   2.729   4.850
11388WAT     H234407   3.919   2.778   4.742
11389WAT      O34408   9.711   2.102   1.211
11389WAT     H134409   9.789   2.146   1.255
11389WAT     H234410   9.717   2.003   1.225
11390WAT      O34411   0.381   0.401   6.347
11390WAT     H134412   0.474   0.365   6.349
11390WAT     H234413   0.350   0.410   6.252
11391WAT      O34414   5.383   2.153   0.239
11391WAT     H134415   5.412   2.082   0.175
11391WAT     H234416   5.357   2.112   0.326
11392WAT      O34417   8.660   6.145   0.001
11392WAT     H134418   8.743   6.113  -0.043
11392WAT     H234419   8.617   6.070   0.052
11393WAT      O34420   5.313   3.536   3.031
11393WAT     H134421   5.277   3.540   3.124
11393WAT     H234422   5.265   3.602   2.973
11394WAT      O34423   3.108   7.749   5.895
11394WAT     H134424   3.091   7.848   5.887
11394WAT     H234425   3.149   7.716   5.810
11395WAT      O34426   4.221   7.194   0.996
11395WAT     H134427   4.321   7.185   0.996
11395WAT     H234428   4.181   7.115   0.951
11396WAT      O34429   6.221   7.246   6.388
11396WAT     H134430   6.171   7.326   6.423
11396WAT     H234431   6.213   7.170   6.452
11397WAT      O34432   9.767   0.925   0.325
11397WAT     H134433   9.667   0.932   0.328
11397WAT     H234434   9.805   1.012   0.293
11398WAT      O34435   0.106   3.175   1.896
11398WAT     H134436   0.137   3.208   1.806
11398WAT     H234437   0.006   3.175   1.897
11399WAT      O34438   1.880   3.064   4.281
11399WAT     H134439   1.973   3.100   4.286
11399WAT     H234440   1.863   3.007   4.361
11400WAT      O34441   9.320   9.340   1.565
11400WAT     H134442   9.232   9.306   1.533
11400WAT     H234443   9.316   9.357   1.663
11401WAT      O34444   8.572   7.055   3.846
11401WAT     H134445   8.631   6.981   3.879
11401WAT     H234446   8.491   7.061   3.904
11402WAT      O34447   2.794   3.210   6.603
11402WAT     H134448   2.776   3.269   6.524
11402WAT     H234449   2.736   3.129   6.599
11403WAT      O34450   7.806   0.262   1.625
11403WAT     H134451   7.736   0.211   1.675
11403WAT     H234452   7.889   0.207   1.618
11404WAT      O34453   3.420   2.829   8.636
11404WAT     H134454   3.344   2.894   8.623
11404WAT     H234455   3.507   2.875   8.619
11405WAT      O34456   4.473   6.897   3.546
11405WAT     H134457   4.392   6.866   3.496
11405WAT     H234458   4.485   6.996   3.533
11406WAT      O34459   4.235   0.169   2.410
11406WAT     H134460   4.300   0.242   2.386
11406WAT     H234461   4.282   0.100   2.465
11407WAT      O34462   2.000   8.842   5.870
11407WAT     H134463   2.035   8.893   5.948
11407WAT     H234464   2.042   8.751   5.868
11408WAT      O34465   5.400   7.136   1.623
11408WAT     H134466   5.318   7.142   1.566
11408WAT     H234467   5.452   7.221   1.615
11409WAT      O34468   4.249   4.056   3.284
11409WAT     H134469   4.308   3.995   3.232
11409WAT     H234470   4.305   4.120   3.337
11410WAT      O34471   6.014   0.160   2.308
11410WAT     H134472   5.986   0.076   2.354
11410WAT     H234473   5.943   0.188   2.243
11411WAT      O34474   9.182   2.275   0.696
11411WAT     H134475   9.149   2.358   0.652
11411WAT     H234476   9.141   2.195   0.651
11412WAT      O34477   3.478   2.231   7.976
11412WAT     H134478   3.537   2.312   7.971
11412WAT     H234479   3.393   2.255   8.023
11413WAT      O34480   8.408   5.698   6.568
11413WAT     H134481   8.376   5.605   6.549
11413WAT     H234482   8.351   5.740   6.639
11414WAT      O34483   5.275   7.787   8.675
11414WAT     H134484   5.190   7.734   8.679
11414WAT     H234485   5.269   7.865   8.736
11415WAT      O34486   9.118   4.803   7.922
11415WAT     H134487   9.051   4.860   7.874
11415WAT     H234488   9.110   4.818   8.020
11416WAT      O34489   6.485   4.529   5.768
11416WAT     H134490   6.495   4.462   5.841
11416WAT     H234491   6.429   4.605   5.800
11417WAT      O34492   6.746   0.395   8.420
11417WAT     H134493   6.796   0.445   8.491
11417WAT     H234494   6.648   0.418   8.427
11418WAT      O34495   9.124   2.048   8.001
11418WAT     H134496   9.031   2.016   8.021
11418WAT     H234497   9.167   1.986   7.935
11419WAT      O34498   5.121   1.102   0.816
11419WAT     H134499   5.110   1.098   0.716
11419WAT     H234500   5.032   1.121   0.858
11420WAT      O34501   4.950   5.334   1.717
11420WAT     H134502   4.894   5.405   1.675
11420WAT     H234503   4.890   5.265   1.759
11421WAT      O34504   9.321   6.161   7.253
11421WAT     H134505   9.408   6.186   7.211
11421WAT     H234506   9.332   6.155   7.352
11422WAT      O34507   3.885   4.136   2.820
11422WAT     H134508   3.862   4.224   2.777
11422WAT     H234509   3.933   4.078   2.753
11423WAT      O34510   4.473   1.794   8.048
11423WAT     H134511   4.490   1.837   7.960
11423WAT     H234512   4.536   1.831   8.116
11424WAT      O34513   0.804   5.386   2.729
11424WAT     H134514   0.792   5.348   2.821
11424WAT     H234515   0.720   5.371   2.676
11425WAT      O34516   0.668   0.535   9.830
11425WAT     H134517   0.724   0.463   9.872
11425WAT     H234518   0.584   0.547   9.883
11426WAT      O34519   9.109   1.244   6.723
11426WAT     H134520   9.125   1.335   6.763
11426WAT     H234521   9.053   1.190   6.785
11427WAT      O34522   4.646   5.339   8.668
11427WAT     H134523   4.617   5.419   8.617
11427WAT     H234524   4.571   5.307   8.726
11428WAT      O34525   9.215   4.291   4.278
11428WAT     H134526   9.205   4.317   4.182
11428WAT     H234527   9.145   4.224   4.302
11429WAT      O34528   8.394   9.571   0.673
11429WAT     H134529   8.398   9.517   0.589
11429WAT     H234530   8.338   9.653   0.657
11430WAT      O34531   8.728   1.911   3.740
11430WAT     H134532   8.637   1.952   3.745
11430WAT     H234533   8.785   1.964   3.676
11431WAT      O34534   2.682   4.936   2.523
11431WAT     H134535   2.619   4.926   2.601
11431WAT     H234536   2.685   5.032   2.494
11432WAT      O34537   7.924   0.672   4.746
11432WAT     H134538   7.828   0.661   4.771
11432WAT     H234539   7.944   0.616   4.665
11433WAT      O34540   8.659   8.804   6.882
11433WAT     H134541   8.692   8.724   6.932
11433WAT     H234542   8.715   8.818   6.800
11434WAT      O34543   6.463   7.051   1.470
11434WAT     H134544   6.437   7.055   1.374
11434WAT     H234545   6.493   7.141   1.501
11435WAT      O34546   1.335   8.744   4.200
11435WAT     H134547   1.382   8.707   4.279
11435WAT     H234548   1.316   8.671   4.134
11436WAT      O34549   2.379   9.770   6.858
11436WAT     H134550   2.411   9.775   6.763
11436WAT     H234551   2.280   9.757   6.859
11437WAT      O34552   3.590   0.618   6.342
11437WAT     H134553   3.664   0.674   6.380
11437WAT     H234554   3.594   0.526   6.380
11438WAT      O34555   0.420   0.501   0.075
11438WAT     H134556   0.396   0.417   0.124
11438WAT     H234557   0.374   0.579   0.118
11439WAT      O34558   4.975   9.251   4.905
11439WAT     H134559   5.004   9.166   4.860
11439WAT     H234560   4.979   9.326   4.839
11440WAT      O34561   9.468   2.477   1.150
11440WAT     H134562   9.509   2.488   1.241
11440WAT     H234563   9.532   2.432   1.089
11441WAT      O34564   3.578   7.687   1.014
11441WAT     H134565   3.651   7.641   1.065
11441WAT     H234566   3.490   7.664   1.055
11442WAT      O34567   4.859   9.330   3.092
11442WAT     H134568   4.814   9.367   3.173
11442WAT     H234569   4.823   9.376   3.010
11443WAT      O34570   5.590   7.077   3.690
11443WAT     H134571   5.509   7.118   3.647
11443WAT     H234572   5.652   7.150   3.719
11444WAT      O34573   7.128   9.178   6.630
11444WAT     H134574   7.195   9.160   6.559
11444WAT     H234575   7.040   9.201   6.589
11445WAT      O34576   3.455   2.301   1.891
11445WAT     H134577   3.492   2.394   1.893
11445WAT     H234578   3.361   2.302   1.925
11446WAT      O34579   9.765   3.369   0.842
11446WAT     H134580   9.791   3.274   0.861
11446WAT     H234581   9.834   3.412   0.785
11447WAT      O34582   6.291   9.130   6.910
11447WAT     H134583   6.374   9.099   6.956
11447WAT     H234584   6.218   9.063   6.924
11448WAT      O34585   9.049   1.977   9.365
11448WAT     H134586   8.985   2.051   9.383
11448WAT     H234587   9.003   1.889   9.377
11449WAT      O34588   2.261   8.554   5.111
11449WAT     H134589   2.260   8.587   5.205
11449WAT     H234590   2.188   8.598   5.059
11450WAT      O34591   6.599   9.295   3.281
11450WAT     H134592   6.676   9.329   3.227
11450WAT     H234593   6.627   9.213   3.330
11451WAT      O34594   0.196   3.902   9.535
11451WAT     H134595   0.255   3.965   9.585
11451WAT     H234596   0.102   3.910   9.568
11452WAT      O34597   1.718   3.406   5.110
11452WAT     H134598   1.686   3.467   5.038
11452WAT     H234599   1.806   3.439   5.144
11453WAT      O34600   4.278   1.224   5.113
11453WAT     H134601   4.204   1.289   5.094
11453WAT     H234602   4.341   1.264   5.180
11454WAT      O34603   2.103   8.371   2.154
11454WAT     H134604   2.138   8.356   2.247
11454WAT     H234605   2.171   8.421   2.100
11455WAT      O34606   5.627   8.620   7.618
11455WAT     H134607   5.700   8.559   7.588
11455WAT     H234608   5.648   8.714   7.587
11456WAT      O34609   8.251   6.895   7.655
11456WAT     H134610   8.152   6.910   7.654
11456WAT     H234611   8.285   6.898   7.561
11457WAT      O34612   4.741   0.151   5.978
11457WAT     H134613   4.789   0.082   6.032
11457WAT     H234614   4.643   0.133   5.980
11458WAT      O34615   5.826   5.558   2.578
11458WAT     H134616   5.840   5.464   2.612
11458WAT     H234617   5.734   5.565   2.539
11459WAT      O34618   0.241   4.117   0.340
11459WAT     H134619   0.227   4.071   0.253
11459WAT     H234620   0.315   4.185   0.330
11460WAT      O34621   6.534   7.109   8.180
11460WAT     H134622   6.549   7.105   8.279
11460WAT     H234623   6.493   7.024   8.148
11461WAT      O34624   8.417   6.586   8.057
11461WAT     H134625   8.431   6.644   7.977
11461WAT     H234626   8.505   6.544   8.083
11462WAT      O34627   0.793   5.027   9.863
11462WAT     H134628   0.820   5.001   9.770
11462WAT     H234629   0.771   5.125   9.865
11463WAT      O34630   7.535   3.154   8.983
11463WAT     H134631   7.545   3.252   8.964
11463WAT     H234632   7.617   3.121   9.029
11464WAT      O34633   3.883   4.941   9.386
11464WAT     H134634   3.936   4.872   9.336
11464WAT     H234635   3.894   5.030   9.342
11465WAT      O34636   2.006   8.165   0.749
11465WAT     H134637   2.060   8.214   0.681
11465WAT     H234638   1.975   8.229   0.819
11466WAT      O34639   1.544   8.438   6.209
11466WAT     H134640   1.485   8.362   6.183
11466WAT     H234641   1.585   8.419   6.299
11467WAT      O34642   3.576   7.989   5.057
11467WAT     H134643   3.537   8.071   5.015
11467WAT     H234644   3.502   7.930   5.090
11468WAT      O34645   9.512   7.106   2.010
11468WAT     H134646   9.530   7.011   2.035
11468WAT     H234647   9.539   7.121   1.915
11469WAT      O34648   5.493   1.435   5.441
11469WAT     H134649   5.496   1.362   5.373
11469WAT     H234650   5.429   1.506   5.412
11470WAT      O34651   1.380   9.088   0.335
11470WAT     H134652   1.294   9.045   0.363
11470WAT     H234653   1.409   9.049   0.247
11471WAT      O34654   8.113   7.642   5.172
11471WAT     H134655   8.102   7.547   5.199
11471WAT     H234656   8.211   7.664   5.167
11472WAT      O34657   9.350   8.367   7.772
11472WAT     H134658   9.292   8.407   7.843
11472WAT     H234659   9.412   8.301   7.814
11473WAT      O34660   4.041   3.767   7.952
11473WAT     H134661   4.025   3.709   8.032
11473WAT     H234662   4.076   3.856   7.982
11474WAT      O34663   5.496   5.599   1.294
11474WAT     H134664   5.553   5.532   1.246
11474WAT     H234665   5.519   5.691   1.263
11475WAT      O34666   2.491   1.902   9.213
11475WAT     H134667   2.393   1.883   9.217
11475WAT     H234668   2.542   1.820   9.240
11476WAT      O34669   3.297   7.695   6.101
11476WAT     H134670   3.238   7.705   6.020
11476WAT     H234671   3.298   7.599   6.129
11477WAT      O34672   7.542   5.899   6.463
11477WAT     H134673   7.457   5.907   6.516
11477WAT     H234674   7.586   5.811   6.484
11478WAT      O34675   3.721   2.721   1.773
11478WAT     H134676   3.672   2.757   1.694
11478WAT     H234677   3.787   2.652   1.743
11479WAT      O34678   4.252   3.873   2.668
11479WAT     H134679   4.330   3.920   2.626
11479WAT     H234680   4.243   3.902   2.763
11480WAT      O34681   8.505   9.433   9.526
11480WAT     H134682   8.432   9.395   9.469
11480WAT     H234683   8.591   9.431   9.475
11481WAT      O34684   2.179   6.849   0.233
11481WAT     H134685   2.099   6.792   0.213
11481WAT     H234686   2.191   6.917   0.160
11482WAT      O34687   5.126   0.467   1.402
11482WAT     H134688   5.182   0.524   1.463
11482WAT     H234689   5.150   0.485   1.307
11483WAT      O34690   1.003   7.964   0.594
11483WAT     H134691   0.919   8.017   0.583
11483WAT     H234692   0.985   7.868   0.572
11484WAT      O34693   0.559   3.987   7.726
11484WAT     H134694   0.574   3.989   7.628
11484WAT     H234695   0.598   3.903   7.764
11485WAT      O34696   1.653   8.073   3.378
11485WAT     H134697   1.721   8.124   3.431
11485WAT     H234698   1.599   8.137   3.323
11486WAT      O34699   0.003   7.736   9.234
11486WAT     H134700  -0.022   7.799   9.160
11486WAT     H234701   0.089   7.690   9.210
11487WAT      O34702   0.213   5.962   2.053
11487WAT     H134703   0.181   5.936   1.962
11487WAT     H234704   0.304   5.925   2.069
11488WAT      O34705   3.819   6.792   3.677
11488WAT     H134706   3.907   6.801   3.724
11488WAT     H234707   3.821   6.845   3.592
11489WAT      O34708   4.162   4.464   0.736
11489WAT     H134709   4.147   4.457   0.637
11489WAT     H234710   4.081   4.505   0.778
11490WAT      O34711   6.753   0.413   2.582
11490WAT     H134712   6.809   0.494   2.565
11490WAT     H234713   6.662   0.440   2.612
11491WAT      O34714   3.255   3.823   5.181
11491WAT     H134715   3.274   3.806   5.084
11491WAT     H234716   3.335   3.798   5.235
11492WAT      O34717   0.866   6.167   9.844
11492WAT     H134718   0.895   6.227   9.769
11492WAT     H234719   0.857   6.073   9.811
11493WAT      O34720   7.402   5.984   0.471
11493WAT     H134721   7.447   6.072   0.454
11493WAT     H234722   7.305   6.000   0.491
11494WAT      O34723   7.611   5.308   2.769
11494WAT     H134724   7.579   5.297   2.863
11494WAT     H234725   7.695   5.255   2.756
11495WAT      O34726   3.204   2.256   2.033
11495WAT     H134727   3.173   2.170   2.072
11495WAT     H234728   3.163   2.332   2.084
11496WAT      O34729   0.347   4.423   0.894
11496WAT     H134730   0.433   4.373   0.890
11496WAT     H234731   0.355   4.499   0.958
11497WAT      O34732   2.724   0.833   3.001
11497WAT     H134733   2.641   0.885   3.023
11497WAT     H234734   2.747   0.846   2.905
11498WAT      O34735   0.663   6.819   1.558
11498WAT     H134736   0.580   6.864   1.525
11498WAT     H234737   0.723   6.798   1.481
11499WAT      O34738   7.888   2.689   2.562
11499WAT     H134739   7.840   2.738   2.635
11499WAT     H234740   7.963   2.637   2.601
11500WAT      O34741   6.877   0.236   1.967
11500WAT     H134742   6.917   0.246   2.058
11500WAT     H234743   6.778   0.237   1.974
11501WAT      O34744   7.266   2.070   7.865
11501WAT     H134745   7.277   1.984   7.816
11501WAT     H234746   7.214   2.135   7.810
11502WAT      O34747   6.342   9.628   8.344
11502WAT     H134748   6.391   9.600   8.426
11502WAT     H234749   6.293   9.550   8.306
11503WAT      O34750   8.234   6.402   8.110
11503WAT     H134751   8.163   6.411   8.040
11503WAT     H234752   8.314   6.455   8.084
11504WAT      O34753   1.385   7.139   6.716
11504WAT     H134754   1.395   7.234   6.745
11504WAT     H234755   1.393   7.133   6.616
11505WAT      O34756   8.595   5.104   9.717
11505WAT     H134757   8.645   5.151   9.645
11505WAT     H234758   8.517   5.056   9.677
11506WAT      O34759   4.018   8.365   4.506
11506WAT     H134760   3.920   8.345   4.504
11506WAT     H234761   4.069   8.282   4.529
11507WAT      O34762   2.456   2.080   0.134
11507WAT     H134763   2.546   2.117   0.111
11507WAT     H234764   2.385   2.139   0.096
11508WAT      O34765   2.542   5.753   5.514
11508WAT     H134766   2.493   5.807   5.446
11508WAT     H234767   2.561   5.810   5.594
11509WAT      O34768   6.745   3.211   9.513
11509WAT     H134769   6.771   3.124   9.472
11509WAT     H234770   6.650   3.232   9.489
11510WAT      O34771   1.451   4.943   9.447
11510WAT     H134772   1.505   4.889   9.383
11510WAT     H234773   1.371   4.891   9.476
11511WAT      O34774   0.632   1.443   5.014
11511WAT     H134775   0.568   1.400   4.949
11511WAT     H234776   0.718   1.462   4.968
11512WAT      O34777   6.059   0.348   1.239
11512WAT     H134778   6.079   0.315   1.331
11512WAT     H234779   6.099   0.287   1.171
11513WAT      O34780   8.890   0.283   7.552
11513WAT     H134781   8.962   0.350   7.533
11513WAT     H234782   8.809   0.305   7.497
11514WAT      O34783   0.806   3.655   6.276
11514WAT     H134784   0.837   3.639   6.370
11514WAT     H234785   0.778   3.568   6.235
11515WAT      O34786   6.556   6.125   3.898
11515WAT     H134787   6.470   6.138   3.848
11515WAT     H234788   6.562   6.193   3.971
11516WAT      O34789   8.261   9.588   8.558
11516WAT     H134790   8.244   9.525   8.482
11516WAT     H234791   8.332   9.550   8.618
11517WAT      O34792   1.039   9.629   2.582
11517WAT     H134793   1.100   9.551   2.598
11517WAT     H234794   1.076   9.686   2.508
11518WAT      O34795   2.658   9.180   2.700
11518WAT     H134796   2.671   9.200   2.797
11518WAT     H234797   2.738   9.131   2.665
11519WAT      O34798   6.286   8.401   2.132
11519WAT     H134799   6.368   8.452   2.157
11519WAT     H234800   6.212   8.464   2.110
11520WAT      O34801   8.482   5.277   9.289
11520WAT     H134802   8.423   5.266   9.210
11520WAT     H234803   8.427   5.281   9.372
11521WAT      O34804   8.277   1.192   1.610
11521WAT     H134805   8.276   1.290   1.625
11521WAT     H234806   8.303   1.173   1.515
11522WAT      O34807   6.233   1.217   9.298
11522WAT     H134808   6.312   1.277   9.291
11522WAT     H234809   6.244   1.155   9.376
11523WAT      O34810   3.798   9.808   2.172
11523WAT     H134811   3.699   9.818   2.171
11523WAT     H234812   3.830   9.781   2.081
11524WAT      O34813   6.726   0.805   5.301
11524WAT     H134814   6.725   0.851   5.390
11524WAT     H234815   6.796   0.846   5.243
11525WAT      O34816   5.684   8.371   8.877
11525WAT     H134817   5.661   8.318   8.959
11525WAT     H234818   5.719   8.309   8.806
11526WAT      O34819   1.415   3.135   9.333
11526WAT     H134820   1.350   3.158   9.406
11526WAT     H234821   1.415   3.037   9.318
11527WAT      O34822   3.856   2.065   4.505
11527WAT     H134823   3.799   2.145   4.524
11527WAT     H234824   3.832   2.028   4.415
11528WAT      O34825   0.193   6.284   2.689
11528WAT     H134826   0.270   6.281   2.753
11528WAT     H234827   0.132   6.359   2.713
11529WAT      O34828   5.623   1.643   6.748
11529WAT     H134829   5.568   1.674   6.826
11529WAT     H234830   5.637   1.544   6.755
11530WAT      O34831   8.027   8.308   2.589
11530WAT     H134832   8.047   8.353   2.503
11530WAT     H234833   7.995   8.215   2.572
11531WAT      O34834   2.059   5.967   2.306
11531WAT     H134835   2.061   5.886   2.364
11531WAT     H234836   2.111   5.950   2.223
11532WAT      O34837   3.209   2.060   2.363
11532WAT     H134838   3.159   1.985   2.320
11532WAT     H234839   3.305   2.057   2.335
11533WAT      O34840   8.041   7.874   0.522
11533WAT     H134841   7.991   7.788   0.508
11533WAT     H234842   8.117   7.858   0.584
11534WAT      O34843   8.259   6.084   1.121
11534WAT     H134844   8.250   6.126   1.031
11534WAT     H234845   8.220   6.144   1.191
11535WAT      O34846   3.370   3.439   7.389
11535WAT     H134847   3.302   3.434   7.315
11535WAT     H234848   3.374   3.533   7.424
11536WAT      O34849   1.325   3.581   1.646
11536WAT     H134850   1.404   3.569   1.707
11536WAT     H234851   1.290   3.674   1.657
11537WAT      O34852   9.777   0.346   3.577
11537WAT     H134853   9.697   0.405   3.568
11537WAT     H234854   9.765   0.264   3.521
11538WAT      O34855   1.831   1.335   9.060
11538WAT     H134856   1.804   1.411   9.119
11538WAT     H234857   1.795   1.249   9.098
11539WAT      O34858   8.091   0.041   3.273
11539WAT     H134859   8.173   0.032   3.217
11539WAT     H234860   8.080  -0.042   3.329
11540WAT      O34861   6.216   3.099   9.546
11540WAT     H134862   6.267   3.014   9.559
11540WAT     H234863   6.169   3.123   9.631
11541WAT      O34864   2.481   3.748   6.633
11541WAT     H134865   2.504   3.787   6.722
11541WAT     H234866   2.384   3.725   6.631
11542WAT      O34867   1.372   1.589   2.894
11542WAT     H134868   1.436   1.665   2.885
11542WAT     H234869   1.416   1.515   2.944
11543WAT      O34870   5.076   9.171   6.504
11543WAT     H134871   5.112   9.141   6.592
11543WAT     H234872   5.108   9.264   6.486
11544WAT      O34873   4.504   6.181   3.458
11544WAT     H134874   4.447   6.246   3.510
11544WAT     H234875   4.477   6.183   3.362
11545WAT      O34876   2.664   8.774   9.066
11545WAT     H134877   2.712   8.785   8.979
11545WAT     H234878   2.672   8.680   9.097
11546WAT      O34879   3.711   3.268   0.287
11546WAT     H134880   3.721   3.348   0.228
11546WAT     H234881   3.779   3.199   0.261
11547WAT      O34882   9.860   0.473   0.618
11547WAT     H134883   9.937   0.477   0.682
11547WAT     H234884   9.894   0.447   0.527
11548WAT      O34885   1.746   5.460   6.384
11548WAT     H134886   1.844   5.469   6.363
11548WAT     H234887   1.728   5.369   6.421
11549WAT      O34888   5.473   0.442   6.431
11549WAT     H134889   5.396   0.485   6.384
11549WAT     H234890   5.519   0.510   6.488
11550WAT      O34891   7.021   7.873   3.442
11550WAT     H134892   7.039   7.871   3.343
11550WAT     H234893   7.017   7.780   3.477
11551WAT      O34894   6.370   5.686   4.306
11551WAT     H134895   6.287   5.739   4.287
11551WAT     H234896   6.435   5.743   4.356
11552WAT      O34897   2.877   7.332   6.610
11552WAT     H134898   2.941   7.330   6.686
11552WAT     H234899   2.909   7.397   6.541
11553WAT      O34900   6.054   3.883   6.931
11553WAT     H134901   6.140   3.868   6.882
11553WAT     H234902   6.074   3.901   7.028
11554WAT      O34903   3.644   6.413   3.113
11554WAT     H134904   3.738   6.432   3.086
11554WAT     H234905   3.635   6.419   3.212
11555WAT      O34906   4.469   6.994   3.179
11555WAT     H134907   4.468   6.924   3.107
11555WAT     H234908   4.513   7.077   3.144
11556WAT      O34909   5.559   0.595   7.615
11556WAT     H134910   5.658   0.608   7.621
11556WAT     H234911   5.517   0.675   7.574
11557WAT      O34912   5.457   1.117   2.274
11557WAT     H134913   5.492   1.030   2.239
11557WAT     H234914   5.453   1.113   2.374
11558WAT      O34915   1.479   7.581   3.237
11558WAT     H134916   1.517   7.662   3.281
11558WAT     H234917   1.553   7.523   3.205
11559WAT      O34918   5.725   5.481   0.523
11559WAT     H134919   5.811   5.516   0.559
11559WAT     H234920   5.670   5.444   0.597
11560WAT      O34921   0.642   5.308   6.026
11560WAT     H134922   0.613   5.362   5.948
11560WAT     H234923   0.574   5.314   6.099
11561WAT      O34924   2.658   4.621   2.661
11561WAT     H134925   2.709   4.701   2.630
11561WAT     H234926   2.705   4.578   2.738
11562WAT      O34927   7.283   8.049   0.395
11562WAT     H134928   7.363   8.029   0.339
11562WAT     H234929   7.300   8.018   0.489
11563WAT      O34930   3.023   1.065   7.666
11563WAT     H134931   2.968   1.040   7.746
11563WAT     H234932   3.057   1.159   7.677
11564WAT      O34933   9.736   3.096   4.252
11564WAT     H134934   9.821   3.093   4.199
11564WAT     H234935   9.676   3.021   4.222
11565WAT      O34936   5.792   1.342   5.212
11565WAT     H134937   5.786   1.251   5.254
11565WAT     H234938   5.879   1.349   5.163
11566WAT      O34939   0.780   8.047   5.060
11566WAT     H134940   0.872   8.013   5.042
11566WAT     H234941   0.713   7.989   5.015
11567WAT      O34942   5.935   3.495   5.754
11567WAT     H134943   6.005   3.519   5.686
11567WAT     H234944   5.927   3.396   5.758
11568WAT      O34945   7.634   0.640   4.756
11568WAT     H134946   7.574   0.653   4.677
11568WAT     H234947   7.590   0.677   4.838
11569WAT      O34948   9.870   6.006   0.374
11569WAT     H134949   9.812   6.084   0.350
11569WAT     H234950   9.958   6.015   0.327
11570WAT      O34951   5.847   7.429   4.288
11570WAT     H134952   5.853   7.526   4.266
11570WAT     H234953   5.756   7.409   4.325
11571WAT      O34954   6.928   7.728   8.466
11571WAT     H134955   6.919   7.741   8.565
11571WAT     H234956   7.008   7.778   8.433
11572WAT      O34957   7.546   7.029   3.331
11572WAT     H134958   7.628   7.001   3.281
11572WAT     H234959   7.553   7.126   3.354
11573WAT      O34960   6.791   2.141   3.840
11573WAT     H134961   6.784   2.078   3.918
11573WAT     H234962   6.796   2.235   3.874
11574WAT      O34963   8.087   5.935   3.852
11574WAT     H134964   8.136   5.869   3.908
11574WAT     H234965   8.151   5.985   3.793
11575WAT      O34966   7.529   2.464   1.597
11575WAT     H134967   7.620   2.506   1.602
11575WAT     H234968   7.463   2.533   1.567
11576WAT      O34969   7.668   0.182   2.453
11576WAT     H134970   7.762   0.149   2.454
11576WAT     H234971   7.667   0.282   2.454
11577WAT      O34972   8.995   8.288   9.723
11577WAT     H134973   9.088   8.252   9.714
11577WAT     H234974   8.947   8.279   9.636
11578WAT      O34975   8.403   7.479   0.933
11578WAT     H134976   8.457   7.551   0.977
11578WAT     H234977   8.431   7.470   0.838
11579WAT      O34978   4.101   2.592   1.277
11579WAT     H134979   4.073   2.524   1.209
11579WAT     H234980   4.172   2.553   1.336
11580WAT      O34981   0.878   2.518   4.246
11580WAT     H134982   0.871   2.479   4.155
11580WAT     H234983   0.910   2.612   4.240
11581WAT      O34984   9.749   8.537   5.591
11581WAT     H134985   9.822   8.600   5.564
11581WAT     H234986   9.660   8.581   5.574
11582WAT      O34987   2.276   5.389   7.491
11582WAT     H134988   2.330   5.360   7.412
11582WAT     H234989   2.283   5.320   7.563
11583WAT      O34990   8.246   6.745   6.841
11583WAT     H134991   8.305   6.670   6.812
11583WAT     H234992   8.192   6.716   6.920
11584WAT      O34993   3.729   3.664   0.387
11584WAT     H134994   3.759   3.599   0.456
11584WAT     H234995   3.746   3.626   0.296
11585WAT      O34996   1.903   9.836   2.096
11585WAT     H134997   1.967   9.807   2.167
11585WAT     H234998   1.828   9.887   2.137
11586WAT      O34999   0.023   1.188   0.240
11586WAT     H135000   0.103   1.235   0.277
11586WAT     H235001   0.048   1.145   0.153
11587WAT      O35002   1.975   1.364   5.100
11587WAT     H135003   1.953   1.290   5.163
11587WAT     H235004   2.048   1.334   5.037
11588WAT      O35005   8.944   0.528   0.634
11588WAT     H135006   8.968   0.624   0.650
11588WAT     H235007   8.845   0.517   0.638
11589WAT      O35008   8.569   7.885   4.533
11589WAT     H135009   8.666   7.891   4.554
11589WAT     H235010   8.555   7.907   4.436
11590WAT      O35011   2.907   0.708   0.645
11590WAT     H135012   2.993   0.658   0.658
11590WAT     H235013   2.840   0.677   0.713
11591WAT      O35014   5.313   3.264   6.275
11591WAT     H135015   5.236   3.228   6.222
11591WAT     H235016   5.366   3.189   6.313
11592WAT      O35017   0.989   4.491   6.194
11592WAT     H135018   0.966   4.446   6.280
11592WAT     H235019   0.929   4.459   6.122
11593WAT      O35020   5.909   8.952   3.958
11593WAT     H135021   5.979   8.894   3.998
11593WAT     H235022   5.866   8.904   3.881
11594WAT      O35023   6.190   4.864   5.182
11594WAT     H135024   6.265   4.825   5.235
11594WAT     H235025   6.227   4.931   5.117
11595WAT      O35026   8.957   6.815   2.707
11595WAT     H135027   9.025   6.743   2.691
11595WAT     H235028   8.885   6.807   2.639
11596WAT      O35029   8.500   9.137   3.481
11596WAT     H135030   8.565   9.197   3.528
11596WAT     H235031   8.441   9.092   3.548
11597WAT      O35032   1.383   5.001   8.215
11597WAT     H135033   1.441   4.968   8.140
11597WAT     H235034   1.429   5.076   8.261
11598WAT      O35035   8.914   1.464   7.584
11598WAT     H135036   8.859   1.402   7.527
11598WAT     H235037   8.854   1.512   7.647
11599WAT      O35038   7.523   4.079   1.311
11599WAT     H135039   7.614   4.048   1.282
11599WAT     H235040   7.504   4.046   1.404
11600WAT      O35041   9.564   2.075   9.103
11600WAT     H135042   9.511   1.994   9.075
11600WAT     H235043   9.610   2.113   9.024
11601WAT      O35044   8.213   6.925   6.072
11601WAT     H135045   8.219   7.024   6.063
11601WAT     H235046   8.183   6.885   5.986
11602WAT      O35047   9.573   9.479   8.479
11602WAT     H135048   9.556   9.488   8.381
11602WAT     H235049   9.670   9.491   8.498
11603WAT      O35050   3.009   1.676   7.083
11603WAT     H135051   3.077   1.649   7.151
11603WAT     H235052   3.003   1.606   7.012
11604WAT      O35053   4.422   2.036   5.007
11604WAT     H135054   4.396   2.128   5.037
11604WAT     H235055   4.397   2.024   4.911
11605WAT      O35056   6.827   1.676   8.452
11605WAT     H135057   6.763   1.730   8.507
11605WAT     H235058   6.887   1.624   8.512
11606WAT      O35059   8.276   3.097   4.031
11606WAT     H135060   8.210   3.124   3.961
11606WAT     H235061   8.229   3.074   4.116
11607WAT      O35062   4.095   9.190   1.015
11607WAT     H135063   4.145   9.107   1.036
11607WAT     H235064   4.097   9.252   1.094
11608WAT      O35065   8.973   8.097   3.973
11608WAT     H135066   9.070   8.109   3.993
11608WAT     H235067   8.954   8.128   3.880
11609WAT      O35068   6.779   5.267   3.506
11609WAT     H135069   6.829   5.327   3.445
11609WAT     H235070   6.681   5.286   3.499
11610WAT      O35071   5.910   2.399   6.741
11610WAT     H135072   5.917   2.498   6.756
11610WAT     H235073   5.995   2.365   6.701
11611WAT      O35074   5.842   7.674   0.308
11611WAT     H135075   5.902   7.626   0.373
11611WAT     H235076   5.785   7.607   0.261
11612WAT      O35077   1.575   1.012   0.590
11612WAT     H135078   1.627   1.096   0.575
11612WAT     H235079   1.480   1.026   0.564
11613WAT      O35080   8.206   5.862   7.831
11613WAT     H135081   8.261   5.781   7.811
11613WAT     H235082   8.261   5.944   7.816
11614WAT      O35083   5.499   4.419   0.055
11614WAT     H135084   5.406   4.396   0.026
11614WAT     H235085   5.509   4.399   0.152
11615WAT      O35086   8.108   3.579   2.153
11615WAT     H135087   8.198   3.555   2.191
11615WAT     H235088   8.039   3.575   2.225
11616WAT      O35089   8.794   5.187   3.039
11616WAT     H135090   8.768   5.102   2.994
11616WAT     H235091   8.872   5.172   3.099
11617WAT      O35092   6.096   4.804   7.015
11617WAT     H135093   6.124   4.868   7.086
11617WAT     H235094   6.101   4.848   6.926
11618WAT      O35095   0.965   4.864   6.031
11618WAT     H135096   0.978   4.950   5.983
11618WAT     H235097   0.962   4.881   6.130
11619WAT      O35098   0.221   8.981   5.116
11619WAT     H135099   0.241   9.066   5.066
11619WAT     H235100   0.302   8.953   5.168
11620WAT      O35101   6.091   0.434   4.084
11620WAT     H135102   6.040   0.447   4.000
11620WAT     H235103   6.029   0.405   4.157
11621WAT      O35104   7.648   7.376   5.799
11621WAT     H135105   7.699   7.380   5.713
11621WAT     H235106   7.556   7.412   5.785
11622WAT      O35107   7.620   4.662   6.393
11622WAT     H135108   7.552   4.591   6.411
11622WAT     H235109   7.640   4.711   6.478
11623WAT      O35110   3.623   9.084   9.765
11623WAT     H135111   3.710   9.132   9.779
11623WAT     H235112   3.582   9.063   9.854
11624WAT      O35113   0.447   1.822   7.954
11624WAT     H135114   0.481   1.767   7.878
11624WAT     H235115   0.366   1.873   7.925
11625WAT      O35116   8.512   2.416   8.667
11625WAT     H135117   8.519   2.471   8.584
11625WAT     H235118   8.423   2.433   8.711
11626WAT      O35119   8.904   8.133   1.480
11626WAT     H135120   8.829   8.118   1.415
11626WAT     H235121   8.866   8.151   1.571
11627WAT      O35122   5.057   5.016   3.354
11627WAT     H135123   5.006   5.102   3.354
11627WAT     H235124   5.076   4.988   3.260
11628WAT      O35125   0.280   9.670   2.760
11628WAT     H135126   0.224   9.726   2.698
11628WAT     H235127   0.328   9.730   2.824
11629WAT      O35128   3.431   8.283   7.233
11629WAT     H135129   3.468   8.282   7.141
11629WAT     H235130   3.334   8.259   7.231
11630WAT      O35131   7.354   1.969   1.163
11630WAT     H135132   7.422   2.011   1.223
11630WAT     H235133   7.292   1.912   1.216
11631WAT      O35134   6.930   4.836   8.367
11631WAT     H135135   7.014   4.890   8.368
11631WAT     H235136   6.851   4.897   8.367
11632WAT      O35137   2.999   6.068   2.126
11632WAT     H135138   3.081   6.061   2.068
11632WAT     H235139   3.026   6.057   2.222
11633WAT      O35140   2.144   6.975   8.628
11633WAT     H135141   2.183   6.908   8.692
11633WAT     H235142   2.101   6.927   8.552
11634WAT      O35143   0.271   0.514   5.802
11634WAT     H135144   0.308   0.595   5.756
11634WAT     H235145   0.273   0.527   5.901
11635WAT      O35146   3.061   6.755   3.846
11635WAT     H135147   3.124   6.680   3.830
11635WAT     H235148   2.994   6.728   3.915
11636WAT      O35149   3.018   1.806   3.630
11636WAT     H135150   3.088   1.861   3.585
11636WAT     H235151   2.986   1.734   3.568
11637WAT      O35152   8.583   8.069   2.395
11637WAT     H135153   8.584   8.035   2.489
11637WAT     H235154   8.489   8.067   2.360
11638WAT      O35155   4.424   4.102   6.460
11638WAT     H135156   4.335   4.113   6.504
11638WAT     H235157   4.465   4.191   6.444
11639WAT      O35158   7.825   5.987   8.691
11639WAT     H135159   7.800   6.028   8.778
11639WAT     H235160   7.868   6.056   8.632
11640WAT      O35161   0.266   9.603   1.551
11640WAT     H135162   0.326   9.605   1.471
11640WAT     H235163   0.183   9.655   1.532
11641WAT      O35164   9.153   2.487   4.506
11641WAT     H135165   9.206   2.564   4.540
11641WAT     H235166   9.215   2.418   4.467
11642WAT      O35167   5.266   9.722   2.882
11642WAT     H135168   5.309   9.723   2.972
11642WAT     H235169   5.286   9.808   2.834
11643WAT      O35170   6.202   7.489   0.656
11643WAT     H135171   6.193   7.456   0.750
11643WAT     H235172   6.288   7.455   0.617
11644WAT      O35173   2.363   5.628   7.204
11644WAT     H135174   2.330   5.613   7.110
11644WAT     H235175   2.455   5.590   7.213
11645WAT      O35176   0.854   1.127   0.329
11645WAT     H135177   0.922   1.123   0.402
11645WAT     H235178   0.779   1.064   0.350
11646WAT      O35179   6.388   3.965   4.621
11646WAT     H135180   6.340   4.008   4.545
11646WAT     H235181   6.486   3.984   4.615
11647WAT      O35182   3.674   2.146   0.457
11647WAT     H135183   3.703   2.182   0.368
11647WAT     H235184   3.575   2.139   0.460
11648WAT      O35185   8.172   9.574   7.103
11648WAT     H135186   8.120   9.578   7.018
11648WAT     H235187   8.119   9.526   7.172
11649WAT      O35188   1.125   6.437   2.222
11649WAT     H135189   1.219   6.441   2.257
11649WAT     H235190   1.061   6.444   2.299
11650WAT      O35191   3.320   8.517   5.541
11650WAT     H135192   3.400   8.566   5.576
11650WAT     H235193   3.241   8.539   5.599
11651WAT      O35194   0.305   8.766   2.773
11651WAT     H135195   0.391   8.811   2.749
11651WAT     H235196   0.300   8.677   2.727
11652WAT      O35197   8.589   4.343   3.833
11652WAT     H135198   8.543   4.393   3.760
11652WAT     H235199   8.539   4.357   3.919
11653WAT      O35200   8.774   9.158   4.443
11653WAT     H135201   8.837   9.178   4.368
11653WAT     H235202   8.770   9.236   4.505
11654WAT      O35203   7.234   1.187   9.812
11654WAT     H135204   7.253   1.124   9.737
11654WAT     H235205   7.291   1.269   9.803
11655WAT      O35206   0.701   4.250   5.898
11655WAT     H135207   0.751   4.164   5.899
11655WAT     H235208   0.735   4.307   5.823
11656WAT      O35209   6.574   3.780   4.794
11656WAT     H135210   6.569   3.871   4.754
11656WAT     H235211   6.574   3.787   4.894
11657WAT      O35212   1.772   9.496   6.754
11657WAT     H135213   1.720   9.428   6.702
11657WAT     H235214   1.717   9.579   6.765
11658WAT      O35215   0.936   4.244   8.389
11658WAT     H135216   0.998   4.311   8.429
11658WAT     H235217   0.971   4.214   8.300
11659WAT      O35218   0.952   3.508   9.282
11659WAT     H135219   0.884   3.481   9.214
11659WAT     H235220   0.955   3.608   9.288
11660WAT      O35221   4.218   3.028   7.000
11660WAT     H135222   4.133   3.003   7.046
11660WAT     H235223   4.296   2.988   7.048
11661WAT      O35224   0.611   8.978   6.993
11661WAT     H135225   0.569   8.888   6.989
11661WAT     H235226   0.650   8.992   7.085
11662WAT      O35227   2.128   5.525   3.086
11662WAT     H135228   2.221   5.546   3.055
11662WAT     H235229   2.132   5.463   3.164
11663WAT      O35230  -0.000   7.121   1.468
11663WAT     H135231   0.087   7.071   1.469
11663WAT     H235232  -0.033   7.128   1.374
11664WAT      O35233   6.902   9.716   7.562
11664WAT     H135234   6.919   9.678   7.472
11664WAT     H235235   6.806   9.700   7.588
11665WAT      O35236   0.010   4.360   8.382
11665WAT     H135237   0.096   4.410   8.373
11665WAT     H235238   0.015   4.300   8.462
11666WAT      O35239   5.724   5.636   7.728
11666WAT     H135240   5.814   5.666   7.697
11666WAT     H235241   5.732   5.598   7.821
11667WAT      O35242   7.105   1.800   6.713
11667WAT     H135243   7.117   1.766   6.619
11667WAT     H235244   7.156   1.885   6.724
11668WAT      O35245   6.130   6.925   0.164
11668WAT     H135246   6.092   6.984   0.235
11668WAT     H235247   6.191   6.857   0.206
11669WAT      O35248   4.525   3.418   3.119
11669WAT     H135249   4.433   3.454   3.105
11669WAT     H235250   4.521   3.340   3.181
11670WAT      O35251   8.198   1.934   0.762
11670WAT     H135252   8.227   2.030   0.763
11670WAT     H235253   8.248   1.885   0.690
11671WAT      O35254   5.015   0.179   3.808
11671WAT     H135255   5.018   0.275   3.778
11671WAT     H235256   4.932   0.164   3.862
11672WAT      O35257   9.389   7.351   3.379
11672WAT     H135258   9.300   7.345   3.333
11672WAT     H235259   9.453   7.288   3.335
11673WAT      O35260   1.856   2.818   8.712
11673WAT     H135261   1.759   2.839   8.728
11673WAT     H235262   1.865   2.724   8.679
11674WAT      O35263   3.263   8.845   8.676
11674WAT     H135264   3.350   8.851   8.628
11674WAT     H235265   3.194   8.898   8.626
11675WAT      O35266   1.138   0.928   9.107
11675WAT     H135267   1.219   0.875   9.132
11675WAT     H235268   1.056   0.882   9.140
11676WAT      O35269   8.419   2.752   4.595
11676WAT     H135270   8.512   2.722   4.574
11676WAT     H235271   8.410   2.770   4.693
11677WAT      O35272   3.911   3.479   6.675
11677WAT     H135273   3.911   3.510   6.580
11677WAT     H235274   4.001   3.443   6.699
11678WAT      O35275   9.147   6.052   1.210
11678WAT     H135276   9.061   6.003   1.196
11678WAT     H235277   9.194   6.061   1.122
11679WAT      O35278   5.029   3.086   4.682
11679WAT     H135279   5.029   3.130   4.592
11679WAT     H235280   4.940   3.101   4.726
11680WAT      O35281   0.289   4.187   2.563
11680WAT     H135282   0.284   4.281   2.529
11680WAT     H235283   0.204   4.163   2.610
11681WAT      O35284   2.659   9.223   2.410
11681WAT     H135285   2.730   9.291   2.394
11681WAT     H235286   2.646   9.211   2.509
11682WAT      O35287   7.751   1.117   9.385
11682WAT     H135288   7.766   1.125   9.286
11682WAT     H235289   7.785   1.199   9.430
11683WAT      O35290   7.253   4.583   6.085
11683WAT     H135291   7.172   4.535   6.049
11683WAT     H235292   7.260   4.566   6.183
11684WAT      O35293   2.798   3.595   7.967
11684WAT     H135294   2.743   3.604   7.883
11684WAT     H235295   2.824   3.499   7.979
11685WAT      O35296   7.527   3.538   0.510
11685WAT     H135297   7.521   3.542   0.609
11685WAT     H235298   7.613   3.494   0.483
11686WAT      O35299   3.595   0.822   4.510
11686WAT     H135300   3.512   0.878   4.518
11686WAT     H235301   3.657   0.844   4.584
11687WAT      O35302   4.828   4.527   2.385
11687WAT     H135303   4.783   4.448   2.428
11687WAT     H235304   4.763   4.602   2.379
11688WAT      O35305   7.324   4.904   1.219
11688WAT     H135306   7.408   4.851   1.225
11688WAT     H235307   7.344   4.995   1.183
11689WAT      O35308   3.103   3.040   6.183
11689WAT     H135309   3.177   3.001   6.126
11689WAT     H235310   3.134   3.126   6.222
11690WAT      O35311   1.185   9.506   3.714
11690WAT     H135312   1.115   9.465   3.772
11690WAT     H235313   1.257   9.545   3.771
11691WAT      O35314   7.771   3.059   9.143
11691WAT     H135315   7.800   3.129   9.208
11691WAT     H235316   7.806   3.082   9.052
11692WAT      O35317   0.923   0.239   2.476
11692WAT     H135318   0.839   0.276   2.518
11692WAT     H235319   0.910   0.235   2.377
11693WAT      O35320   7.866   0.599   0.697
11693WAT     H135321   7.788   0.658   0.720
11693WAT     H235322   7.852   0.508   0.736
11694WAT      O35323   0.551   1.875   1.927
11694WAT     H135324   0.549   1.813   1.848
11694WAT     H235325   0.458   1.899   1.953
11695WAT      O35326   8.382   4.018   8.552
11695WAT     H135327   8.393   3.920   8.569
11695WAT     H235328   8.285   4.041   8.550
11696WAT      O35329   4.764   2.995   5.150
11696WAT     H135330   4.664   2.992   5.147
11696WAT     H235331   4.800   2.905   5.127
11697WAT      O35332   6.276   8.616   6.954
11697WAT     H135333   6.374   8.594   6.960
11697WAT     H235334   6.229   8.542   6.906
11698WAT      O35335   6.269   7.566   2.583
11698WAT     H135336   6.227   7.554   2.673
11698WAT     H235337   6.352   7.621   2.592
11699WAT      O35338   3.066   2.678   4.586
11699WAT     H135339   2.981   2.700   4.539
11699WAT     H235340   3.047   2.662   4.683
11700WAT      O35341   6.502   3.054   1.591
11700WAT     H135342   6.468   3.094   1.506
11700WAT     H235343   6.602   3.063   1.595
11701WAT      O35344   7.635   9.848   2.983
11701WAT     H135345   7.566   9.775   2.987
11701WAT     H235346   7.711   9.826   3.044
11702WAT      O35347   1.617   6.853   6.405
11702WAT     H135348   1.539   6.913   6.420
11702WAT     H235349   1.596   6.762   6.441
11703WAT      O35350   4.012   3.171   2.841
11703WAT     H135351   4.112   3.167   2.847
11703WAT     H235352   3.975   3.079   2.842
11704WAT      O35353   9.380   9.017   2.545
11704WAT     H135354   9.390   9.116   2.536
11704WAT     H235355   9.437   8.984   2.620
11705WAT      O35356   7.403   5.147   8.815
11705WAT     H135357   7.364   5.056   8.802
11705WAT     H235358   7.425   5.186   8.726
11706WAT      O35359   1.584   5.131   9.585
11706WAT     H135360   1.646   5.181   9.525
11706WAT     H235361   1.550   5.050   9.536
11707WAT      O35362   3.564   9.714   8.991
11707WAT     H135363   3.554   9.624   9.033
11707WAT     H235364   3.643   9.761   9.031
11708WAT      O35365   2.693   0.184   4.786
11708WAT     H135366   2.770   0.213   4.730
11708WAT     H235367   2.640   0.265   4.814
11709WAT      O35368   8.777   3.731   6.789
11709WAT     H135369   8.717   3.679   6.850
11709WAT     H235370   8.858   3.676   6.768
11710WAT      O35371   4.326   5.286   2.297
11710WAT     H135372   4.421   5.317   2.306
11710WAT     H235373   4.270   5.327   2.368
11711WAT      O35374   4.897   7.924   8.379
11711WAT     H135375   4.867   7.985   8.305
11711WAT     H235376   4.932   7.839   8.339
11712WAT      O35377   6.811   2.793   4.879
11712WAT     H135378   6.760   2.872   4.844
11712WAT     H235379   6.747   2.722   4.907
11713WAT      O35380   1.802   9.522   4.362
11713WAT     H135381   1.813   9.436   4.314
11713WAT     H235382   1.814   9.508   4.460
11714WAT      O35383   8.492   0.707   5.840
11714WAT     H135384   8.553   0.701   5.761
11714WAT     H235385   8.516   0.787   5.894
11715WAT      O35386   8.522   2.509   3.295
11715WAT     H135387   8.588   2.434   3.287
11715WAT     H235388   8.506   2.549   3.205
11716WAT      O35389   7.170   4.830   7.831
11716WAT     H135390   7.230   4.784   7.765
11716WAT     H235391   7.209   4.822   7.922
11717WAT      O35392   4.382   5.532   8.244
11717WAT     H135393   4.287   5.500   8.237
11717WAT     H235394   4.382   5.632   8.256
11718WAT      O35395   4.565   5.395   2.343
11718WAT     H135396   4.579   5.441   2.255
11718WAT     H235397   4.583   5.460   2.418
11719WAT      O35398   6.766   4.377   9.474
11719WAT     H135399   6.816   4.364   9.559
11719WAT     H235400   6.704   4.300   9.460
11720WAT      O35401   2.915   9.521   5.273
11720WAT     H135402   2.895   9.463   5.194
11720WAT     H235403   3.006   9.499   5.309
11721WAT      O35404   4.400   4.670   3.587
11721WAT     H135405   4.376   4.720   3.503
11721WAT     H235406   4.387   4.730   3.666
11722WAT      O35407   2.505   8.975   5.316
11722WAT     H135408   2.544   8.884   5.325
11722WAT     H235409   2.564   9.042   5.362
11723WAT      O35410   0.228   5.722   8.391
11723WAT     H135411   0.146   5.665   8.397
11723WAT     H235412   0.291   5.696   8.464
11724WAT      O35413   3.277   5.222   6.687
11724WAT     H135414   3.272   5.307   6.740
11724WAT     H235415   3.346   5.233   6.615
11725WAT      O35416   5.937   0.393   1.964
11725WAT     H135417   6.026   0.402   2.008
11725WAT     H235418   5.933   0.451   1.882
11726WAT      O35419   8.277   2.805   3.064
11726WAT     H135420   8.315   2.872   3.128
11726WAT     H235421   8.197   2.762   3.106
11727WAT      O35422   1.490   9.291   1.000
11727WAT     H135423   1.545   9.373   0.991
11727WAT     H235424   1.394   9.316   1.011
11728WAT      O35425   8.351   1.114   9.213
11728WAT     H135426   8.421   1.044   9.219
11728WAT     H235427   8.334   1.136   9.117
11729WAT      O35428   5.350   3.218   0.648
11729WAT     H135429   5.271   3.245   0.592
11729WAT     H235430   5.423   3.286   0.639
11730WAT      O35431   8.467   4.995   3.362
11730WAT     H135432   8.477   4.896   3.350
11730WAT     H235433   8.548   5.031   3.407
11731WAT      O35434   7.242   8.687   1.896
11731WAT     H135435   7.184   8.624   1.845
11731WAT     H235436   7.327   8.641   1.921
11732WAT      O35437   0.506   6.610   6.772
11732WAT     H135438   0.603   6.608   6.798
11732WAT     H235439   0.453   6.559   6.838
11733WAT      O35440   8.432   8.149   0.591
11733WAT     H135441   8.529   8.134   0.613
11733WAT     H235442   8.410   8.103   0.505
11734WAT      O35443   6.128   9.540   9.882
11734WAT     H135444   6.111   9.562   9.978
11734WAT     H235445   6.068   9.595   9.824
11735WAT      O35446   1.797   4.361   2.511
11735WAT     H135447   1.759   4.272   2.487
11735WAT     H235448   1.723   4.422   2.540
11736WAT      O35449   6.740   1.404   6.694
11736WAT     H135450   6.706   1.435   6.783
11736WAT     H235451   6.840   1.415   6.691
11737WAT      O35452   9.417   2.633   6.948
11737WAT     H135453   9.322   2.621   6.920
11737WAT     H235454   9.473   2.656   6.869
11738WAT      O35455   4.464   6.492   8.083
11738WAT     H135456   4.455   6.583   8.044
11738WAT     H235457   4.555   6.482   8.123
11739WAT      O35458   3.524   6.397   1.406
11739WAT     H135459   3.548   6.493   1.415
11739WAT     H235460   3.465   6.384   1.326
11740WAT      O35461   8.932   0.598   1.020
11740WAT     H135462   8.951   0.644   0.933
11740WAT     H235463   8.946   0.662   1.095
11741WAT      O35464   8.296   8.999   1.076
11741WAT     H135465   8.315   8.911   1.119
11741WAT     H235466   8.235   9.053   1.134
11742WAT      O35467   3.939   1.158   0.763
11742WAT     H135468   3.914   1.248   0.798
11742WAT     H235469   3.980   1.104   0.836
11743WAT      O35470   3.248   5.516   9.868
11743WAT     H135471   3.255   5.418   9.852
11743WAT     H235472   3.236   5.534   9.966
11744WAT      O35473   0.897   3.143   1.465
11744WAT     H135474   0.996   3.154   1.461
11744WAT     H235475   0.874   3.069   1.528
11745WAT      O35476   7.466   0.664   0.248
11745WAT     H135477   7.497   0.607   0.171
11745WAT     H235478   7.374   0.698   0.229
11746WAT      O35479   8.231   5.445   8.454
11746WAT     H135480   8.330   5.448   8.466
11746WAT     H235481   8.185   5.473   8.539
11747WAT      O35482   7.144   6.751   3.451
11747WAT     H135483   7.089   6.829   3.419
11747WAT     H235484   7.241   6.770   3.431
11748WAT      O35485   9.326   6.683   6.518
11748WAT     H135486   9.338   6.606   6.456
11748WAT     H235487   9.299   6.764   6.467
11749WAT      O35488   5.732   3.368   1.259
11749WAT     H135489   5.737   3.315   1.174
11749WAT     H235490   5.742   3.465   1.238
11750WAT      O35491   0.026   6.412   4.031
11750WAT     H135492   0.080   6.384   4.110
11750WAT     H235493   0.082   6.469   3.971
11751WAT      O35494   2.204   4.077   7.522
11751WAT     H135495   2.286   4.074   7.464
11751WAT     H235496   2.229   4.055   7.616
11752WAT      O35497   6.593   4.826   6.696
11752WAT     H135498   6.550   4.817   6.786
11752WAT     H235499   6.640   4.914   6.690
11753WAT      O35500   5.704   0.325   3.548
11753WAT     H135501   5.646   0.355   3.624
11753WAT     H235502   5.797   0.359   3.562
11754WAT      O35503   7.119   3.806   7.048
11754WAT     H135504   7.129   3.719   6.999
11754WAT     H235505   7.179   3.875   7.007
11755WAT      O35506   3.745   1.370   9.215
11755WAT     H135507   3.761   1.351   9.312
11755WAT     H235508   3.830   1.399   9.172
11756WAT      O35509   4.405   0.589   7.525
11756WAT     H135510   4.329   0.531   7.556
11756WAT     H235511   4.386   0.684   7.548
11757WAT      O35512   2.281   1.187   6.288
11757WAT     H135513   2.328   1.249   6.352
11757WAT     H235514   2.336   1.175   6.206
11758WAT      O35515   1.934   6.185   7.926
11758WAT     H135516   2.019   6.237   7.935
11758WAT     H235517   1.954   6.088   7.932
11759WAT      O35518   2.162   8.803   0.226
11759WAT     H135519   2.118   8.881   0.270
11759WAT     H235520   2.226   8.760   0.290
11760WAT      O35521   9.123   8.572   5.539
11760WAT     H135522   9.175   8.606   5.461
11760WAT     H235523   9.154   8.619   5.622
11761WAT      O35524   2.522   1.653   5.620
11761WAT     H135525   2.531   1.562   5.579
11761WAT     H235526   2.470   1.647   5.705
11762WAT      O35527   8.023   6.569   7.465
11762WAT     H135528   8.039   6.655   7.417
11762WAT     H235529   8.105   6.511   7.457
11763WAT      O35530   7.167   3.518   1.627
11763WAT     H135531   7.221   3.572   1.563
11763WAT     H235532   7.148   3.428   1.587
11764WAT      O35533   5.504   7.333   9.831
11764WAT     H135534   5.501   7.401   9.758
11764WAT     H235535   5.595   7.332   9.873
11765WAT      O35536   5.840   8.134   3.789
11765WAT     H135537   5.745   8.139   3.821
11765WAT     H235538   5.879   8.226   3.788
11766WAT      O35539   8.424   6.146   3.542
11766WAT     H135540   8.450   6.177   3.634
11766WAT     H235541   8.367   6.064   3.550
11767WAT      O35542   3.942   5.329   5.569
11767WAT     H135543   4.021   5.354   5.624
11767WAT     H235544   3.880   5.407   5.561
11768WAT      O35545   6.352   8.093   5.814
11768WAT     H135546   6.401   8.045   5.741
11768WAT     H235547   6.418   8.136   5.875
11769WAT      O35548   8.950   5.797   3.588
11769WAT     H135549   8.999   5.833   3.667
11769WAT     H235550   8.889   5.724   3.618
11770WAT      O35551   9.456   2.449   0.466
11770WAT     H135552   9.517   2.374   0.492
11770WAT     H235553   9.471   2.527   0.527
11771WAT      O35554   7.707   0.408   4.096
11771WAT     H135555   7.781   0.471   4.119
11771WAT     H235556   7.741   0.340   4.031
11772WAT      O35557   3.934   0.324   6.534
11772WAT     H135558   4.010   0.330   6.598
11772WAT     H235559   3.938   0.236   6.486
11773WAT      O35560   8.594   3.390   5.677
11773WAT     H135561   8.601   3.389   5.777
11773WAT     H235562   8.516   3.335   5.648
11774WAT      O35563   8.542   5.746   7.426
11774WAT     H135564   8.507   5.716   7.337
11774WAT     H235565   8.610   5.680   7.459
11775WAT      O35566   3.401   8.300   4.226
11775WAT     H135567   3.387   8.214   4.177
11775WAT     H235568   3.421   8.373   4.160
11776WAT      O35569   9.470   7.612   0.363
11776WAT     H135570   9.413   7.561   0.298
11776WAT     H235571   9.462   7.710   0.345
11777WAT      O35572   6.086   9.372   1.148
11777WAT     H135573   6.139   9.452   1.178
11777WAT     H235574   6.147   9.294   1.134
11778WAT      O35575   9.362   2.627   2.383
11778WAT     H135576   9.295   2.700   2.398
11778WAT     H235577   9.454   2.664   2.394
11779WAT      O35578   9.419   1.066   8.427
11779WAT     H135579   9.408   1.089   8.524
11779WAT     H235580   9.416   1.150   8.373
11780WAT      O35581   7.855   4.248   7.628
11780WAT     H135582   7.904   4.315   7.572
11780WAT     H235583   7.761   4.278   7.643
11781WAT      O35584   2.920   8.102   3.947
11781WAT     H135585   2.883   8.023   3.996
11781WAT     H235586   2.938   8.176   4.012
11782WAT      O35587   5.328   7.807   6.288
11782WAT     H135588   5.325   7.891   6.341
11782WAT     H235589   5.236   7.769   6.280
11783WAT      O35590   6.574   1.825   1.836
11783WAT     H135591   6.585   1.762   1.759
11783WAT     H235592   6.505   1.788   1.899
11784WAT      O35593   8.784   7.886   9.289
11784WAT     H135594   8.874   7.911   9.252
11784WAT     H235595   8.751   7.803   9.243
11785WAT      O35596   9.664   1.443   8.817
11785WAT     H135597   9.629   1.533   8.791
11785WAT     H235598   9.657   1.381   8.738
11786WAT      O35599   1.857   2.975   8.475
11786WAT     H135600   1.810   3.063   8.462
11786WAT     H235601   1.815   2.926   8.551
11787WAT      O35602   6.852   5.990   9.211
11787WAT     H135603   6.799   5.959   9.291
11787WAT     H235604   6.854   5.917   9.143
11788WAT      O35605   9.681   0.864   6.715
11788WAT     H135606   9.689   0.900   6.808
11788WAT     H235607   9.673   0.939   6.650
11789WAT      O35608   6.155   9.722   2.105
11789WAT     H135609   6.094   9.727   2.183
11789WAT     H235610   6.137   9.798   2.043
11790WAT      O35611   1.362   0.617   2.240
11790WAT     H135612   1.295   0.659   2.302
11790WAT     H235613   1.334   0.632   2.145
11791WAT      O35614   2.433   5.892   3.491
11791WAT     H135615   2.342   5.878   3.530
11791WAT     H235616   2.439   5.984   3.451
11792WAT      O35617   2.170   0.348   4.624
11792WAT     H135618   2.240   0.394   4.570
11792WAT     H235619   2.130   0.273   4.571
11793WAT      O35620   3.762   5.919   1.716
11793WAT     H135621   3.809   5.970   1.788
11793WAT     H235622   3.830   5.888   1.649
11794WAT      O35623   3.645   3.106   1.531
11794WAT     H135624   3.722   3.111   1.594
11794WAT     H235625   3.592   3.191   1.536
11795WAT      O35626   5.951   1.240   5.645
11795WAT     H135627   5.905   1.248   5.733
11795WAT     H235628   5.912   1.305   5.580
11796WAT      O35629   3.198   3.791   0.604
11796WAT     H135630   3.256   3.843   0.666
11796WAT     H235631   3.102   3.814   0.621
11797WAT      O35632   5.670   7.306   8.265
11797WAT     H135633   5.651   7.369   8.190
11797WAT     H235634   5.588   7.252   8.286
11798WAT      O35635   2.225   6.105   4.922
11798WAT     H135636   2.246   6.135   4.829
11798WAT     H235637   2.137   6.059   4.924
11799WAT      O35638   8.335   5.745   9.478
11799WAT     H135639   8.418   5.719   9.528
11799WAT     H235640   8.337   5.704   9.387
11800WAT      O35641   1.333   1.535   6.535
11800WAT     H135642   1.314   1.607   6.602
11800WAT     H235643   1.269   1.459   6.549
11801WAT      O35644   7.136   1.705   9.255
11801WAT     H135645   7.174   1.787   9.214
11801WAT     H235646   7.137   1.631   9.189
11802WAT      O35647   2.084   3.744   2.255
11802WAT     H135648   2.160   3.796   2.217
11802WAT     H235649   2.102   3.646   2.246
11803WAT      O35650   1.451   1.715   4.168
11803WAT     H135651   1.395   1.790   4.203
11803WAT     H235652   1.511   1.748   4.096
11804WAT      O35653   5.835   6.100   1.456
11804WAT     H135654   5.932   6.119   1.472
11804WAT     H235655   5.827   6.020   1.397
11805WAT      O35656   6.590   3.536   0.603
11805WAT     H135657   6.537   3.566   0.524
11805WAT     H235658   6.584   3.604   0.675
11806WAT      O35659   5.530   7.841   8.634
11806WAT     H135660   5.436   7.810   8.616
11806WAT     H235661   5.533   7.941   8.636
11807WAT      O35662   3.274   7.562   0.628
11807WAT     H135663   3.317   7.493   0.686
11807WAT     H235664   3.325   7.647   0.634
11808WAT      O35665   2.728   1.679   1.713
11808WAT     H135666   2.718   1.776   1.692
11808WAT     H235667   2.685   1.625   1.640
11809WAT      O35668   3.543   9.718   4.162
11809WAT     H135669   3.528   9.783   4.087
11809WAT     H235670   3.528   9.625   4.130
11810WAT      O35671   7.959   8.037   2.558
11810WAT     H135672   8.000   7.976   2.625
11810WAT     H235673   7.922   7.983   2.482
11811WAT      O35674   7.420   6.641   0.819
11811WAT     H135675   7.346   6.587   0.780
11811WAT     H235676   7.384   6.729   0.851
11812WAT      O35677   7.525   3.628   1.543
11812WAT     H135678   7.437   3.625   1.496
11812WAT     H235679   7.534   3.715   1.593
11813WAT      O35680   5.707   2.393   3.257
11813WAT     H135681   5.785   2.358   3.308
11813WAT     H235682   5.645   2.318   3.236
11814WAT      O35683   8.957   3.766   4.132
11814WAT     H135684   8.974   3.863   4.148
11814WAT     H235685   8.979   3.714   4.215
11815WAT      O35686   8.975   1.204   5.128
11815WAT     H135687   9.042   1.274   5.102
11815WAT     H235688   9.022   1.119   5.151
11816WAT      O35689   5.041   8.733   5.424
11816WAT     H135690   4.973   8.674   5.381
11816WAT     H235691   5.056   8.814   5.366
11817WAT      O35692   2.280   6.012   7.181
11817WAT     H135693   2.325   6.085   7.231
11817WAT     H235694   2.291   5.926   7.230
11818WAT      O35695   2.542   4.028   9.824
11818WAT     H135696   2.539   4.095   9.750
11818WAT     H235697   2.632   3.985   9.826
11819WAT      O35698   5.515   6.714   8.107
11819WAT     H135699   5.537   6.676   8.017
11819WAT     H235700   5.527   6.813   8.105
11820WAT      O35701   4.783   6.188   2.673
11820WAT     H135702   4.739   6.118   2.617
11820WAT     H235703   4.720   6.217   2.745
11821WAT      O35704   8.792   5.612   7.222
11821WAT     H135705   8.872   5.671   7.219
11821WAT     H235706   8.758   5.606   7.316
11822WAT      O35707   4.271   3.513   6.457
11822WAT     H135708   4.268   3.609   6.428
11822WAT     H235709   4.275   3.454   6.376
11823WAT      O35710   4.654   1.169   1.060
11823WAT     H135711   4.645   1.148   1.157
11823WAT     H235712   4.589   1.114   1.008
11824WAT      O35713   8.945   5.252   9.729
11824WAT     H135714   8.899   5.164   9.716
11824WAT     H235715   9.031   5.252   9.678
11825WAT      O35716   9.323   0.596   4.294
11825WAT     H135717   9.305   0.689   4.262
11825WAT     H235718   9.345   0.537   4.216
11826WAT      O35719   1.262   4.052   8.547
11826WAT     H135720   1.312   4.044   8.633
11826WAT     H235721   1.166   4.073   8.565
11827WAT      O35722   6.240   5.578   6.850
11827WAT     H135723   6.220   5.670   6.883
11827WAT     H235724   6.339   5.563   6.854
11828WAT      O35725   1.853   8.219   6.530
11828WAT     H135726   1.860   8.146   6.462
11828WAT     H235727   1.942   8.233   6.573
11829WAT      O35728   7.671   9.135   7.133
11829WAT     H135729   7.736   9.208   7.153
11829WAT     H235730   7.721   9.049   7.118
11830WAT      O35731   8.754   0.309   3.972
11830WAT     H135732   8.790   0.394   3.935
11830WAT     H235733   8.695   0.266   3.904
11831WAT      O35734   2.842   3.897   1.859
11831WAT     H135735   2.750   3.918   1.891
11831WAT     H235736   2.899   3.979   1.867
11832WAT      O35737   7.460   6.070   8.179
11832WAT     H135738   7.468   6.027   8.089
11832WAT     H235739   7.542   6.050   8.233
11833WAT      O35740   4.796   6.376   4.909
11833WAT     H135741   4.851   6.377   4.826
11833WAT     H235742   4.765   6.468   4.930
11834WAT      O35743   7.029   1.919   0.262
11834WAT     H135744   7.067   1.830   0.288
11834WAT     H235745   6.933   1.909   0.238
11835WAT      O35746   4.567   5.560   7.399
11835WAT     H135747   4.522   5.585   7.313
11835WAT     H235748   4.646   5.620   7.413
11836WAT      O35749   6.950   2.457   8.199
11836WAT     H135750   6.860   2.439   8.160
11836WAT     H235751   6.976   2.383   8.260
11837WAT      O35752   3.631   6.824   1.705
11837WAT     H135753   3.654   6.764   1.782
11837WAT     H235754   3.536   6.811   1.679
11838WAT      O35755   2.721   8.277   4.506
11838WAT     H135756   2.758   8.301   4.596
11838WAT     H235757   2.653   8.205   4.516
11839WAT      O35758   6.695   1.259   4.695
11839WAT     H135759   6.672   1.174   4.647
11839WAT     H235760   6.677   1.248   4.793
11840WAT      O35761   8.565   0.447   3.325
11840WAT     H135762   8.629   0.476   3.253
11840WAT     H235763   8.611   0.450   3.414
11841WAT      O35764   9.244   1.354   5.703
11841WAT     H135765   9.243   1.297   5.785
11841WAT     H235766   9.298   1.309   5.632
11842WAT      O35767   1.127   8.483   3.661
11842WAT     H135768   1.110   8.468   3.564
11842WAT     H235769   1.221   8.459   3.683
11843WAT      O35770   4.374   4.065   8.041
11843WAT     H135771   4.274   4.067   8.040
11843WAT     H235772   4.408   4.124   8.114
11844WAT      O35773   8.742   4.801   5.946
11844WAT     H135774   8.694   4.718   5.973
11844WAT     H235775   8.795   4.836   6.023
11845WAT      O35776   8.200   6.123   5.052
11845WAT     H135777   8.101   6.128   5.059
11845WAT     H235778   8.241   6.194   5.110
11846WAT      O35779   5.194   2.526   2.627
11846WAT     H135780   5.261   2.477   2.572
11846WAT     H235781   5.208   2.503   2.724
11847WAT      O35782   9.354   2.478   6.255
11847WAT     H135783   9.277   2.520   6.206
11847WAT     H235784   9.433   2.473   6.195
11848WAT      O35785   9.163   2.533   5.447
11848WAT     H135786   9.248   2.559   5.494
11848WAT     H235787   9.147   2.435   5.458
11849WAT      O35788   7.121   9.564   2.101
11849WAT     H135789   7.023   9.559   2.084
11849WAT     H235790   7.146   9.656   2.129
11850WAT      O35791   8.490   0.496   0.960
11850WAT     H135792   8.470   0.451   1.048
11850WAT     H235793   8.516   0.427   0.893
11851WAT      O35794   9.808   7.944   9.670
11851WAT     H135795   9.881   7.882   9.697
11851WAT     H235796   9.731   7.935   9.733
11852WAT      O35797   2.937   3.929   4.213
11852WAT     H135798   2.971   3.902   4.303
11852WAT     H235799   2.844   3.896   4.201
11853WAT      O35800   1.208   3.518   5.625
11853WAT     H135801   1.191   3.598   5.683
11853WAT     H235802   1.265   3.544   5.547
11854WAT      O35803   1.825   3.012   6.894
11854WAT     H135804   1.817   2.917   6.864
11854WAT     H235805   1.807   3.073   6.817
11855WAT      O35806   2.129   6.966   7.316
11855WAT     H135807   2.032   6.991   7.309
11855WAT     H235808   2.184   7.037   7.273
11856WAT      O35809   9.673   4.407   5.747
11856WAT     H135810   9.579   4.406   5.712
11856WAT     H235811   9.711   4.499   5.734
11857WAT      O35812   6.876   6.431   6.742
11857WAT     H135813   6.881   6.510   6.804
11857WAT     H235814   6.780   6.412   6.721
11858WAT      O35815   7.160   1.758   6.456
11858WAT     H135816   7.251   1.777   6.418
11858WAT     H235817   7.109   1.700   6.392
11859WAT      O35818   6.460   1.935   3.908
11859WAT     H135819   6.389   1.998   3.875
11859WAT     H235820   6.434   1.841   3.884
11860WAT      O35821   8.358   4.570   4.826
11860WAT     H135822   8.451   4.602   4.809
11860WAT     H235823   8.318   4.622   4.902
11861WAT      O35824   1.592   2.374   2.276
11861WAT     H135825   1.550   2.299   2.226
11861WAT     H235826   1.681   2.396   2.234
11862WAT      O35827   4.491   1.586   0.037
11862WAT     H135828   4.417   1.581  -0.030
11862WAT     H235829   4.522   1.681   0.046
11863WAT      O35830   8.234   6.678   2.464
11863WAT     H135831   8.293   6.613   2.511
11863WAT     H235832   8.289   6.734   2.402
11864WAT      O35833   6.449   0.777   9.466
11864WAT     H135834   6.534   0.776   9.518
11864WAT     H235835   6.380   0.722   9.514
11865WAT      O35836   5.573   3.426   1.831
11865WAT     H135837   5.568   3.406   1.733
11865WAT     H235838   5.528   3.513   1.849
11866WAT      O35839   5.439   9.127   1.695
11866WAT     H135840   5.370   9.151   1.626
11866WAT     H235841   5.501   9.058   1.658
11867WAT      O35842   8.120   8.482   0.352
11867WAT     H135843   8.133   8.570   0.307
11867WAT     H235844   8.204   8.427   0.344
11868WAT      O35845   9.040   6.615   3.072
11868WAT     H135846   9.045   6.553   2.993
11868WAT     H235847   8.974   6.579   3.138
11869WAT      O35848   0.566   1.004   5.825
11869WAT     H135849   0.489   0.940   5.829
11869WAT     H235850   0.584   1.041   5.916
11870WAT      O35851   4.730   8.905   9.823
11870WAT     H135852   4.817   8.862   9.847
11870WAT     H235853   4.663   8.890   9.896
11871WAT      O35854   4.494   5.828   1.455
11871WAT     H135855   4.498   5.827   1.355
11871WAT     H235856   4.551   5.903   1.490
11872WAT      O35857   0.384   5.694   4.805
11872WAT     H135858   0.473   5.656   4.828
11872WAT     H235859   0.341   5.637   4.735
11873WAT      O35860   2.756   5.279   9.748
11873WAT     H135861   2.719   5.365   9.713
11873WAT     H235862   2.685   5.230   9.799
11874WAT      O35863   2.927   8.138   3.211
11874WAT     H135864   2.923   8.220   3.154
11874WAT     H235865   2.868   8.067   3.171
11875WAT      O35866   2.880   2.136   2.109
11875WAT     H135867   2.914   2.140   2.015
11875WAT     H235868   2.842   2.045   2.127
11876WAT      O35869   3.190   8.927   7.240
11876WAT     H135870   3.101   8.934   7.285
11876WAT     H235871   3.261   8.910   7.308
11877WAT      O35872   6.825   7.679   3.949
11877WAT     H135873   6.752   7.620   3.915
11877WAT     H235874   6.848   7.746   3.879
11878WAT      O35875   2.347   7.357   1.929
11878WAT     H135876   2.380   7.401   2.012
11878WAT     H235877   2.425   7.324   1.875
11879WAT      O35878   8.209   3.393   1.084
11879WAT     H135879   8.109   3.386   1.090
11879WAT     H235880   8.251   3.313   1.126
11880WAT      O35881   5.863   2.835   3.218
11880WAT     H135882   5.963   2.842   3.226
11880WAT     H235883   5.830   2.896   3.146
11881WAT      O35884   5.070   4.139   6.743
11881WAT     H135885   5.111   4.158   6.654
11881WAT     H235886   5.034   4.046   6.744
11882WAT      O35887   2.268   6.607   9.545
11882WAT     H135888   2.341   6.545   9.516
11882WAT     H235889   2.181   6.578   9.506
11883WAT      O35890   3.955   7.197   2.548
11883WAT     H135891   4.040   7.196   2.495
11883WAT     H235892   3.878   7.174   2.489
11884WAT      O35893   3.441   7.843   2.791
11884WAT     H135894   3.516   7.856   2.857
11884WAT     H235895   3.446   7.751   2.753
11885WAT      O35896   5.244   4.338   4.682
11885WAT     H135897   5.300   4.406   4.636
11885WAT     H235898   5.303   4.282   4.741
11886WAT      O35899   7.910   7.124   1.681
11886WAT     H135900   7.871   7.215   1.699
11886WAT     H235901   7.999   7.134   1.636
11887WAT      O35902   2.970   5.434   4.790
11887WAT     H135903   2.892   5.489   4.758
11887WAT     H235904   3.029   5.412   4.712
11888WAT      O35905   2.329   3.005   0.322
11888WAT     H135906   2.336   2.921   0.376
11888WAT     H235907   2.415   3.057   0.330
11889WAT      O35908   4.889   7.010   3.169
11889WAT     H135909   4.809   7.060   3.135
11889WAT     H235910   4.874   6.911   3.157
11890WAT      O35911   1.611   7.885   7.467
11890WAT     H135912   1.674   7.861   7.393
11890WAT     H235913   1.589   7.983   7.462
11891WAT      O35914   2.744   3.194   7.170
11891WAT     H135915   2.748   3.229   7.264
11891WAT     H235916   2.837   3.177   7.137
11892WAT      O35917   9.726   0.195   1.158
11892WAT     H135918   9.669   0.174   1.237
11892WAT     H235919   9.723   0.119   1.093
11893WAT      O35920   3.434   0.961   6.463
11893WAT     H135921   3.392   1.045   6.430
11893WAT     H235922   3.533   0.965   6.453
11894WAT      O35923   7.527   3.263   6.478
11894WAT     H135924   7.546   3.354   6.515
11894WAT     H235925   7.589   3.244   6.403
11895WAT      O35926   1.236   6.410   1.583
11895WAT     H135927   1.328   6.395   1.547
11895WAT     H235928   1.181   6.457   1.513
11896WAT      O35929   3.897   0.710   0.388
11896WAT     H135930   3.817   0.745   0.436
11896WAT     H235931   3.978   0.759   0.418
11897WAT      O35932   5.607   1.891   4.697
11897WAT     H135933   5.570   1.959   4.633
11897WAT     H235934   5.533   1.835   4.733
11898WAT      O35935   7.208   6.112   1.984
11898WAT     H135936   7.241   6.025   1.947
11898WAT     H235937   7.224   6.115   2.083
11899WAT      O35938   4.359   9.086   9.669
11899WAT     H135939   4.287   9.138   9.624
11899WAT     H235940   4.329   8.992   9.684
11900WAT      O35941   7.503   4.003   7.216
11900WAT     H135942   7.428   3.973   7.275
11900WAT     H235943   7.536   4.092   7.247
11901WAT      O35944   8.885   3.693   4.791
11901WAT     H135945   8.882   3.727   4.885
11901WAT     H235946   8.943   3.752   4.736
11902WAT      O35947   6.647   9.090   3.457
11902WAT     H135948   6.746   9.091   3.446
11902WAT     H235949   6.618   8.999   3.487
11903WAT      O35950   2.016   2.614   5.982
11903WAT     H135951   1.950   2.679   6.020
11903WAT     H235952   1.973   2.524   5.976
11904WAT      O35953   1.025   1.530   1.156
11904WAT     H135954   0.942   1.505   1.207
11904WAT     H235955   1.000   1.577   1.072
11905WAT      O35956   9.527   2.902   0.819
11905WAT     H135957   9.616   2.873   0.785
11905WAT     H235958   9.469   2.929   0.742
11906WAT      O35959   1.251   8.003   8.738
11906WAT     H135960   1.326   8.032   8.678
11906WAT     H235961   1.188   7.945   8.686
11907WAT      O35962   6.168   2.346   8.763
11907WAT     H135963   6.251   2.359   8.708
11907WAT     H235964   6.088   2.349   8.703
11908WAT      O35965   2.858   9.265   8.043
11908WAT     H135966   2.815   9.190   8.093
11908WAT     H235967   2.906   9.325   8.107
11909WAT      O35968   1.294   0.172   8.855
11909WAT     H135969   1.202   0.145   8.826
11909WAT     H235970   1.362   0.122   8.802
11910WAT      O35971   0.482   2.201   5.019
11910WAT     H135972   0.554   2.146   5.061
11910WAT     H235973   0.422   2.141   4.966
11911WAT      O35974   3.902   2.045   9.382
11911WAT     H135975   3.918   2.105   9.304
11911WAT     H235976   3.988   2.031   9.432
11912WAT      O35977   4.966   1.724   5.328
11912WAT     H135978   4.920   1.659   5.268
11912WAT     H235979   5.056   1.746   5.291
11913WAT      O35980   6.530   2.924   9.299
11913WAT     H135981   6.619   2.883   9.319
11913WAT     H235982   6.543   3.005   9.242
11914WAT      O35983   3.645   3.625   3.684
11914WAT     H135984   3.601   3.673   3.760
11914WAT     H235985   3.743   3.614   3.703
11915WAT      O35986   8.250   4.691   5.049
11915WAT     H135987   8.295   4.691   5.138
11915WAT     H235988   8.188   4.612   5.043
11916WAT      O35989   9.158   6.039   7.611
11916WAT     H135990   9.251   6.042   7.576
11916WAT     H235991   9.145   6.113   7.677
11917WAT      O35992   2.898   2.642   8.821
11917WAT     H135993   2.936   2.718   8.873
11917WAT     H235994   2.954   2.561   8.835
11918WAT      O35995   9.062   4.859   8.973
11918WAT     H135996   8.992   4.913   9.021
11918WAT     H235997   9.153   4.891   9.000
11919WAT      O35998   0.567   7.696   8.905
11919WAT     H135999   0.559   7.602   8.940
11919WAT     H236000   0.544   7.760   8.978
11920WAT      O36001   8.903   6.388   5.303
11920WAT     H136002   8.901   6.464   5.237
11920WAT     H236003   8.989   6.338   5.295
11921WAT      O36004   5.550   6.394   5.591
11921WAT     H136005   5.457   6.371   5.563
11921WAT     H236006   5.575   6.340   5.671
11922WAT      O36007   6.914   8.970   2.986
11922WAT     H136008   6.865   8.887   2.960
11922WAT     H236009   6.850   9.039   3.017
11923WAT      O36010   9.059   9.270   7.464
11923WAT     H136011   8.998   9.244   7.389
11923WAT     H236012   9.121   9.194   7.483
11924WAT      O36013   7.497   2.974   4.560
11924WAT     H136014   7.493   3.047   4.492
11924WAT     H236015   7.549   2.897   4.523
11925WAT      O36016   5.778   5.187   6.696
11925WAT     H136017   5.792   5.089   6.710
11925WAT     H236018   5.692   5.216   6.738
11926WAT      O36019   4.154   0.163   1.746
11926WAT     H136020   4.181   0.079   1.792
11926WAT     H236021   4.113   0.142   1.658
11927WAT      O36022   4.757   9.290   4.340
11927WAT     H136023   4.839   9.243   4.307
11927WAT     H236024   4.681   9.274   4.276
11928WAT      O36025   6.221   1.561   8.932
11928WAT     H136026   6.234   1.651   8.974
11928WAT     H236027   6.181   1.499   8.999
11929WAT      O36028   4.011   4.325   2.013
11929WAT     H136029   3.954   4.244   2.027
11929WAT     H236030   3.995   4.390   2.087
11930WAT      O36031   1.435   4.144   0.101
11930WAT     H136032   1.452   4.084   0.024
11930WAT     H236033   1.452   4.095   0.187
11931WAT      O36034   4.513   2.693   4.969
11931WAT     H136035   4.586   2.741   4.921
11931WAT     H236036   4.432   2.751   4.973
11932WAT      O36037   8.535   8.001   6.992
11932WAT     H136038   8.629   7.999   7.025
11932WAT     H236039   8.487   8.079   7.032
11933WAT      O36040   8.801   9.458   3.825
11933WAT     H136041   8.834   9.444   3.732
11933WAT     H236042   8.878   9.473   3.886
11934WAT      O36043   9.105   4.533   5.683
11934WAT     H136044   9.096   4.500   5.589
11934WAT     H236045   9.090   4.632   5.685
11935WAT      O36046   5.333   5.991   9.211
11935WAT     H136047   5.392   6.049   9.154
11935WAT     H236048   5.261   6.046   9.252
11936WAT      O36049   8.251   8.299   9.488
11936WAT     H136050   8.198   8.217   9.464
11936WAT     H236051   8.347   8.284   9.466
11937WAT      O36052   3.675   9.046   0.531
11937WAT     H136053   3.671   8.974   0.461
11937WAT     H236054   3.743   9.114   0.505
11938WAT      O36055   0.923   3.787   5.828
11938WAT     H136056   0.895   3.874   5.868
11938WAT     H236057   0.878   3.774   5.740
11939WAT      O36058   6.473   1.418   3.213
11939WAT     H136059   6.501   1.496   3.269
11939WAT     H236060   6.498   1.435   3.117
11940WAT      O36061   4.776   9.357   6.969
11940WAT     H136062   4.812   9.380   6.879
11940WAT     H236063   4.780   9.437   7.028
11941WAT      O36064   0.807   8.441   5.610
11941WAT     H136065   0.834   8.513   5.546
11941WAT     H236066   0.718   8.463   5.650
11942WAT      O36067   5.303   1.269   0.372
11942WAT     H136068   5.283   1.203   0.300
11942WAT     H236069   5.232   1.339   0.374
11943WAT      O36070   1.098   4.784   3.207
11943WAT     H136071   1.195   4.800   3.227
11943WAT     H236072   1.053   4.870   3.185
11944WAT      O36073   6.595   4.799   5.983
11944WAT     H136074   6.662   4.791   5.909
11944WAT     H236075   6.504   4.775   5.948
11945WAT      O36076   6.361   5.627   7.699
11945WAT     H136077   6.380   5.648   7.603
11945WAT     H236078   6.321   5.535   7.706
11946WAT      O36079   4.228   7.503   0.855
11946WAT     H136080   4.275   7.530   0.939
11946WAT     H236081   4.136   7.470   0.877
11947WAT      O36082   5.585   3.352   2.562
11947WAT     H136083   5.584   3.337   2.464
11947WAT     H236084   5.555   3.446   2.582
11948WAT      O36085   8.774   0.864   0.833
11948WAT     H136086   8.872   0.845   0.839
11948WAT     H236087   8.730   0.840   0.920
11949WAT      O36088   0.260   7.431   5.885
11949WAT     H136089   0.359   7.433   5.897
11949WAT     H236090   0.218   7.381   5.961
11950WAT      O36091   7.387   1.401   9.191
11950WAT     H136092   7.303   1.455   9.202
11950WAT     H236093   7.401   1.344   9.272
11951WAT      O36094   5.907   3.891   9.622
11951WAT     H136095   5.951   3.944   9.550
11951WAT     H236096   5.976   3.845   9.677
11952WAT      O36097   7.330   8.375   1.905
11952WAT     H136098   7.375   8.455   1.944
11952WAT     H236099   7.360   8.293   1.953
11953WAT      O36100   1.974   8.735   7.727
11953WAT     H136101   1.973   8.835   7.732
11953WAT     H236102   2.025   8.707   7.646
11954WAT      O36103   6.393   0.979   8.102
11954WAT     H136104   6.434   1.032   8.176
11954WAT     H236105   6.443   0.996   8.017
11955WAT      O36106   1.123   2.634   8.545
11955WAT     H136107   1.044   2.581   8.577
11955WAT     H236108   1.121   2.725   8.588
11956WAT      O36109   8.315   6.078   9.762
11956WAT     H136110   8.378   6.154   9.777
11956WAT     H236111   8.292   6.071   9.665
11957WAT      O36112   8.748   7.557   4.875
11957WAT     H136113   8.777   7.573   4.970
11957WAT     H236114   8.674   7.490   4.874
11958WAT      O36115   9.628   6.244   6.519
11958WAT     H136116   9.620   6.156   6.471
11958WAT     H236117   9.681   6.231   6.603
11959WAT      O36118   5.848   5.798   4.239
11959WAT     H136119   5.839   5.717   4.297
11959WAT     H236120   5.779   5.865   4.266
11960WAT      O36121   3.995   7.898   2.173
11960WAT     H136122   3.966   7.992   2.188
11960WAT     H236123   3.921   7.846   2.132
11961WAT      O36124   2.711   9.350   3.276
11961WAT     H136125   2.623   9.323   3.313
11961WAT     H236126   2.768   9.269   3.262
11962WAT      O36127   6.456   3.005   6.671
11962WAT     H136128   6.461   3.045   6.762
11962WAT     H236129   6.499   2.914   6.673
11963WAT      O36130   8.110   0.419   1.519
11963WAT     H136131   8.083   0.323   1.511
11963WAT     H236132   8.042   0.469   1.573
11964WAT      O36133   5.412   1.213   5.608
11964WAT     H136134   5.329   1.246   5.653
11964WAT     H236135   5.417   1.251   5.516
11965WAT      O36136   6.362   7.155   9.296
11965WAT     H136137   6.375   7.078   9.235
11965WAT     H236138   6.329   7.123   9.385
11966WAT      O36139   4.542   1.551   6.563
11966WAT     H136140   4.531   1.490   6.642
11966WAT     H236141   4.507   1.642   6.586
11967WAT      O36142   7.708   0.180   7.683
11967WAT     H136143   7.764   0.225   7.753
11967WAT     H236144   7.694   0.243   7.606
11968WAT      O36145   0.722   6.299   0.685
11968WAT     H136146   0.703   6.383   0.737
11968WAT     H236147   0.707   6.220   0.744
11969WAT      O36148   5.603   2.472   7.093
11969WAT     H136149   5.669   2.544   7.112
11969WAT     H236150   5.624   2.393   7.151
11970WAT      O36151   9.534   5.367   7.961
11970WAT     H136152   9.624   5.384   7.920
11970WAT     H236153   9.542   5.367   8.061
11971WAT      O36154   2.801   0.153   1.369
11971WAT     H136155   2.897   0.132   1.353
11971WAT     H236156   2.771   0.109   1.454
11972WAT      O36157   8.541   2.473   1.842
11972WAT     H136158   8.587   2.559   1.864
11972WAT     H236159   8.467   2.490   1.777
11973WAT      O36160   0.891   8.219   9.345
11973WAT     H136161   0.941   8.226   9.258
11973WAT     H236162   0.956   8.224   9.421
11974WAT      O36163   0.435   3.339   7.998
11974WAT     H136164   0.425   3.324   8.096
11974WAT     H236165   0.387   3.422   7.971
11975WAT      O36166   2.227   1.872   0.183
11975WAT     H136167   2.226   1.772   0.175
11975WAT     H236168   2.321   1.903   0.201
11976WAT      O36169   3.713   0.652   7.290
11976WAT     H136170   3.669   0.715   7.226
11976WAT     H236171   3.791   0.609   7.246
11977WAT      O36172   5.012   3.497   3.307
11977WAT     H136173   5.050   3.404   3.299
11977WAT     H236174   4.943   3.510   3.236
11978WAT      O36175   6.657   3.369   2.172
11978WAT     H136176   6.637   3.451   2.117
11978WAT     H236177   6.622   3.288   2.125
11979WAT      O36178   3.880   7.474   4.653
11979WAT     H136179   3.861   7.398   4.592
11979WAT     H236180   3.904   7.438   4.744
11980WAT      O36181   9.436   3.867   0.031
11980WAT     H136182   9.430   3.964   0.010
11980WAT     H236183   9.492   3.854   0.113
11981WAT      O36184   6.442   8.834   9.577
11981WAT     H136185   6.515   8.869   9.518
11981WAT     H236186   6.417   8.905   9.644
11982WAT      O36187   0.521   0.551   4.967
11982WAT     H136188   0.431   0.582   4.995
11982WAT     H236189   0.525   0.451   4.972
11983WAT      O36190   7.667   2.726   2.918
11983WAT     H136191   7.681   2.769   2.829
11983WAT     H236192   7.583   2.761   2.959
11984WAT      O36193   0.319   7.317   8.334
11984WAT     H136194   0.414   7.348   8.340
11984WAT     H236195   0.311   7.225   8.371
11985WAT      O36196   6.990   1.431   2.842
11985WAT     H136197   6.974   1.417   2.744
11985WAT     H236198   7.026   1.523   2.857
11986WAT      O36199   5.011   7.055   8.034
11986WAT     H136200   5.008   6.967   8.081
11986WAT     H236201   4.919   7.093   8.030
11987WAT      O36202   1.871   6.694   9.165
11987WAT     H136203   1.938   6.621   9.148
11987WAT     H236204   1.889   6.771   9.103
11988WAT      O36205   1.353   6.959   9.808
11988WAT     H136206   1.450   6.937   9.797
11988WAT     H236207   1.303   6.876   9.833
11989WAT      O36208   7.201   8.158   2.800
11989WAT     H136209   7.205   8.231   2.732
11989WAT     H236210   7.292   8.118   2.811
11990WAT      O36211   9.527   3.867   9.300
11990WAT     H136212   9.491   3.795   9.360
11990WAT     H236213   9.622   3.885   9.324
11991WAT      O36214   6.870   4.319   5.186
11991WAT     H136215   6.894   4.351   5.094
11991WAT     H236216   6.832   4.396   5.239
11992WAT      O36217   3.026   4.662   8.208
11992WAT     H136218   3.117   4.664   8.250
11992WAT     H236219   2.957   4.675   8.279
11993WAT      O36220   9.201   4.075   7.255
11993WAT     H136221   9.113   4.038   7.226
11993WAT     H236222   9.234   4.142   7.188
11994WAT      O36223   4.049   8.558   3.894
11994WAT     H136224   4.148   8.545   3.885
11994WAT     H236225   4.003   8.508   3.820
11995WAT      O36226   5.236   5.382   1.084
11995WAT     H136227   5.218   5.453   1.153
11995WAT     H236228   5.282   5.304   1.128
11996WAT      O36229   2.080   1.728   9.561
11996WAT     H136230   2.141   1.797   9.600
11996WAT     H236231   2.132   1.667   9.501
11997WAT      O36232   9.535   1.179   7.746
11997WAT     H136233   9.526   1.113   7.671
11997WAT     H236234   9.623   1.226   7.737
11998WAT      O36235   9.776   5.596   6.205
11998WAT     H136236   9.798   5.693   6.214
11998WAT     H236237   9.680   5.585   6.182
11999WAT      O36238   1.045   4.440   4.428
11999WAT     H136239   0.964   4.420   4.484
11999WAT     H236240   1.127   4.408   4.477
12000WAT      O36241   7.283   2.046   9.604
12000WAT     H136242   7.332   2.092   9.678
12000WAT     H236243   7.233   1.968   9.641
12001WAT      O36244   5.575   7.484   9.158
12001WAT     H136245   5.542   7.455   9.069
12001WAT     H236246   5.557   7.413   9.226
12002WAT      O36247   7.744   1.479   8.416
12002WAT     H136248   7.694   1.530   8.486
12002WAT     H236249   7.688   1.473   8.333
12003WAT      O36250   0.799   7.483   6.554
12003WAT     H136251   0.807   7.570   6.505
12003WAT     H236252   0.883   7.430   6.542
12004WAT      O36253   7.261   4.330   1.407
12004WAT     H136254   7.258   4.387   1.324
12004WAT     H236255   7.315   4.377   1.477
12005WAT      O36256   8.048   6.935   5.842
12005WAT     H136257   8.033   7.026   5.805
12005WAT     H236258   8.054   6.868   5.768
12006WAT      O36259   6.141   8.676   4.155
12006WAT     H136260   6.148   8.586   4.113
12006WAT     H236261   6.224   8.694   4.208
12007WAT      O36262   9.505   0.033   9.519
12007WAT     H136263   9.558   0.073   9.445
12007WAT     H236264   9.565  -0.020   9.579
12008WAT      O36265   6.490   9.018   3.762
12008WAT     H136266   6.500   8.992   3.858
12008WAT     H236267   6.537   8.952   3.704
12009WAT      O36268   7.611   8.669   5.568
12009WAT     H136269   7.573   8.651   5.477
12009WAT     H236270   7.710   8.662   5.565
12010WAT      O36271   2.131   4.453   0.437
12010WAT     H136272   2.114   4.416   0.528
12010WAT     H236273   2.078   4.403   0.369
12011WAT      O36274   4.289   7.139   5.686
12011WAT     H136275   4.300   7.058   5.744
12011WAT     H236276   4.262   7.110   5.594
12012WAT      O36277   5.568   5.547   2.485
12012WAT     H136278   5.557   5.455   2.449
12012WAT     H236279   5.516   5.558   2.569
12013WAT      O36280   5.100   8.821   6.266
12013WAT     H136281   5.060   8.775   6.345
12013WAT     H236282   5.050   8.793   6.183
12014WAT      O36283   4.672   3.370   8.599
12014WAT     H136284   4.586   3.413   8.571
12014WAT     H236285   4.654   3.303   8.670
12015WAT      O36286   1.222   6.807   6.737
12015WAT     H136287   1.160   6.886   6.733
12015WAT     H236288   1.210   6.751   6.654
12016WAT      O36289   5.384   6.059   6.100
12016WAT     H136290   5.335   6.010   6.173
12016WAT     H236291   5.396   6.155   6.126
12017WAT      O36292   2.094   0.643   5.530
12017WAT     H136293   2.144   0.629   5.444
12017WAT     H236294   2.147   0.702   5.590
12018WAT      O36295   0.439   4.663   8.777
12018WAT     H136296   0.430   4.761   8.757
12018WAT     H236297   0.476   4.616   8.697
12019WAT      O36298   2.301   6.830   4.303
12019WAT     H136299   2.385   6.793   4.341
12019WAT     H236300   2.298   6.812   4.205
12020WAT      O36301   0.763   5.357   7.314
12020WAT     H136302   0.715   5.346   7.402
12020WAT     H236303   0.696   5.357   7.240
12021WAT      O36304   2.331   4.344   4.309
12021WAT     H136305   2.285   4.283   4.243
12021WAT     H236306   2.369   4.423   4.260
12022WAT      O36307   7.824   3.893   6.153
12022WAT     H136308   7.893   3.964   6.164
12022WAT     H236309   7.862   3.805   6.184
12023WAT      O36310   0.958   2.394   4.727
12023WAT     H136311   0.875   2.366   4.678
12023WAT     H236312   0.937   2.407   4.824
12024WAT      O36313   4.960   3.680   3.040
12024WAT     H136314   4.892   3.632   3.096
12024WAT     H236315   4.968   3.635   2.951
12025WAT      O36316   4.763   9.549   4.397
12025WAT     H136317   4.756   9.452   4.374
12025WAT     H236318   4.784   9.602   4.315
12026WAT      O36319   8.922   8.534   9.845
12026WAT     H136320   9.006   8.585   9.865
12026WAT     H236321   8.946   8.443   9.810
12027WAT      O36322   4.947   3.314   0.271
12027WAT     H136323   4.868   3.279   0.321
12027WAT     H236324   4.933   3.411   0.250
12028WAT      O36325   5.692   4.462   2.617
12028WAT     H136326   5.784   4.474   2.580
12028WAT     H236327   5.658   4.371   2.593
12029WAT      O36328   0.268   0.419   3.885
12029WAT     H136329   0.310   0.508   3.901
12029WAT     H236330   0.339   0.349   3.873
12030WAT      O36331   4.824   8.391   1.451
12030WAT     H136332   4.838   8.348   1.540
12030WAT     H236333   4.836   8.323   1.379
12031WAT      O36334   9.200   2.609   0.049
12031WAT     H136335   9.181   2.629  -0.047
12031WAT     H236336   9.298   2.608   0.064
12032WAT      O36337   6.680   1.214   7.367
12032WAT     H136338   6.732   1.187   7.447
12032WAT     H236339   6.720   1.297   7.328
12033WAT      O36340   2.989   5.665   7.477
12033WAT     H136341   3.082   5.667   7.513
12033WAT     H236342   2.924   5.652   7.552
12034WAT      O36343   9.191   4.214   3.613
12034WAT     H136344   9.255   4.289   3.594
12034WAT     H236345   9.099   4.250   3.624
12035WAT      O36346   8.773   4.539   3.307
12035WAT     H136347   8.868   4.507   3.305
12035WAT     H236348   8.746   4.558   3.402
12036WAT      O36349   7.067   9.148   5.995
12036WAT     H136350   7.087   9.080   6.065
12036WAT     H236351   7.071   9.106   5.904
12037WAT      O36352   6.308   2.313   6.015
12037WAT     H136353   6.238   2.296   5.945
12037WAT     H236354   6.263   2.339   6.101
12038WAT      O36355   7.464   1.933   4.148
12038WAT     H136356   7.454   1.896   4.056
12038WAT     H236357   7.403   1.886   4.211
12039WAT      O36358   5.844   2.032   3.213
12039WAT     H136359   5.779   2.065   3.282
12039WAT     H236360   5.883   1.946   3.243
12040WAT      O36361   4.387   6.113   6.196
12040WAT     H136362   4.470   6.160   6.164
12040WAT     H236363   4.321   6.181   6.228
12041WAT      O36364   8.832   1.284   7.414
12041WAT     H136365   8.901   1.214   7.399
12041WAT     H236366   8.769   1.287   7.336
12042WAT      O36367   0.264   9.097   6.707
12042WAT     H136368   0.255   9.179   6.651
12042WAT     H236369   0.209   9.023   6.668
12043WAT      O36370   9.406   9.001   4.799
12043WAT     H136371   9.444   8.977   4.888
12043WAT     H236372   9.308   9.021   4.808
12044WAT      O36373   4.182   9.768   1.868
12044WAT     H136374   4.281   9.768   1.863
12044WAT     H236375   4.149   9.674   1.875
12045WAT      O36376   0.722   6.004   7.226
12045WAT     H136377   0.760   5.918   7.190
12045WAT     H236378   0.749   6.080   7.166
12046WAT      O36379   1.494   6.384   1.449
12046WAT     H136380   1.554   6.425   1.518
12046WAT     H236381   1.545   6.317   1.396
12047WAT      O36382   4.778   4.493   3.486
12047WAT     H136383   4.776   4.462   3.391
12047WAT     H236384   4.867   4.472   3.526
12048WAT      O36385   5.525   1.787   2.503
12048WAT     H136386   5.468   1.757   2.427
12048WAT     H236387   5.576   1.709   2.539
12049WAT      O36388   8.337   4.126   5.954
12049WAT     H136389   8.302   4.070   6.029
12049WAT     H236390   8.425   4.091   5.924
12050WAT      O36391   7.727   7.618   0.978
12050WAT     H136392   7.646   7.582   0.932
12050WAT     H236393   7.800   7.550   0.975
12051WAT      O36394   0.428   1.451   6.901
12051WAT     H136395   0.344   1.492   6.867
12051WAT     H236396   0.504   1.516   6.890
12052WAT      O36397   5.314   6.898   4.305
12052WAT     H136398   5.300   6.996   4.289
12052WAT     H236399   5.227   6.850   4.293
12053WAT      O36400   9.716   2.945   8.828
12053WAT     H136401   9.677   2.858   8.800
12053WAT     H236402   9.765   2.986   8.751
12054WAT      O36403   1.344   8.885   8.205
12054WAT     H136404   1.355   8.950   8.129
12054WAT     H236405   1.249   8.885   8.235
12055WAT      O36406   5.547   4.490   6.169
12055WAT     H136407   5.569   4.586   6.155
12055WAT     H236408   5.469   4.465   6.111
12056WAT      O36409   1.925   7.752   9.256
12056WAT     H136410   1.825   7.753   9.255
12056WAT     H236411   1.957   7.755   9.351
12057WAT      O36412   7.025   4.771   9.503
12057WAT     H136413   7.033   4.672   9.510
12057WAT     H236414   7.051   4.800   9.411
12058WAT      O36415   5.629   4.547   8.829
12058WAT     H136416   5.724   4.535   8.857
12058WAT     H236417   5.622   4.624   8.765
12059WAT      O36418   8.769   2.324   3.306
12059WAT     H136419   8.795   2.236   3.266
12059WAT     H236420   8.846   2.362   3.358
12060WAT      O36421   2.746   2.058   5.950
12060WAT     H136422   2.716   2.081   5.857
12060WAT     H236423   2.834   2.011   5.946
12061WAT      O36424   2.347   5.527   5.810
12061WAT     H136425   2.253   5.503   5.787
12061WAT     H236426   2.348   5.618   5.851
12062WAT      O36427   8.210   1.720   0.366
12062WAT     H136428   8.122   1.674   0.355
12062WAT     H236429   8.252   1.733   0.277
12063WAT      O36430   1.885   1.306   0.017
12063WAT     H136431   1.792   1.303  -0.022
12063WAT     H236432   1.885   1.363   0.099
12064WAT      O36433   7.086   6.117   3.195
12064WAT     H136434   7.138   6.138   3.277
12064WAT     H236435   6.996   6.081   3.220
12065WAT      O36436   2.862   0.827   5.374
12065WAT     H136437   2.888   0.812   5.469
12065WAT     H236438   2.764   0.843   5.368
12066WAT      O36439   7.494   4.764   8.710
12066WAT     H136440   7.400   4.790   8.731
12066WAT     H236441   7.534   4.717   8.789
12067WAT      O36442   2.757   5.600   2.508
12067WAT     H136443   2.714   5.581   2.420
12067WAT     H236444   2.722   5.536   2.577
12068WAT      O36445   3.611   2.684   5.745
12068WAT     H136446   3.554   2.671   5.826
12068WAT     H236447   3.556   2.672   5.662
12069WAT      O36448   8.334   9.028   5.682
12069WAT     H136449   8.383   9.090   5.621
12069WAT     H236450   8.328   9.069   5.773
12070WAT      O36451   0.752   2.881   5.315
12070WAT     H136452   0.796   2.906   5.401
12070WAT     H236453   0.742   2.782   5.309
12071WAT      O36454   8.641   3.650   4.662
12071WAT     H136455   8.720   3.676   4.717
12071WAT     H236456   8.671   3.617   4.573
12072WAT      O36457   2.724   2.983   6.845
12072WAT     H136458   2.713   3.054   6.914
12072WAT     H236459   2.811   2.935   6.859
12073WAT      O36460   9.606   4.811   8.070
12073WAT     H136461   9.598   4.840   7.974
12073WAT     H236462   9.649   4.883   8.123
12074WAT      O36463   7.759   5.138   8.552
12074WAT     H136464   7.838   5.179   8.598
12074WAT     H236465   7.682   5.201   8.554
12075WAT      O36466   0.117   1.791   5.986
12075WAT     H136467   0.106   1.882   5.946
12075WAT     H236468   0.143   1.726   5.914
12076WAT      O36469   4.715   0.771   1.228
12076WAT     H136470   4.765   0.717   1.295
12076WAT     H236471   4.697   0.863   1.264
12077WAT      O36472   7.868   6.248   5.648
12077WAT     H136473   7.775   6.222   5.625
12077WAT     H236474   7.878   6.347   5.644
12078WAT      O36475   5.290   5.936   5.336
12078WAT     H136476   5.247   5.853   5.302
12078WAT     H236477   5.377   5.951   5.289
12079WAT      O36478   8.953   4.540   2.185
12079WAT     H136479   9.005   4.506   2.107
12079WAT     H236480   9.016   4.575   2.254
12080WAT      O36481   7.068   1.997   2.337
12080WAT     H136482   7.153   2.043   2.313
12080WAT     H236483   6.993   2.034   2.282
12081WAT      O36484   1.765   1.118   8.692
12081WAT     H136485   1.707   1.059   8.635
12081WAT     H236486   1.819   1.178   8.633
12082WAT      O36487   2.515   2.115   7.979
12082WAT     H136488   2.514   2.149   8.073
12082WAT     H236489   2.588   2.160   7.928
12083WAT      O36490   3.495   0.424   7.754
12083WAT     H136491   3.486   0.380   7.843
12083WAT     H236492   3.406   0.458   7.724
12084WAT      O36493   7.149   9.801   0.632
12084WAT     H136494   7.163   9.868   0.559
12084WAT     H236495   7.092   9.840   0.704
12085WAT      O36496   2.358   7.004   0.582
12085WAT     H136497   2.352   7.071   0.655
12085WAT     H236498   2.267   6.978   0.552
12086WAT      O36499   9.881   0.936   8.507
12086WAT     H136500   9.786   0.941   8.538
12086WAT     H236501   9.883   0.901   8.413
12087WAT      O36502   8.856   8.371   7.676
12087WAT     H136503   8.933   8.419   7.633
12087WAT     H236504   8.831   8.293   7.619
12088WAT      O36505   5.566   5.795   2.860
12088WAT     H136506   5.629   5.780   2.936
12088WAT     H236507   5.547   5.709   2.814
12089WAT      O36508   3.886   9.032   4.926
12089WAT     H136509   3.842   9.118   4.952
12089WAT     H236510   3.980   9.032   4.959
12090WAT      O36511   4.729   3.587   0.812
12090WAT     H136512   4.712   3.562   0.908
12090WAT     H236513   4.713   3.685   0.800
12091WAT      O36514   6.565   2.548   0.314
12091WAT     H136515   6.477   2.557   0.268
12091WAT     H236516   6.573   2.457   0.355
12092WAT      O36517   8.586   6.028   6.136
12092WAT     H136518   8.498   6.014   6.090
12092WAT     H236519   8.623   5.940   6.165
12093WAT      O36520   2.123   0.514   7.105
12093WAT     H136521   2.202   0.544   7.051
12093WAT     H236522   2.039   0.548   7.062
12094WAT      O36523   0.157   8.552   5.809
12094WAT     H136524   0.063   8.534   5.839
12094WAT     H236525   0.201   8.614   5.874
12095WAT      O36526   8.445   2.875   5.728
12095WAT     H136527   8.537   2.899   5.698
12095WAT     H236528   8.404   2.955   5.773
12096WAT      O36529   8.666   1.399   7.139
12096WAT     H136530   8.745   1.413   7.078
12096WAT     H236531   8.582   1.421   7.090
12097WAT      O36532   1.302   2.824   6.618
12097WAT     H136533   1.393   2.835   6.657
12097WAT     H236534   1.256   2.913   6.614
12098WAT      O36535   6.756   7.768   6.578
12098WAT     H136536   6.845   7.727   6.555
12098WAT     H236537   6.705   7.785   6.493
12099WAT      O36538   9.370   5.462   7.577
12099WAT     H136539   9.333   5.389   7.633
12099WAT     H236540   9.332   5.455   7.484
12100WAT      O36541   3.153   2.088   8.226
12100WAT     H136542   3.111   2.065   8.139
12100WAT     H236543   3.097   2.051   8.301
12101WAT      O36544   6.575   6.620   7.145
12101WAT     H136545   6.582   6.529   7.185
12101WAT     H236546   6.617   6.687   7.207
12102WAT      O36547   7.204   3.536   4.334
12102WAT     H136548   7.223   3.438   4.340
12102WAT     H236549   7.218   3.578   4.424
12103WAT      O36550   6.141   6.530   0.544
12103WAT     H136551   6.052   6.565   0.513
12103WAT     H236552   6.146   6.538   0.644
12104WAT      O36553   4.802   3.480   3.147
12104WAT     H136554   4.705   3.488   3.171
12104WAT     H236555   4.818   3.394   3.099
12105WAT      O36556   3.208   5.369   9.103
12105WAT     H136557   3.278   5.390   9.171
12105WAT     H236558   3.248   5.313   9.030
12106WAT      O36559   0.703   2.583   3.180
12106WAT     H136560   0.624   2.530   3.150
12106WAT     H236561   0.674   2.675   3.204
12107WAT      O36562   7.996   6.565   1.801
12107WAT     H136563   8.054   6.484   1.809
12107WAT     H236564   8.015   6.628   1.877
12108WAT      O36565   8.132   4.806   6.275
12108WAT     H136566   8.072   4.885   6.265
12108WAT     H236567   8.190   4.798   6.194
12109WAT      O36568   2.369   8.427   6.186
12109WAT     H136569   2.334   8.397   6.097
12109WAT     H236570   2.341   8.522   6.202
12110WAT      O36571   0.498   2.232   1.127
12110WAT     H136572   0.456   2.242   1.217
12110WAT     H236573   0.592   2.267   1.131
12111WAT      O36574   3.785   0.983   3.086
12111WAT     H136575   3.860   0.962   3.149
12111WAT     H236576   3.802   0.939   2.998
12112WAT      O36577   1.666   4.286   0.320
12112WAT     H136578   1.655   4.331   0.409
12112WAT     H236579   1.604   4.208   0.314
12113WAT      O36580   6.399   0.098   8.038
12113WAT     H136581   6.368   0.129   7.948
12113WAT     H236582   6.325   0.050   8.084
12114WAT      O36583   0.971   5.604   9.026
12114WAT     H136584   0.907   5.657   8.970
12114WAT     H236585   1.056   5.590   8.974
12115WAT      O36586   9.367   1.827   0.995
12115WAT     H136587   9.426   1.854   0.919
12115WAT     H236588   9.284   1.883   0.994
12116WAT      O36589   7.446   1.228   1.987
12116WAT     H136590   7.418   1.161   2.056
12116WAT     H236591   7.367   1.285   1.962
12117WAT      O36592   6.672   7.138   6.652
12117WAT     H136593   6.615   7.207   6.606
12117WAT     H236594   6.761   7.178   6.675
12118WAT      O36595   4.105   1.549   0.075
12118WAT     H136596   4.125   1.460   0.116
12118WAT     H236597   4.083   1.615   0.147
12119WAT      O36598   3.438   5.595   9.662
12119WAT     H136599   3.382   5.548   9.730
12119WAT     H236600   3.497   5.662   9.707
12120WAT      O36601   6.135   2.275   7.889
12120WAT     H136602   6.204   2.311   7.952
12120WAT     H236603   6.104   2.185   7.920
12121WAT      O36604   8.966   9.548   8.941
12121WAT     H136605   8.952   9.564   8.844
12121WAT     H236606   9.011   9.627   8.982
12122WAT      O36607   5.714   0.847   5.234
12122WAT     H136608   5.749   0.825   5.143
12122WAT     H236609   5.614   0.854   5.230
12123WAT      O36610   0.902   0.768   9.632
12123WAT     H136611   0.959   0.731   9.705
12123WAT     H236612   0.846   0.695   9.593
12124WAT      O36613   0.489   8.271   0.198
12124WAT     H136614   0.457   8.364   0.180
12124WAT     H236615   0.410   8.213   0.219
12125WAT      O36616   3.436   3.360   9.493
12125WAT     H136617   3.495   3.393   9.567
12125WAT     H236618   3.420   3.434   9.428
12126WAT      O36619   6.740   8.509   3.577
12126WAT     H136620   6.642   8.511   3.557
12126WAT     H236621   6.754   8.496   3.675
12127WAT      O36622   7.337   2.247   2.533
12127WAT     H136623   7.315   2.343   2.517
12127WAT     H236624   7.329   2.196   2.447
12128WAT      O36625   3.577   5.161   5.231
12128WAT     H136626   3.528   5.076   5.251
12128WAT     H236627   3.549   5.232   5.295
12129WAT      O36628   3.369   6.840   1.609
12129WAT     H136629   3.352   6.803   1.518
12129WAT     H236630   3.329   6.780   1.678
12130WAT      O36631   9.266   0.490   1.711
12130WAT     H136632   9.280   0.568   1.773
12130WAT     H236633   9.213   0.520   1.632
12131WAT      O36634   7.517   5.674   8.216
12131WAT     H136635   7.516   5.717   8.307
12131WAT     H236636   7.422   5.660   8.186
12132WAT      O36637   3.149   2.784   0.044
12132WAT     H136638   3.242   2.747   0.050
12132WAT     H236639   3.145   2.853  -0.027
12133WAT      O36640   5.201   0.493   6.465
12133WAT     H136641   5.176   0.588   6.482
12133WAT     H236642   5.125   0.447   6.418
12134WAT      O36643   9.747   6.857   5.400
12134WAT     H136644   9.723   6.920   5.326
12134WAT     H236645   9.846   6.859   5.415
12135WAT      O36646   4.298   6.599   8.937
12135WAT     H136647   4.266   6.515   8.981
12135WAT     H236648   4.312   6.670   9.006
12136WAT      O36649   6.717   8.726   1.155
12136WAT     H136650   6.658   8.645   1.154
12136WAT     H236651   6.679   8.794   1.219
12137WAT      O36652   1.473   8.239   4.215
12137WAT     H136653   1.569   8.219   4.234
12137WAT     H236654   1.414   8.178   4.268
12138WAT      O36655   8.872   3.046   2.235
12138WAT     H136656   8.921   3.128   2.204
12138WAT     H236657   8.837   3.061   2.327
12139WAT      O36658   9.172   7.758   0.751
12139WAT     H136659   9.176   7.857   0.738
12139WAT     H236660   9.264   7.721   0.753
12140WAT      O36661   6.160   8.064   7.042
12140WAT     H136662   6.170   8.157   7.008
12140WAT     H236663   6.075   8.057   7.094
12141WAT      O36664   8.170   1.264   6.346
12141WAT     H136665   8.204   1.354   6.318
12141WAT     H236666   8.140   1.269   6.442
12142WAT      O36667   2.938   4.175   6.139
12142WAT     H136668   3.035   4.176   6.117
12142WAT     H236669   2.903   4.082   6.127
12143WAT      O36670   6.820   6.088   6.263
12143WAT     H136671   6.733   6.073   6.311
12143WAT     H236672   6.838   6.011   6.203
12144WAT      O36673   2.765   6.727   3.412
12144WAT     H136674   2.769   6.749   3.315
12144WAT     H236675   2.858   6.714   3.448
12145WAT      O36676   8.497   6.297   3.779
12145WAT     H136677   8.447   6.370   3.732
12145WAT     H236678   8.471   6.294   3.875
12146WAT      O36679   4.741   5.838   2.122
12146WAT     H136680   4.834   5.831   2.085
12146WAT     H236681   4.683   5.889   2.058
12147WAT      O36682   3.030   2.363   9.726
12147WAT     H136683   3.005   2.449   9.681
12147WAT     H236684   3.107   2.322   9.678
12148WAT      O36685   9.665   2.551   8.149
12148WAT     H136686   9.668   2.489   8.227
12148WAT     H236687   9.688   2.644   8.179
12149WAT      O36688   7.429   2.218   4.020
12149WAT     H136689   7.513   2.192   4.067
12149WAT     H236690   7.438   2.311   3.984
12150WAT      O36691   4.786   9.453   8.927
12150WAT     H136692   4.811   9.487   8.836
12150WAT     H236693   4.812   9.521   8.996
12151WAT      O36694   3.410   6.191   8.829
12151WAT     H136695   3.329   6.220   8.880
12151WAT     H236696   3.474   6.145   8.890
12152WAT      O36697   9.344   2.168   8.853
12152WAT     H136698   9.376   2.230   8.781
12152WAT     H236699   9.312   2.221   8.931
12153WAT      O36700   5.540   8.585   4.701
12153WAT     H136701   5.530   8.675   4.742
12153WAT     H236702   5.454   8.535   4.709
12154WAT      O36703   9.526   4.212   9.522
12154WAT     H136704   9.432   4.179   9.521
12154WAT     H236705   9.548   4.251   9.432
12155WAT      O36706   7.432   4.975   1.577
12155WAT     H136707   7.339   5.000   1.551
12155WAT     H236708   7.496   5.010   1.509
12156WAT      O36709   5.883   7.685   4.201
12156WAT     H136710   5.954   7.642   4.146
12156WAT     H236711   5.856   7.771   4.158
12157WAT      O36712   7.642   1.958   5.488
12157WAT     H136713   7.661   2.044   5.440
12157WAT     H236714   7.728   1.916   5.516
12158WAT      O36715   9.794   9.600   9.614
12158WAT     H136716   9.697   9.592   9.589
12158WAT     H236717   9.824   9.515   9.657
12159WAT      O36718   7.391   6.280   0.491
12159WAT     H136719   7.381   6.291   0.392
12159WAT     H236720   7.487   6.263   0.513
12160WAT      O36721   0.825   9.028   8.647
12160WAT     H136722   0.891   9.039   8.722
12160WAT     H236723   0.810   8.931   8.629
12161WAT      O36724   6.077   2.644   5.805
12161WAT     H136725   5.993   2.619   5.756
12161WAT     H236726   6.156   2.625   5.747
12162WAT      O36727   5.524   8.551   8.246
12162WAT     H136728   5.449   8.572   8.308
12162WAT     H236729   5.535   8.451   8.239
12163WAT      O36730   4.610   3.496   7.323
12163WAT     H136731   4.689   3.545   7.288
12163WAT     H236732   4.551   3.560   7.373
12164WAT      O36733   0.815   1.964   2.831
12164WAT     H136734   0.855   2.055   2.841
12164WAT     H236735   0.881   1.895   2.861
12165WAT      O36736   2.483   8.110   7.583
12165WAT     H136737   2.550   8.107   7.509
12165WAT     H236738   2.466   8.017   7.615
12166WAT      O36739   6.092   4.716   0.379
12166WAT     H136740   6.018   4.664   0.422
12166WAT     H236741   6.168   4.655   0.359
12167WAT      O36742   6.938   0.225   8.072
12167WAT     H136743   7.019   0.166   8.070
12167WAT     H236744   6.881   0.205   7.992
12168WAT      O36745   0.427   2.507   9.865
12168WAT     H136746   0.449   2.427   9.809
12168WAT     H236747   0.344   2.489   9.917
12169WAT      O36748   0.327   1.548   2.334
12169WAT     H136749   0.234   1.572   2.365
12169WAT     H236750   0.323   1.462   2.283
12170WAT      O36751   8.757   2.035   6.638
12170WAT     H136752   8.683   2.099   6.614
12170WAT     H236753   8.791   2.056   6.729
12171WAT      O36754   9.177   0.142   8.530
12171WAT     H136755   9.275   0.120   8.524
12171WAT     H236756   9.166   0.240   8.546
12172WAT      O36757   0.989   3.650   4.775
12172WAT     H136758   1.036   3.720   4.722
12172WAT     H236759   0.894   3.643   4.744
12173WAT      O36760   5.652   8.334   3.053
12173WAT     H136761   5.582   8.308   3.119
12173WAT     H236762   5.739   8.290   3.077
12174WAT      O36763   9.680   7.855   7.568
12174WAT     H136764   9.704   7.816   7.479
12174WAT     H236765   9.715   7.795   7.640
12175WAT      O36766   7.225   7.188   5.645
12175WAT     H136767   7.211   7.102   5.693
12175WAT     H236768   7.323   7.205   5.634
12176WAT      O36769   1.823   1.743   2.279
12176WAT     H136770   1.744   1.801   2.262
12176WAT     H236771   1.805   1.650   2.248
12177WAT      O36772   6.006   5.842   1.873
12177WAT     H136773   6.077   5.786   1.917
12177WAT     H236774   5.956   5.786   1.807
12178WAT      O36775   3.773   8.621   6.743
12178WAT     H136776   3.833   8.623   6.823
12178WAT     H236777   3.721   8.536   6.743
12179WAT      O36778   7.071   3.940   2.381
12179WAT     H136779   7.075   3.883   2.299
12179WAT     H236780   7.130   3.901   2.452
12180WAT      O36781   7.068   7.542   8.755
12180WAT     H136782   7.087   7.533   8.853
12180WAT     H236783   7.030   7.456   8.721
12181WAT      O36784   0.616   3.423   4.978
12181WAT     H136785   0.615   3.363   5.059
12181WAT     H236786   0.669   3.379   4.905
12182WAT      O36787   4.050   2.569   7.192
12182WAT     H136788   4.034   2.660   7.154
12182WAT     H236789   3.985   2.553   7.267
12183WAT      O36790   4.249   4.212   1.998
12183WAT     H136791   4.155   4.245   1.983
12183WAT     H236792   4.302   4.227   1.914
12184WAT      O36793   0.848   7.094   5.058
12184WAT     H136794   0.749   7.079   5.049
12184WAT     H236795   0.866   7.192   5.057
12185WAT      O36796   3.414   4.188   9.722
12185WAT     H136797   3.460   4.110   9.679
12185WAT     H236798   3.315   4.172   9.722
12186WAT      O36799   3.168   7.605   9.110
12186WAT     H136800   3.132   7.575   9.023
12186WAT     H236801   3.136   7.698   9.129
12187WAT      O36802   2.959   3.423   8.445
12187WAT     H136803   2.859   3.420   8.450
12187WAT     H236804   2.987   3.408   8.350
12188WAT      O36805   3.598   3.033   4.363
12188WAT     H136806   3.682   3.045   4.311
12188WAT     H236807   3.607   3.075   4.453
12189WAT      O36808   2.210   3.634   2.645
12189WAT     H136809   2.126   3.688   2.651
12189WAT     H236810   2.268   3.670   2.571
12190WAT      O36811   3.517   0.392   3.417
12190WAT     H136812   3.558   0.411   3.328
12190WAT     H236813   3.419   0.372   3.406
12191WAT      O36814   4.683   2.692   6.107
12191WAT     H136815   4.602   2.660   6.156
12191WAT     H236816   4.671   2.788   6.082
12192WAT      O36817   1.697   1.525   2.141
12192WAT     H136818   1.709   1.468   2.060
12192WAT     H236819   1.609   1.505   2.184
12193WAT      O36820   7.944   4.141   2.771
12193WAT     H136821   7.937   4.103   2.863
12193WAT     H236822   8.007   4.086   2.717
12194WAT      O36823   0.749   2.107   0.056
12194WAT     H136824   0.665   2.053   0.060
12194WAT     H236825   0.803   2.091   0.138
12195WAT      O36826   4.487   7.244   1.358
12195WAT     H136827   4.549   7.317   1.328
12195WAT     H236828   4.521   7.156   1.325
12196WAT      O36829   7.094   7.540   4.015
12196WAT     H136830   7.129   7.613   4.074
12196WAT     H236831   7.003   7.565   3.982
12197WAT      O36832   8.392   5.454   5.638
12197WAT     H136833   8.381   5.456   5.738
12197WAT     H236834   8.331   5.521   5.597
12198WAT      O36835   0.707   1.807   8.616
12198WAT     H136836   0.632   1.810   8.549
12198WAT     H236837   0.679   1.750   8.693
12199WAT      O36838   3.438   9.743   0.068
12199WAT     H136839   3.507   9.678   0.099
12199WAT     H236840   3.353   9.695   0.049
12200WAT      O36841   1.975   2.057   4.034
12200WAT     H136842   1.940   2.072   4.126
12200WAT     H236843   2.003   1.961   4.024
12201WAT      O36844   1.996   0.607   0.242
12201WAT     H136845   2.083   0.622   0.194
12201WAT     H236846   1.928   0.673   0.209
12202WAT      O36847   1.427   8.367   0.379
12202WAT     H136848   1.402   8.312   0.300
12202WAT     H236849   1.352   8.368   0.445
12203WAT      O36850   0.405   8.803   7.553
12203WAT     H136851   0.443   8.835   7.466
12203WAT     H236852   0.317   8.759   7.537
12204WAT      O36853   2.909   2.209   1.574
12204WAT     H136854   2.882   2.285   1.633
12204WAT     H236855   2.968   2.243   1.500
12205WAT      O36856   4.765   4.071   0.653
12205WAT     H136857   4.704   4.145   0.681
12205WAT     H236858   4.765   4.064   0.553
12206WAT      O36859   5.939   3.833   7.957
12206WAT     H136860   5.876   3.758   7.977
12206WAT     H236861   5.929   3.905   8.026
12207WAT      O36862   3.926   4.429   8.814
12207WAT     H136863   3.833   4.431   8.851
12207WAT     H236864   3.923   4.457   8.718
12208WAT      O36865   2.718   0.876   8.453
12208WAT     H136866   2.653   0.830   8.512
12208WAT     H236867   2.766   0.947   8.505
12209WAT      O36868   0.959   5.785   3.674
12209WAT     H136869   0.962   5.691   3.709
12209WAT     H236870   0.934   5.783   3.577
12210WAT      O36871   3.441   1.035   4.822
12210WAT     H136872   3.370   1.048   4.891
12210WAT     H236873   3.400   1.039   4.731
12211WAT      O36874   0.135   6.252   5.372
12211WAT     H136875   0.069   6.212   5.308
12211WAT     H236876   0.190   6.321   5.324
12212WAT      O36877   0.240   6.464   8.427
12212WAT     H136878   0.259   6.551   8.382
12212WAT     H236879   0.169   6.476   8.496
12213WAT      O36880   0.495   4.326   7.518
12213WAT     H136881   0.529   4.415   7.488
12213WAT     H236882   0.495   4.262   7.441
12214WAT      O36883   7.794   0.330   1.344
12214WAT     H136884   7.759   0.237   1.331
12214WAT     H236885   7.823   0.342   1.439
12215WAT      O36886   9.242   5.848   2.605
12215WAT     H136887   9.269   5.795   2.524
12215WAT     H236888   9.202   5.787   2.673
12216WAT      O36889   2.488   0.126   4.624
12216WAT     H136890   2.555   0.142   4.696
12216WAT     H236891   2.419   0.060   4.657
12217WAT      O36892   5.954   1.864   5.929
12217WAT     H136893   5.877   1.886   5.989
12217WAT     H236894   6.020   1.808   5.980
12218WAT      O36895   9.301   5.730   8.177
12218WAT     H136896   9.387   5.713   8.225
12218WAT     H236897   9.262   5.817   8.207
12219WAT      O36898   5.031   9.243   8.228
12219WAT     H136899   4.934   9.218   8.222
12219WAT     H236900   5.045   9.309   8.302
12220WAT      O36901   1.310   2.109   8.872
12220WAT     H136902   1.379   2.172   8.910
12220WAT     H236903   1.356   2.033   8.826
12221WAT      O36904   4.380   3.133   0.429
12221WAT     H136905   4.383   3.196   0.507
12221WAT     H236906   4.332   3.177   0.353
12222WAT      O36907   4.285   1.428   2.888
12222WAT     H136908   4.221   1.497   2.923
12222WAT     H236909   4.316   1.455   2.797
12223WAT      O36910   6.733   5.290   0.462
12223WAT     H136911   6.654   5.239   0.496
12223WAT     H236912   6.716   5.388   0.472
12224WAT      O36913   3.976   7.505   7.244
12224WAT     H136914   4.063   7.506   7.293
12224WAT     H236915   3.957   7.596   7.209
12225WAT      O36916   3.512   0.990   3.810
12225WAT     H136917   3.586   1.057   3.821
12225WAT     H236918   3.502   0.967   3.713
12226WAT      O36919   0.648   6.583   5.756
12226WAT     H136920   0.730   6.543   5.715
12226WAT     H236921   0.673   6.660   5.814
12227WAT      O36922   0.695   7.055   6.783
12227WAT     H136923   0.602   7.021   6.797
12227WAT     H236924   0.758   7.009   6.846
12228WAT      O36925   4.651   4.379   6.087
12228WAT     H136926   4.639   4.341   5.995
12228WAT     H236927   4.712   4.320   6.140
12229WAT      O36928   8.023   1.763   5.984
12229WAT     H136929   7.993   1.819   6.061
12229WAT     H236930   7.944   1.742   5.925
12230WAT      O36931   2.513   1.121   1.012
12230WAT     H136932   2.566   1.123   1.097
12230WAT     H236933   2.558   1.061   0.946
12231WAT      O36934   6.673   3.944   1.296
12231WAT     H136935   6.756   3.939   1.352
12231WAT     H236936   6.628   4.032   1.310
12232WAT      O36937   9.115   8.098   2.364
12232WAT     H136938   9.021   8.101   2.329
12232WAT     H236939   9.154   8.008   2.346
12233WAT      O36940   8.948   4.318   6.177
12233WAT     H136941   8.980   4.388   6.113
12233WAT     H236942   8.993   4.231   6.157
12234WAT      O36943   2.287   4.557   0.930
12234WAT     H136944   2.238   4.511   0.856
12234WAT     H236945   2.299   4.654   0.907
12235WAT      O36946   7.603   0.581   8.801
12235WAT     H136947   7.650   0.555   8.716
12235WAT     H236948   7.533   0.513   8.823
12236WAT      O36949   7.859   4.923   1.425
12236WAT     H136950   7.827   4.893   1.335
12236WAT     H236951   7.890   5.018   1.419
12237WAT      O36952   5.193   4.199   7.440
12237WAT     H136953   5.153   4.265   7.505
12237WAT     H236954   5.196   4.240   7.349
12238WAT      O36955   3.683   2.377   6.157
12238WAT     H136956   3.751   2.438   6.197
12238WAT     H236957   3.622   2.343   6.228
12239WAT      O36958   6.381   8.072   0.977
12239WAT     H136959   6.428   8.063   1.065
12239WAT     H236960   6.292   8.115   0.991
12240WAT      O36961   8.828   6.963   8.189
12240WAT     H136962   8.826   7.063   8.183
12240WAT     H236963   8.880   6.935   8.271
12241WAT      O36964   1.062   2.419   6.643
12241WAT     H136965   1.159   2.397   6.638
12241WAT     H236966   1.049   2.516   6.622
12242WAT      O36967   1.277   7.047   3.275
12242WAT     H136968   1.312   7.137   3.302
12242WAT     H236969   1.192   7.028   3.324
12243WAT      O36970   2.689   0.954   5.056
12243WAT     H136971   2.783   0.928   5.075
12243WAT     H236972   2.635   0.949   5.140
12244WAT      O36973   8.794   5.563   6.906
12244WAT     H136974   8.820   5.576   7.002
12244WAT     H236975   8.853   5.494   6.865
12245WAT      O36976   0.879   2.974   5.066
12245WAT     H136977   0.849   2.925   4.984
12245WAT     H236978   0.845   2.928   5.148
12246WAT      O36979   1.611   4.798   4.227
12246WAT     H136980   1.551   4.877   4.224
12246WAT     H236981   1.702   4.825   4.258
12247WAT      O36982   6.211   0.196   5.791
12247WAT     H136983   6.173   0.200   5.884
12247WAT     H236984   6.140   0.166   5.727
12248WAT      O36985   2.064   6.408   2.373
12248WAT     H136986   2.094   6.344   2.444
12248WAT     H236987   2.015   6.484   2.416
12249WAT      O36988   4.287   5.283   4.586
12249WAT     H136989   4.274   5.185   4.601
12249WAT     H236990   4.346   5.296   4.506
12250WAT      O36991   2.216   7.177   7.162
12250WAT     H136992   2.220   7.271   7.197
12250WAT     H236993   2.176   7.177   7.071
12251WAT      O36994   8.224   0.445   3.657
12251WAT     H136995   8.214   0.379   3.583
12251WAT     H236996   8.136   0.488   3.677
12252WAT      O36997   6.086   3.042   4.320
12252WAT     H136998   5.986   3.043   4.311
12252WAT     H236999   6.115   2.950   4.346
12253WAT      O37000   4.664   5.294   5.829
12253WAT     H137001   4.616   5.350   5.897
12253WAT     H237002   4.700   5.213   5.874
12254WAT      O37003   2.533   2.424   4.454
12254WAT     H137004   2.482   2.387   4.532
12254WAT     H237005   2.535   2.524   4.459
12255WAT      O37006   4.581   2.671   7.687
12255WAT     H137007   4.658   2.681   7.750
12255WAT     H237008   4.509   2.618   7.732
12256WAT      O37009   8.364   1.923   6.137
12256WAT     H137010   8.282   1.977   6.121
12256WAT     H237011   8.440   1.962   6.084
12257WAT      O37012   5.616   7.685   4.043
12257WAT     H137013   5.676   7.605   4.033
12257WAT     H237014   5.521   7.655   4.044
12258WAT      O37015   3.427   6.380   7.918
12258WAT     H137016   3.397   6.472   7.891
12258WAT     H237017   3.479   6.386   8.003
12259WAT      O37018   5.563   8.626   0.494
12259WAT     H137019   5.548   8.715   0.535
12259WAT     H237020   5.548   8.554   0.562
12260WAT      O37021   0.947   3.587   0.760
12260WAT     H137022   1.001   3.503   0.763
12260WAT     H237023   0.973   3.640   0.679
12261WAT      O37024   3.390   2.031   4.455
12261WAT     H137025   3.378   1.954   4.392
12261WAT     H237026   3.351   2.114   4.415
12262WAT      O37027   6.542   2.380   3.529
12262WAT     H137028   6.585   2.292   3.512
12262WAT     H237029   6.594   2.452   3.483
12263WAT      O37030   6.893   0.065   4.147
12263WAT     H137031   6.821   0.015   4.099
12263WAT     H237032   6.899   0.158   4.109
12264WAT      O37033   3.305   3.922   9.815
12264WAT     H137034   3.279   3.850   9.879
12264WAT     H237035   3.359   3.991   9.863
12265WAT      O37036   5.150   6.428   0.487
12265WAT     H137037   5.247   6.448   0.500
12265WAT     H237038   5.139   6.332   0.461
12266WAT      O37039   2.458   4.365   3.988
12266WAT     H137040   2.419   4.392   3.900
12266WAT     H237041   2.427   4.272   4.011
12267WAT      O37042   6.976   2.822   6.882
12267WAT     H137043   6.925   2.896   6.925
12267WAT     H237044   7.041   2.784   6.947
12268WAT      O37045   5.105   7.907   0.525
12268WAT     H137046   5.166   7.907   0.604
12268WAT     H237047   5.027   7.846   0.542
12269WAT      O37048   7.766   8.412   2.311
12269WAT     H137049   7.742   8.444   2.219
12269WAT     H237050   7.743   8.315   2.319
12270WAT      O37051   2.457   3.925   6.108
12270WAT     H137052   2.378   3.863   6.105
12270WAT     H237053   2.477   3.949   6.202
12271WAT      O37054   5.871   0.801   7.042
12271WAT     H137055   5.860   0.705   7.020
12271WAT     H237056   5.960   0.833   7.008
12272WAT      O37057   0.222   6.435   2.981
12272WAT     H137058   0.303   6.440   2.923
12272WAT     H237059   0.191   6.528   3.002
12273WAT      O37060   7.900   3.287   8.734
12273WAT     H137061   7.970   3.287   8.663
12273WAT     H237062   7.931   3.340   8.813
12274WAT      O37063   0.260   9.768   3.455
12274WAT     H137064   0.304   9.839   3.399
12274WAT     H237065   0.297   9.679   3.429
12275WAT      O37066   4.177   5.981   2.749
12275WAT     H137067   4.192   5.910   2.680
12275WAT     H237068   4.112   5.947   2.817
12276WAT      O37069   9.829   4.713   4.446
12276WAT     H137070   9.873   4.640   4.394
12276WAT     H237071   9.740   4.733   4.405
12277WAT      O37072   8.701   0.585   6.022
12277WAT     H137073   8.665   0.636   5.944
12277WAT     H237074   8.760   0.511   5.990
12278WAT      O37075   4.219   8.106   8.910
12278WAT     H137076   4.215   8.006   8.919
12278WAT     H237077   4.146   8.136   8.848
12279WAT      O37078   7.487   1.086   6.851
12279WAT     H137079   7.438   1.009   6.891
12279WAT     H237080   7.579   1.057   6.826
12280WAT      O37081   2.599   1.997   3.060
12280WAT     H137082   2.583   1.927   2.990
12280WAT     H237083   2.655   2.070   3.021
12281WAT      O37084   8.143   2.283   6.967
12281WAT     H137085   8.064   2.241   6.924
12281WAT     H237086   8.142   2.381   6.950
12282WAT      O37087   1.459   5.499   6.194
12282WAT     H137088   1.536   5.547   6.152
12282WAT     H237089   1.393   5.567   6.228
12283WAT      O37090   2.022   6.919   9.410
12283WAT     H137091   1.987   6.839   9.362
12283WAT     H237092   1.992   6.917   9.505
12284WAT      O37093   0.119   3.762   0.268
12284WAT     H137094   0.188   3.713   0.320
12284WAT     H237095   0.062   3.815   0.331
12285WAT      O37096   2.216   5.270   4.351
12285WAT     H137097   2.174   5.357   4.323
12285WAT     H237098   2.191   5.199   4.285
12286WAT      O37099   5.616   7.664   8.359
12286WAT     H137100   5.586   7.577   8.321
12286WAT     H237101   5.548   7.697   8.425
12287WAT      O37102   2.180   2.217   5.199
12287WAT     H137103   2.086   2.249   5.190
12287WAT     H237104   2.230   2.277   5.262
12288WAT      O37105   5.832   0.969   9.307
12288WAT     H137106   5.808   0.901   9.238
12288WAT     H237107   5.857   1.055   9.263
12289WAT      O37108   9.258   4.245   2.350
12289WAT     H137109   9.190   4.261   2.422
12289WAT     H237110   9.243   4.156   2.308
12290WAT      O37111   6.284   7.227   7.885
12290WAT     H137112   6.381   7.214   7.861
12290WAT     H237113   6.227   7.184   7.815
12291WAT      O37114   7.111   0.822   2.829
12291WAT     H137115   7.165   0.739   2.817
12291WAT     H237116   7.014   0.798   2.832
12292WAT      O37117   2.276   3.676   3.783
12292WAT     H137118   2.195   3.659   3.839
12292WAT     H237119   2.264   3.635   3.693
12293WAT      O37120   7.659   7.382   4.549
12293WAT     H137121   7.651   7.443   4.629
12293WAT     H237122   7.613   7.424   4.471
12294WAT      O37123   8.147   8.942   7.966
12294WAT     H137124   8.079   9.001   7.921
12294WAT     H237125   8.214   8.999   8.014
12295WAT      O37126   2.450   4.681   3.777
12295WAT     H137127   2.414   4.588   3.768
12295WAT     H237128   2.425   4.734   3.696
12296WAT      O37129   4.690   1.171   6.065
12296WAT     H137130   4.701   1.221   6.151
12296WAT     H237131   4.716   1.229   5.989
12297WAT      O37132   0.087   5.425   3.260
12297WAT     H137133   0.033   5.472   3.330
12297WAT     H237134   0.044   5.338   3.238
12298WAT      O37135   5.108   4.467   6.701
12298WAT     H137136   5.151   4.383   6.667
12298WAT     H237137   5.148   4.490   6.790
12299WAT      O37138   1.516   5.601   2.471
12299WAT     H137139   1.483   5.595   2.566
12299WAT     H237140   1.554   5.513   2.444
12300WAT      O37141   8.320   3.252   0.390
12300WAT     H137142   8.339   3.331   0.448
12300WAT     H237143   8.278   3.282   0.305
12301WAT      O37144   2.797   5.440   8.911
12301WAT     H137145   2.874   5.379   8.929
12301WAT     H237146   2.806   5.481   8.821
12302WAT      O37147   0.514   4.421   5.219
12302WAT     H137148   0.554   4.443   5.130
12302WAT     H237149   0.557   4.338   5.254
12303WAT      O37150   8.368   4.654   0.062
12303WAT     H137151   8.343   4.739   0.015
12303WAT     H237152   8.377   4.580  -0.005
12304WAT      O37153   8.338   5.723   8.554
12304WAT     H137154   8.352   5.815   8.590
12304WAT     H237155   8.302   5.728   8.461
12305WAT      O37156   8.905   7.135   3.884
12305WAT     H137157   8.948   7.077   3.953
12305WAT     H237158   8.878   7.079   3.806
12306WAT      O37159   3.829   5.673   8.652
12306WAT     H137160   3.817   5.574   8.655
12306WAT     H237161   3.901   5.695   8.586
12307WAT      O37162   3.304   4.312   0.078
12307WAT     H137163   3.367   4.235   0.073
12307WAT     H237164   3.334   4.375   0.150
12308WAT      O37165   8.523   7.367   6.052
12308WAT     H137166   8.483   7.451   6.089
12308WAT     H237167   8.569   7.387   5.966
12309WAT      O37168   0.065   1.279   7.955
12309WAT     H137169   0.137   1.348   7.958
12309WAT     H237170   0.106   1.188   7.958
12310WAT      O37171   7.469   6.151   4.542
12310WAT     H137172   7.561   6.185   4.561
12310WAT     H237173   7.429   6.202   4.466
12311WAT      O37174   6.564   5.099   0.543
12311WAT     H137175   6.465   5.107   0.554
12311WAT     H237176   6.585   5.015   0.494
12312WAT      O37177   9.029   4.612   6.081
12312WAT     H137178   9.005   4.681   6.013
12312WAT     H237179   9.081   4.539   6.037
12313WAT      O37180   8.281   9.241   8.639
12313WAT     H137181   8.191   9.238   8.682
12313WAT     H237182   8.291   9.164   8.576
12314WAT      O37183   8.395   6.313   1.487
12314WAT     H137184   8.461   6.301   1.413
12314WAT     H237185   8.443   6.317   1.574
12315WAT      O37186   6.769   7.602   7.812
12315WAT     H137187   6.672   7.629   7.808
12315WAT     H237188   6.787   7.532   7.743
12316WAT      O37189   1.157   6.746   0.448
12316WAT     H137190   1.105   6.698   0.519
12316WAT     H237191   1.159   6.844   0.469
12317WAT      O37192   4.408   6.186   0.964
12317WAT     H137193   4.456   6.274   0.968
12317WAT     H237194   4.475   6.112   0.964
12318WAT      O37195   6.021   6.455   5.607
12318WAT     H137196   6.102   6.464   5.549
12318WAT     H237197   5.941   6.441   5.549
12319WAT      O37198   0.666   0.807   2.028
12319WAT     H137199   0.746   0.859   2.060
12319WAT     H237200   0.637   0.743   2.100
12320WAT      O37201   2.951   8.305   2.997
12320WAT     H137202   3.034   8.250   2.990
12320WAT     H237203   2.912   8.319   2.906
12321WAT      O37204   3.690   2.292   4.505
12321WAT     H137205   3.729   2.346   4.579
12321WAT     H237206   3.656   2.353   4.433
12322WAT      O37207   0.492   9.027   3.699
12322WAT     H137208   0.449   9.067   3.618
12322WAT     H237209   0.533   9.099   3.754
12323WAT      O37210   7.986   2.121   1.054
12323WAT     H137211   7.903   2.079   1.092
12323WAT     H237212   8.066   2.076   1.094
12324WAT      O37213   7.448   7.036   7.166
12324WAT     H137214   7.388   6.960   7.191
12324WAT     H237215   7.544   7.009   7.179
12325WAT      O37216   5.020   1.499   7.392
12325WAT     H137217   5.023   1.430   7.319
12325WAT     H237218   5.112   1.511   7.430
12326WAT      O37219   0.068   3.442   9.293
12326WAT     H137220   0.104   3.491   9.372
12326WAT     H237221  -0.031   3.453   9.290
12327WAT      O37222   6.327   5.858   5.014
12327WAT     H137223   6.379   5.775   4.991
12327WAT     H237224   6.376   5.911   5.083
12328WAT      O37225   0.505   5.197   7.127
12328WAT     H137226   0.457   5.285   7.128
12328WAT     H237227   0.469   5.139   7.199
12329WAT      O37228   2.750   6.327   1.345
12329WAT     H137229   2.666   6.382   1.346
12329WAT     H237230   2.807   6.352   1.423
12330WAT      O37231   5.247   8.584   9.176
12330WAT     H137232   5.171   8.644   9.202
12330WAT     H237233   5.268   8.598   9.079
12331WAT      O37234   6.598   1.622   5.839
12331WAT     H137235   6.553   1.650   5.754
12331WAT     H237236   6.576   1.527   5.859
12332WAT      O37237   3.296   7.254   0.041
12332WAT     H137238   3.228   7.291   0.104
12332WAT     H237239   3.387   7.286   0.069
12333WAT      O37240   5.154   5.240   0.831
12333WAT     H137241   5.163   5.142   0.848
12333WAT     H237242   5.107   5.284   0.907
12334WAT      O37243   4.808   1.180   5.512
12334WAT     H137244   4.861   1.262   5.490
12334WAT     H237245   4.723   1.181   5.460
12335WAT      O37246   0.523   5.612   4.255
12335WAT     H137247   0.575   5.565   4.327
12335WAT     H237248   0.565   5.594   4.166
12336WAT      O37249   3.399   9.561   7.405
12336WAT     H137250   3.366   9.636   7.462
12336WAT     H237251   3.414   9.594   7.312
12337WAT      O37252   8.685   9.661   2.673
12337WAT     H137253   8.712   9.571   2.706
12337WAT     H237254   8.765   9.708   2.635
12338WAT      O37255   6.162   0.435   6.745
12338WAT     H137256   6.093   0.370   6.713
12338WAT     H237257   6.138   0.527   6.715
12339WAT      O37258   1.752   0.739   2.454
12339WAT     H137259   1.777   0.646   2.479
12339WAT     H237260   1.820   0.775   2.390
12340WAT      O37261   6.085   4.047   5.727
12340WAT     H137262   6.119   3.969   5.675
12340WAT     H237263   6.161   4.111   5.745
12341WAT      O37264   3.525   4.461   9.862
12341WAT     H137265   3.588   4.432   9.934
12341WAT     H237266   3.460   4.388   9.844
12342WAT      O37267   4.007   5.612   0.080
12342WAT     H137268   3.938   5.668   0.034
12342WAT     H237269   4.087   5.602   0.021
12343WAT      O37270   3.118   5.609   0.215
12343WAT     H137271   3.108   5.691   0.270
12343WAT     H237272   3.158   5.536   0.271
12344WAT      O37273   1.698   4.591   3.303
12344WAT     H137274   1.621   4.651   3.326
12344WAT     H237275   1.781   4.624   3.348
12345WAT      O37276   4.151   3.346   9.558
12345WAT     H137277   4.135   3.445   9.566
12345WAT     H237278   4.082   3.297   9.611
12346WAT      O37279   8.455   0.095   9.871
12346WAT     H137280   8.463   0.189   9.903
12346WAT     H237281   8.538   0.069   9.823
12347WAT      O37282   4.955   7.047   2.089
12347WAT     H137283   4.939   6.981   2.163
12347WAT     H237284   5.048   7.082   2.096
12348WAT      O37285   6.467   8.045   7.292
12348WAT     H137286   6.456   7.945   7.287
12348WAT     H237287   6.510   8.078   7.208
12349WAT      O37288   5.495   1.660   6.986
12349WAT     H137289   5.431   1.640   7.061
12349WAT     H237290   5.546   1.743   7.007
12350WAT      O37291   9.180   5.490   8.112
12350WAT     H137292   9.219   5.579   8.131
12350WAT     H237293   9.215   5.423   8.178
12351WAT      O37294   4.410   1.185   7.229
12351WAT     H137295   4.508   1.197   7.214
12351WAT     H237296   4.375   1.263   7.281
12352WAT      O37297   7.449   9.631   7.611
12352WAT     H137298   7.544   9.598   7.616
12352WAT     H237299   7.449   9.730   7.620
12353WAT      O37300   4.479   0.823   0.701
12353WAT     H137301   4.407   0.763   0.736
12353WAT     H237302   4.536   0.773   0.636
12354WAT      O37303   6.600   3.115   9.097
12354WAT     H137304   6.673   3.116   9.029
12354WAT     H237305   6.600   3.202   9.148
12355WAT      O37306   1.936   8.543   5.364
12355WAT     H137307   1.910   8.449   5.344
12355WAT     H237308   1.949   8.594   5.279
12356WAT      O37309   1.487   9.118   3.373
12356WAT     H137310   1.435   9.093   3.292
12356WAT     H237311   1.434   9.096   3.455
12357WAT      O37312   1.873   6.323   2.173
12357WAT     H137313   1.850   6.226   2.179
12357WAT     H237314   1.934   6.349   2.247
12358WAT      O37315   9.273   2.719   4.592
12358WAT     H137316   9.222   2.716   4.677
12358WAT     H237317   9.235   2.789   4.532
12359WAT      O37318   7.225   5.773   5.445
12359WAT     H137319   7.228   5.676   5.470
12359WAT     H237320   7.200   5.781   5.348
12360WAT      O37321   4.689   8.579   0.952
12360WAT     H137322   4.724   8.576   1.045
12360WAT     H237323   4.613   8.514   0.942
12361WAT      O37324   8.491   6.825   0.947
12361WAT     H137325   8.496   6.910   0.894
12361WAT     H237326   8.418   6.833   1.015
12362WAT      O37327   7.885   2.672   6.508
12362WAT     H137328   7.785   2.668   6.502
12362WAT     H237329   7.913   2.657   6.603
12363WAT      O37330   9.104   3.658   6.131
12363WAT     H137331   9.099   3.758   6.135
12363WAT     H237332   9.073   3.626   6.042
12364WAT      O37333   5.677   5.909   1.752
12364WAT     H137334   5.619   5.848   1.806
12364WAT     H237335   5.767   5.867   1.741
12365WAT      O37336   1.439   6.930   8.192
12365WAT     H137337   1.349   6.914   8.152
12365WAT     H237338   1.475   6.845   8.230
12366WAT      O37339   2.241   5.931   0.992
12366WAT     H137340   2.246   6.019   1.040
12366WAT     H237341   2.314   5.871   1.024
12367WAT      O37342   3.414   8.485   9.769
12367WAT     H137343   3.367   8.432   9.699
12367WAT     H237344   3.497   8.437   9.798
12368WAT      O37345   3.251   0.327   8.584
12368WAT     H137346   3.165   0.316   8.534
12368WAT     H237347   3.277   0.423   8.584
12369WAT      O37348   2.217   5.025   2.264
12369WAT     H137349   2.126   4.985   2.275
12369WAT     H237350   2.257   5.045   2.353
12370WAT      O37351   2.910   1.531   2.031
12370WAT     H137352   2.945   1.528   1.937
12370WAT     H237353   2.939   1.449   2.080
12371WAT      O37354   2.649   9.060   5.874
12371WAT     H137355   2.748   9.058   5.887
12371WAT     H237356   2.614   8.966   5.873
12372WAT      O37357   4.105   6.624   7.790
12372WAT     H137358   4.032   6.661   7.847
12372WAT     H237359   4.161   6.560   7.844
12373WAT      O37360   4.567   4.520   9.649
12373WAT     H137361   4.537   4.461   9.724
12373WAT     H237362   4.561   4.470   9.563
12374WAT      O37363   0.520   4.959   7.851
12374WAT     H137364   0.578   5.018   7.796
12374WAT     H237365   0.477   5.013   7.924
12375WAT      O37366   5.585   9.378   8.963
12375WAT     H137367   5.641   9.309   9.009
12375WAT     H237368   5.531   9.427   9.031
12376WAT      O37369   3.809   6.277   9.891
12376WAT     H137370   3.732   6.315   9.838
12376WAT     H237371   3.887   6.263   9.830
12377WAT      O37372   5.426   5.052   8.207
12377WAT     H137373   5.452   5.058   8.304
12377WAT     H237374   5.474   5.123   8.156
12378WAT      O37375   2.381   7.510   4.076
12378WAT     H137376   2.459   7.563   4.045
12378WAT     H237377   2.374   7.516   4.175
12379WAT      O37378   0.658   5.546   1.597
12379WAT     H137379   0.671   5.520   1.693
12379WAT     H237380   0.676   5.467   1.538
12380WAT      O37381   6.252   7.354   2.391
12380WAT     H137382   6.267   7.435   2.448
12380WAT     H237383   6.240   7.382   2.296
12381WAT      O37384   8.510   3.967   1.520
12381WAT     H137385   8.509   4.035   1.446
12381WAT     H237386   8.604   3.953   1.551
12382WAT      O37387   6.918   2.287   5.866
12382WAT     H137388   6.985   2.227   5.910
12382WAT     H237389   6.856   2.232   5.810
12383WAT      O37390   6.102   3.182   2.068
12383WAT     H137391   6.128   3.221   1.980
12383WAT     H237392   6.015   3.221   2.097
12384WAT      O37393   5.455   4.803   8.095
12384WAT     H137394   5.424   4.743   8.169
12384WAT     H237395   5.437   4.898   8.121
12385WAT      O37396   8.472   0.441   9.714
12385WAT     H137397   8.446   0.380   9.788
12385WAT     H237398   8.561   0.482   9.734
12386WAT      O37399   8.585   5.414   5.466
12386WAT     H137400   8.575   5.327   5.419
12386WAT     H237401   8.515   5.422   5.537
12387WAT      O37402   0.395   3.852   0.669
12387WAT     H137403   0.398   3.928   0.604
12387WAT     H237404   0.346   3.880   0.751
12388WAT      O37405   5.337   9.191   3.003
12388WAT     H137406   5.254   9.203   2.948
12388WAT     H237407   5.371   9.281   3.030
12389WAT      O37408   1.156   3.902   9.764
12389WAT     H137409   1.208   3.845   9.828
12389WAT     H237410   1.209   3.914   9.680
12390WAT      O37411   5.468   9.256   3.956
12390WAT     H137412   5.553   9.277   4.004
12390WAT     H237413   5.488   9.203   3.874
12391WAT      O37414   3.196   7.709   6.785
12391WAT     H137415   3.290   7.678   6.770
12391WAT     H237416   3.179   7.790   6.730
12392WAT      O37417   1.526   0.825   9.196
12392WAT     H137418   1.626   0.829   9.201
12392WAT     H237419   1.489   0.917   9.208
12393WAT      O37420   7.553   5.192   9.391
12393WAT     H137421   7.576   5.146   9.477
12393WAT     H237422   7.468   5.153   9.355
12394WAT      O37423   4.004   6.618   3.061
12394WAT     H137424   4.096   6.650   3.082
12394WAT     H237425   3.939   6.653   3.128
12395WAT      O37426   9.430   0.365   5.590
12395WAT     H137427   9.461   0.272   5.569
12395WAT     H237428   9.437   0.381   5.688
12396WAT      O37429   2.307   6.438   5.213
12396WAT     H137430   2.296   6.526   5.261
12396WAT     H237431   2.242   6.372   5.251
12397WAT      O37432   7.986   9.760   6.579
12397WAT     H137433   7.894   9.785   6.549
12397WAT     H237434   7.993   9.661   6.585
12398WAT      O37435   9.619   1.731   9.695
12398WAT     H137436   9.682   1.769   9.628
12398WAT     H237437   9.668   1.712   9.780
12399WAT      O37438   4.894   3.273   1.977
12399WAT     H137439   4.949   3.343   1.931
12399WAT     H237440   4.886   3.296   2.074
12400WAT      O37441   1.135   7.767   1.017
12400WAT     H137442   1.106   7.863   1.022
12400WAT     H237443   1.054   7.708   1.010
12401WAT      O37444   6.479   8.131   5.459
12401WAT     H137445   6.571   8.147   5.494
12401WAT     H237446   6.449   8.209   5.405
12402WAT      O37447   0.504   0.410   1.294
12402WAT     H137448   0.468   0.369   1.210
12402WAT     H237449   0.512   0.340   1.364
12403WAT      O37450   2.801   5.617   5.685
12403WAT     H137451   2.768   5.538   5.634
12403WAT     H237452   2.859   5.673   5.625
12404WAT      O37453   0.772   5.456   0.920
12404WAT     H137454   0.862   5.498   0.904
12404WAT     H237455   0.722   5.453   0.834
12405WAT      O37456   9.432   6.473   2.254
12405WAT     H137457   9.405   6.560   2.214
12405WAT     H237458   9.522   6.447   2.219
12406WAT      O37459   7.143   6.267   8.563
12406WAT     H137460   7.071   6.221   8.616
12406WAT     H237461   7.170   6.209   8.486
12407WAT      O37462   5.559   2.328   4.399
12407WAT     H137463   5.569   2.319   4.300
12407WAT     H237464   5.626   2.394   4.433
12408WAT      O37465   9.489   1.592   3.344
12408WAT     H137466   9.483   1.688   3.318
12408WAT     H237467   9.406   1.566   3.395
12409WAT      O37468   0.535   3.808   3.707
12409WAT     H137469   0.482   3.852   3.635
12409WAT     H237470   0.510   3.711   3.713
12410WAT      O37471   3.127   6.237   0.025
12410WAT     H137472   3.068   6.171   0.072
12410WAT     H237473   3.211   6.251   0.078
12411WAT      O37474   7.043   5.526   0.285
12411WAT     H137475   6.946   5.512   0.270
12411WAT     H237476   7.088   5.438   0.300
12412WAT      O37477   4.258   4.727   6.116
12412WAT     H137478   4.301   4.650   6.162
12412WAT     H237479   4.328   4.794   6.091
12413WAT      O37480   6.914   8.130   1.222
12413WAT     H137481   6.844   8.162   1.285
12413WAT     H237482   6.878   8.054   1.168
12414WAT      O37483   3.212   6.000   0.626
12414WAT     H137484   3.265   5.924   0.589
12414WAT     H237485   3.115   5.978   0.621
12415WAT      O37486   9.100   1.371   9.252
12415WAT     H137487   9.025   1.304   9.248
12415WAT     H237488   9.187   1.323   9.243
12416WAT      O37489   9.073   8.679   7.956
12416WAT     H137490   9.127   8.747   8.003
12416WAT     H237491   9.112   8.588   7.972
12417WAT      O37492   5.454   8.971   9.366
12417WAT     H137493   5.477   8.886   9.320
12417WAT     H237494   5.499   9.048   9.321
12418WAT      O37495   2.809   1.971   3.532
12418WAT     H137496   2.872   1.903   3.570
12418WAT     H237497   2.839   2.063   3.558
12419WAT      O37498   7.459   6.542   4.164
12419WAT     H137499   7.504   6.598   4.234
12419WAT     H237500   7.366   6.575   4.150
12420WAT      O37501   2.519   0.416   4.894
12420WAT     H137502   2.506   0.426   4.796
12420WAT     H237503   2.430   0.423   4.940
12421WAT      O37504   8.696   3.673   7.666
12421WAT     H137505   8.794   3.658   7.672
12421WAT     H237506   8.648   3.587   7.677
12422WAT      O37507   3.581   2.383   5.898
12422WAT     H137508   3.628   2.383   5.986
12422WAT     H237509   3.527   2.467   5.890
12423WAT      O37510   6.565   4.805   2.110
12423WAT     H137511   6.568   4.715   2.154
12423WAT     H237512   6.538   4.795   2.014
12424WAT      O37513   2.127   6.611   8.616
12424WAT     H137514   2.178   6.675   8.673
12424WAT     H237515   2.031   6.608   8.646
12425WAT      O37516   4.447   9.642   1.839
12425WAT     H137517   4.485   9.570   1.897
12425WAT     H237518   4.476   9.627   1.744
12426WAT      O37519   2.255   2.497   8.292
12426WAT     H137520   2.169   2.448   8.305
12426WAT     H237521   2.321   2.437   8.248
12427WAT      O37522   8.079   5.469   0.686
12427WAT     H137523   8.151   5.458   0.617
12427WAT     H237524   7.990   5.466   0.641
12428WAT      O37525   8.404   7.715   7.607
12428WAT     H137526   8.434   7.630   7.562
12428WAT     H237527   8.309   7.705   7.637
12429WAT      O37528   6.813   6.279   9.440
12429WAT     H137529   6.750   6.219   9.390
12429WAT     H237530   6.762   6.329   9.510
12430WAT      O37531   2.417   7.496   2.145
12430WAT     H137532   2.430   7.593   2.164
12430WAT     H237533   2.422   7.445   2.230
12431WAT      O37534   9.648   4.464   6.412
12431WAT     H137535   9.698   4.518   6.480
12431WAT     H237536   9.638   4.370   6.445
12432WAT      O37537   5.903   5.448   5.490
12432WAT     H137538   5.930   5.516   5.558
12432WAT     H237539   5.811   5.468   5.458
12433WAT      O37540   3.122   8.045   4.506
12433WAT     H137541   3.054   8.096   4.455
12433WAT     H237542   3.210   8.092   4.502
12434WAT      O37543   2.935   6.284   1.146
12434WAT     H137544   3.010   6.220   1.162
12434WAT     H237545   2.875   6.285   1.226
12435WAT      O37546   9.137   4.665   0.415
12435WAT     H137547   9.064   4.645   0.350
12435WAT     H237548   9.162   4.582   0.465
12436WAT      O37549   7.629   0.392   6.128
12436WAT     H137550   7.612   0.390   6.227
12436WAT     H237551   7.618   0.485   6.094
12437WAT      O37552   0.392   0.046   9.039
12437WAT     H137553   0.330   0.019   9.112
12437WAT     H237554   0.340   0.069   8.957
12438WAT      O37555   6.552   4.516   0.715
12438WAT     H137556   6.650   4.524   0.735
12438WAT     H237557   6.518   4.429   0.751
12439WAT      O37558   1.060   9.014   2.804
12439WAT     H137559   1.118   9.011   2.723
12439WAT     H237560   0.991   8.941   2.798
12440WAT      O37561   1.392   8.152   8.115
12440WAT     H137562   1.426   8.188   8.202
12440WAT     H237563   1.293   8.139   8.121
12441WAT      O37564   6.499   5.821   1.706
12441WAT     H137565   6.418   5.773   1.673
12441WAT     H237566   6.500   5.822   1.806
12442WAT      O37567   6.379   2.835   3.423
12442WAT     H137568   6.389   2.910   3.488
12442WAT     H237569   6.392   2.748   3.471
12443WAT      O37570   4.248   3.131   2.342
12443WAT     H137571   4.212   3.125   2.249
12443WAT     H237572   4.259   3.228   2.367
12444WAT      O37573   8.247   0.805   0.243
12444WAT     H137574   8.283   0.862   0.169
12444WAT     H237575   8.165   0.848   0.282
12445WAT      O37576   3.650   3.758   7.429
12445WAT     H137577   3.652   3.842   7.483
12445WAT     H237578   3.709   3.689   7.472
12446WAT      O37579   9.324   0.731   5.006
12446WAT     H137580   9.422   0.730   5.022
12446WAT     H237581   9.303   0.787   4.925
12447WAT      O37582   3.073   8.117   0.579
12447WAT     H137583   3.131   8.048   0.624
12447WAT     H237584   3.037   8.080   0.494
12448WAT      O37585   9.433   9.454   8.934
12448WAT     H137586   9.384   9.405   8.862
12448WAT     H237587   9.463   9.390   9.004
12449WAT      O37588   9.090   9.621   2.716
12449WAT     H137589   9.152   9.596   2.641
12449WAT     H237590   9.022   9.686   2.682
12450WAT      O37591   1.908   3.970   8.288
12450WAT     H137592   1.809   3.983   8.276
12450WAT     H237593   1.954   4.058   8.284
12451WAT      O37594   0.494   2.957   5.304
12451WAT     H137595   0.589   2.956   5.336
12451WAT     H237596   0.491   2.988   5.210
12452WAT      O37597   3.050   5.898   7.317
12452WAT     H137598   3.012   5.816   7.361
12452WAT     H237599   3.145   5.911   7.348
12453WAT      O37600   9.593   0.467   1.912
12453WAT     H137601   9.512   0.459   1.970
12453WAT     H237602   9.565   0.472   1.816
12454WAT      O37603   9.843   0.942   6.474
12454WAT     H137604   9.887   0.927   6.563
12454WAT     H237605   9.775   1.015   6.482
12455WAT      O37606   4.862   7.800   4.477
12455WAT     H137607   4.896   7.880   4.528
12455WAT     H237608   4.782   7.763   4.524
12456WAT      O37609   9.500   9.126   3.444
12456WAT     H137610   9.590   9.088   3.466
12456WAT     H237611   9.493   9.139   3.345
12457WAT      O37612   6.451   4.755   0.785
12457WAT     H137613   6.462   4.762   0.884
12457WAT     H237614   6.465   4.660   0.757
12458WAT      O37615   8.074   4.048   4.436
12458WAT     H137616   7.981   4.084   4.428
12458WAT     H237617   8.109   4.066   4.528
12459WAT      O37618   5.974   4.115   2.903
12459WAT     H137619   5.971   4.109   3.003
12459WAT     H237620   6.020   4.034   2.867
12460WAT      O37621   1.018   0.502   5.383
12460WAT     H137622   1.050   0.594   5.361
12460WAT     H237623   1.083   0.435   5.347
12461WAT      O37624   9.358   0.322   9.295
12461WAT     H137625   9.432   0.369   9.344
12461WAT     H237626   9.387   0.306   9.200
12462WAT      O37627   3.329   0.003   8.358
12462WAT     H137628   3.256  -0.065   8.347
12462WAT     H237629   3.297   0.092   8.326
12463WAT      O37630   0.608   8.650   4.523
12463WAT     H137631   0.537   8.610   4.465
12463WAT     H237632   0.633   8.740   4.489
12464WAT      O37633   4.745   2.503   3.612
12464WAT     H137634   4.770   2.529   3.706
12464WAT     H237635   4.788   2.567   3.548
12465WAT      O37636   4.941   1.634   1.324
12465WAT     H137637   4.904   1.671   1.239
12465WAT     H237638   5.032   1.596   1.307
12466WAT      O37639   0.341   8.548   1.910
12466WAT     H137640   0.383   8.477   1.854
12466WAT     H237641   0.359   8.638   1.869
12467WAT      O37642   0.552   9.036   7.938
12467WAT     H137643   0.578   9.131   7.920
12467WAT     H237644   0.529   9.025   8.035
12468WAT      O37645   7.607   0.084   8.318
12468WAT     H137646   7.637   0.111   8.226
12468WAT     H237647   7.510   0.062   8.316
12469WAT      O37648   2.712   7.233   2.568
12469WAT     H137649   2.619   7.205   2.544
12469WAT     H237650   2.755   7.161   2.623
12470WAT      O37651   3.758   4.695   1.801
12470WAT     H137652   3.783   4.774   1.746
12470WAT     H237653   3.832   4.628   1.800
12471WAT      O37654   6.664   0.438   7.737
12471WAT     H137655   6.571   0.473   7.739
12471WAT     H237656   6.725   0.507   7.698
12472WAT      O37657   6.664   6.339   6.459
12472WAT     H137658   6.665   6.240   6.444
12472WAT     H237659   6.753   6.377   6.436
12473WAT      O37660   2.089   6.992   1.165
12473WAT     H137661   2.109   6.994   1.262
12473WAT     H237662   2.001   7.037   1.148
12474WAT      O37663   6.157   2.339   9.511
12474WAT     H137664   6.224   2.344   9.437
12474WAT     H237665   6.068   2.372   9.479
12475WAT      O37666   0.551   1.036   4.891
12475WAT     H137667   0.585   0.949   4.926
12475WAT     H237668   0.562   1.039   4.792
12476WAT      O37669   5.992   1.583   5.533
12476WAT     H137670   6.059   1.632   5.589
12476WAT     H237671   6.032   1.563   5.444
12477WAT      O37672   1.204   4.361   0.642
12477WAT     H137673   1.192   4.441   0.700
12477WAT     H237674   1.301   4.351   0.619
12478WAT      O37675   9.300   1.842   6.115
12478WAT     H137676   9.203   1.826   6.132
12478WAT     H237677   9.319   1.830   6.017
12479WAT      O37678   0.918   7.970   3.356
12479WAT     H137679   0.849   8.039   3.374
12479WAT     H237680   0.959   7.987   3.266
12480WAT      O37681   4.797   9.542   8.183
12480WAT     H137682   4.879   9.552   8.127
12480WAT     H237683   4.781   9.445   8.202
12481WAT      O37684   0.625   7.164   7.372
12481WAT     H137685   0.696   7.215   7.421
12481WAT     H237686   0.573   7.227   7.314
12482WAT      O37687   6.270   6.168   8.351
12482WAT     H137688   6.204   6.243   8.342
12482WAT     H237689   6.348   6.200   8.406
12483WAT      O37690   1.527   3.869   9.867
12483WAT     H137691   1.590   3.876   9.789
12483WAT     H237692   1.579   3.844   9.949
12484WAT      O37693   1.225   1.899   5.507
12484WAT     H137694   1.282   1.817   5.503
12484WAT     H237695   1.136   1.880   5.466
12485WAT      O37696   2.141   1.526   6.285
12485WAT     H137697   2.077   1.571   6.348
12485WAT     H237698   2.223   1.498   6.335
12486WAT      O37699   7.143   7.113   2.177
12486WAT     H137700   7.094   7.151   2.256
12486WAT     H237701   7.140   7.179   2.102
12487WAT      O37702   4.680   8.243   3.333
12487WAT     H137703   4.767   8.212   3.293
12487WAT     H237704   4.687   8.340   3.356
12488WAT      O37705   4.814   5.840   7.748
12488WAT     H137706   4.760   5.901   7.690
12488WAT     H237707   4.766   5.753   7.758
12489WAT      O37708   0.760   8.518   2.017
12489WAT     H137709   0.791   8.467   1.937
12489WAT     H237710   0.778   8.465   2.100
12490WAT      O37711   7.297   3.282   0.501
12490WAT     H137712   7.276   3.186   0.518
12490WAT     H237713   7.382   3.289   0.449
12491WAT      O37714   9.111   8.296   5.608
12491WAT     H137715   9.193   8.251   5.642
12491WAT     H237716   9.135   8.386   5.572
12492WAT      O37717   9.096   4.994   6.552
12492WAT     H137718   9.123   4.906   6.512
12492WAT     H237719   9.151   5.067   6.512
12493WAT      O37720   0.476   4.161   7.312
12493WAT     H137721   0.381   4.139   7.336
12493WAT     H237722   0.489   4.147   7.213
12494WAT      O37723   7.262   3.405   8.735
12494WAT     H137724   7.217   3.388   8.822
12494WAT     H237725   7.220   3.485   8.691
12495WAT      O37726   7.430   9.300   1.485
12495WAT     H137727   7.447   9.330   1.391
12495WAT     H237728   7.455   9.204   1.495
12496WAT      O37729   6.270   5.157   2.402
12496WAT     H137730   6.311   5.077   2.446
12496WAT     H237731   6.188   5.184   2.452
12497WAT      O37732   3.100   4.172   6.785
12497WAT     H137733   3.131   4.153   6.691
12497WAT     H237734   3.034   4.247   6.784
12498WAT      O37735   3.990   4.975   0.045
12498WAT     H137736   4.062   4.911   0.071
12498WAT     H237737   3.958   4.953  -0.048
12499WAT      O37738   2.483   2.160   8.478
12499WAT     H137739   2.508   2.256   8.464
12499WAT     H237740   2.558   2.102   8.449
12500WAT      O37741   9.123   9.070   7.909
12500WAT     H137742   9.149   9.004   7.838
12500WAT     H237743   9.024   9.077   7.914
12501WAT      O37744   0.602   8.530   5.015
12501WAT     H137745   0.505   8.556   5.011
12501WAT     H237746   0.614   8.440   4.973
12502WAT      O37747   0.466   5.400   8.611
12502WAT     H137748   0.371   5.379   8.587
12502WAT     H237749   0.505   5.461   8.542
12503WAT      O37750   9.218   7.815   2.369
12503WAT     H137751   9.270   7.830   2.453
12503WAT     H237752   9.135   7.763   2.390
12504WAT      O37753   7.712   7.441   0.681
12504WAT     H137754   7.690   7.356   0.729
12504WAT     H237755   7.742   7.419   0.588
12505WAT      O37756   1.681   6.516   2.703
12505WAT     H137757   1.677   6.506   2.604
12505WAT     H237758   1.598   6.476   2.744
12506WAT      O37759   3.600   7.212   6.818
12506WAT     H137760   3.611   7.257   6.907
12506WAT     H237761   3.534   7.138   6.826
12507WAT      O37762   7.256   3.828   8.872
12507WAT     H137763   7.160   3.813   8.849
12507WAT     H237764   7.267   3.920   8.909
12508WAT      O37765   5.471   7.775   7.875
12508WAT     H137766   5.481   7.815   7.966
12508WAT     H237767   5.548   7.715   7.856
12509WAT      O37768   5.143   8.265   0.421
12509WAT     H137769   5.211   8.290   0.490
12509WAT     H237770   5.087   8.345   0.399
12510WAT      O37771   8.939   6.573   5.098
12510WAT     H137772   8.864   6.625   5.057
12510WAT     H237773   9.026   6.609   5.064
12511WAT      O37774   5.939   8.754   3.380
12511WAT     H137775   5.965   8.670   3.429
12511WAT     H237776   5.882   8.731   3.302
12512WAT      O37777   8.601   4.346   6.660
12512WAT     H137778   8.606   4.294   6.575
12512WAT     H237779   8.508   4.379   6.673
12513WAT      O37780   7.235   7.174   4.121
12513WAT     H137781   7.187   7.185   4.034
12513WAT     H237782   7.224   7.080   4.153
12514WAT      O37783   0.724   5.953   0.894
12514WAT     H137784   0.651   5.977   0.830
12514WAT     H237785   0.692   5.883   0.957
12515WAT      O37786   1.334   4.445   6.452
12515WAT     H137787   1.241   4.410   6.461
12515WAT     H237788   1.344   4.529   6.506
12516WAT      O37789   1.677   0.907   0.366
12516WAT     H137790   1.689   0.982   0.302
12516WAT     H237791   1.644   0.942   0.454
12517WAT      O37792   2.795   5.768   6.771
12517WAT     H137793   2.887   5.804   6.756
12517WAT     H237794   2.752   5.817   6.847
12518WAT      O37795   1.495   8.700   6.288
12518WAT     H137796   1.527   8.704   6.382
12518WAT     H237797   1.525   8.615   6.245
12519WAT      O37798   6.216   7.161   8.411
12519WAT     H137799   6.141   7.161   8.345
12519WAT     H237800   6.229   7.253   8.447
12520WAT      O37801   1.422   8.960   2.257
12520WAT     H137802   1.387   8.899   2.328
12520WAT     H237803   1.483   8.908   2.196
12521WAT      O37804   9.139   9.200   1.981
12521WAT     H137805   9.121   9.143   1.901
12521WAT     H237806   9.083   9.169   2.057
12522WAT      O37807   5.168   5.304   2.157
12522WAT     H137808   5.090   5.345   2.206
12522WAT     H237809   5.252   5.325   2.206
12523WAT      O37810   4.063   5.352   8.049
12523WAT     H137811   4.024   5.376   7.960
12523WAT     H237812   4.147   5.300   8.036
12524WAT      O37813   9.374   0.977   6.158
12524WAT     H137814   9.394   0.885   6.193
12524WAT     H237815   9.460   1.022   6.132
12525WAT      O37816   2.248   1.439   1.407
12525WAT     H137817   2.261   1.374   1.482
12525WAT     H237818   2.336   1.463   1.368
12526WAT      O37819   4.350   6.750   2.547
12526WAT     H137820   4.289   6.690   2.598
12526WAT     H237821   4.445   6.728   2.571
12527WAT      O37822   4.260   4.275   1.535
12527WAT     H137823   4.335   4.279   1.601
12527WAT     H237824   4.254   4.183   1.497
12528WAT      O37825   2.535   2.267   2.686
12528WAT     H137826   2.480   2.304   2.761
12528WAT     H237827   2.620   2.318   2.678
12529WAT      O37828   6.079   9.112   2.358
12529WAT     H137829   6.157   9.149   2.409
12529WAT     H237830   6.005   9.091   2.422
12530WAT      O37831   1.566   3.479   7.766
12530WAT     H137832   1.493   3.461   7.700
12530WAT     H237833   1.607   3.568   7.747
12531WAT      O37834   7.150   3.583   2.453
12531WAT     H137835   7.213   3.661   2.449
12531WAT     H237836   7.114   3.574   2.545
12532WAT      O37837   0.573   6.243   3.597
12532WAT     H137838   0.609   6.322   3.647
12532WAT     H237839   0.512   6.275   3.524
12533WAT      O37840   0.255   7.148   2.249
12533WAT     H137841   0.182   7.179   2.310
12533WAT     H237842   0.270   7.217   2.177
12534WAT      O37843   6.166   2.890   5.929
12534WAT     H137844   6.145   2.815   5.866
12534WAT     H237845   6.094   2.959   5.924
12535WAT      O37846   7.733   5.052   2.540
12535WAT     H137847   7.735   5.120   2.467
12535WAT     H237848   7.789   5.082   2.617
12536WAT      O37849   9.841   0.440   1.093
12536WAT     H137850   9.821   0.348   1.128
12536WAT     H237851   9.790   0.455   1.008
12537WAT      O37852   0.532   7.058   3.299
12537WAT     H137853   0.462   7.063   3.371
12537WAT     H237854   0.612   7.110   3.326
12538WAT      O37855   1.049   1.031   6.510
12538WAT     H137856   0.951   1.046   6.496
12538WAT     H237857   1.064   0.985   6.598
12539WAT      O37858   5.620   6.800   6.803
12539WAT     H137859   5.608   6.713   6.851
12539WAT     H237860   5.546   6.863   6.829
12540WAT      O37861   3.852   8.680   6.215
12540WAT     H137862   3.936   8.690   6.162
12540WAT     H237863   3.876   8.656   6.309
12541WAT      O37864   2.827   1.331   4.035
12541WAT     H137865   2.746   1.274   4.016
12541WAT     H237866   2.803   1.427   4.024
12542WAT      O37867   4.403   9.739   1.069
12542WAT     H137868   4.315   9.694   1.056
12542WAT     H237869   4.407   9.779   1.161
12543WAT      O37870   8.115   0.875   5.213
12543WAT     H137871   8.065   0.891   5.298
12543WAT     H237872   8.208   0.913   5.221
12544WAT      O37873   3.207   3.310   4.406
12544WAT     H137874   3.163   3.249   4.471
12544WAT     H237875   3.164   3.400   4.410
12545WAT      O37876   7.826   4.352   6.596
12545WAT     H137877   7.849   4.402   6.512
12545WAT     H237878   7.815   4.255   6.574
12546WAT      O37879   4.258   1.779   7.799
12546WAT     H137880   4.226   1.859   7.850
12546WAT     H237881   4.283   1.806   7.707
12547WAT      O37882   9.634   7.434   1.186
12547WAT     H137883   9.673   7.484   1.263
12547WAT     H237884   9.699   7.365   1.154
12548WAT      O37885   6.833   6.838   8.345
12548WAT     H137886   6.835   6.935   8.371
12548WAT     H237887   6.739   6.805   8.351
12549WAT      O37888   4.909   7.505   2.903
12549WAT     H137889   4.920   7.596   2.944
12549WAT     H237890   4.895   7.438   2.975
12550WAT      O37891   3.727   9.344   4.294
12550WAT     H137892   3.763   9.251   4.294
12550WAT     H237893   3.793   9.404   4.340
12551WAT      O37894   5.125   8.011   7.161
12551WAT     H137895   5.153   8.094   7.209
12551WAT     H237896   5.044   8.030   7.105
12552WAT      O37897   0.851   3.227   0.081
12552WAT     H137898   0.869   3.162   0.154
12552WAT     H237899   0.839   3.318   0.119
12553WAT      O37900   3.805   1.803   8.903
12553WAT     H137901   3.811   1.703   8.901
12553WAT     H237902   3.717   1.832   8.864
12554WAT      O37903   1.609   1.608   0.893
12554WAT     H137904   1.702   1.577   0.872
12554WAT     H237905   1.581   1.676   0.825
12555WAT      O37906   7.566   7.348   5.252
12555WAT     H137907   7.655   7.389   5.232
12555WAT     H237908   7.578   7.252   5.277
12556WAT      O37909   0.805   5.659   5.763
12556WAT     H137910   0.899   5.688   5.747
12556WAT     H237911   0.774   5.692   5.852
12557WAT      O37912   9.385   1.551   6.464
12557WAT     H137913   9.441   1.630   6.440
12557WAT     H237914   9.288   1.574   6.453
12558WAT      O37915   2.868   1.420   4.387
12558WAT     H137916   2.827   1.484   4.322
12558WAT     H237917   2.830   1.329   4.373
12559WAT      O37918   1.724   6.180   0.115
12559WAT     H137919   1.649   6.126   0.152
12559WAT     H237920   1.739   6.260   0.173
12560WAT      O37921   2.981   7.992   0.345
12560WAT     H137922   2.974   7.983   0.246
12560WAT     H237923   3.018   7.908   0.384
12561WAT      O37924   5.029   6.104   2.743
12561WAT     H137925   4.955   6.136   2.684
12561WAT     H237926   5.107   6.166   2.737
12562WAT      O37927   7.619   1.365   7.484
12562WAT     H137928   7.680   1.442   7.471
12562WAT     H237929   7.638   1.321   7.572
12563WAT      O37930   2.408   5.828   9.467
12563WAT     H137931   2.335   5.798   9.529
12563WAT     H237932   2.497   5.802   9.505
12564WAT      O37933   1.258   1.206   9.105
12564WAT     H137934   1.237   1.115   9.070
12564WAT     H237935   1.179   1.242   9.154
12565WAT      O37936   0.748   4.531   3.473
12565WAT     H137937   0.719   4.443   3.511
12565WAT     H237938   0.679   4.564   3.409
12566WAT      O37939   7.256   6.138   4.157
12566WAT     H137940   7.241   6.190   4.073
12566WAT     H237941   7.222   6.045   4.144
12567WAT      O37942   6.670   2.726   3.258
12567WAT     H137943   6.575   2.746   3.236
12567WAT     H237944   6.723   2.811   3.261
12568WAT      O37945   2.637   7.888   1.797
12568WAT     H137946   2.574   7.953   1.839
12568WAT     H237947   2.589   7.801   1.782
12569WAT      O37948   5.165   1.444   5.436
12569WAT     H137949   5.211   1.427   5.349
12569WAT     H237950   5.066   1.443   5.422
12570WAT      O37951   0.968   8.248   2.004
12570WAT     H137952   0.924   8.282   2.087
12570WAT     H237953   1.054   8.298   1.989
12571WAT      O37954   1.750   7.150   0.166
12571WAT     H137955   1.666   7.202   0.156
12571WAT     H237956   1.786   7.128   0.075
12572WAT      O37957   8.007   8.736   5.775
12572WAT     H137958   7.980   8.830   5.791
12572WAT     H237959   7.953   8.698   5.699
12573WAT      O37960   3.921   6.641   8.263
12573WAT     H137961   3.947   6.577   8.191
12573WAT     H237962   3.995   6.645   8.331
12574WAT      O37963   5.283   7.185   8.692
12574WAT     H137964   5.289   7.107   8.753
12574WAT     H237965   5.187   7.207   8.675
12575WAT      O37966   9.700   0.002   2.307
12575WAT     H137967   9.797   0.008   2.284
12575WAT     H237968   9.645   0.031   2.229
12576WAT      O37969   8.270   4.151   2.973
12576WAT     H137970   8.348   4.149   2.910
12576WAT     H237971   8.264   4.065   3.023
12577WAT      O37972   8.314   9.000   8.510
12577WAT     H137973   8.334   8.960   8.421
12577WAT     H237974   8.336   8.933   8.582
12578WAT      O37975   7.710   4.324   3.694
12578WAT     H137976   7.710   4.410   3.745
12578WAT     H237977   7.711   4.344   3.596
12579WAT      O37978   2.703   9.545   1.901
12579WAT     H137979   2.754   9.555   1.987
12579WAT     H237980   2.660   9.632   1.878
12580WAT      O37981   2.828   2.423   2.673
12580WAT     H137982   2.842   2.461   2.581
12580WAT     H237983   2.878   2.478   2.740
12581WAT      O37984   1.218   9.582   2.936
12581WAT     H137985   1.314   9.609   2.935
12581WAT     H237986   1.163   9.654   2.893
12582WAT      O37987   9.241   5.632   5.400
12582WAT     H137988   9.184   5.711   5.376
12582WAT     H237989   9.310   5.660   5.467
12583WAT      O37990   2.671   0.422   6.580
12583WAT     H137991   2.675   0.484   6.502
12583WAT     H237992   2.696   0.471   6.664
12584WAT      O37993   5.857   7.344   4.653
12584WAT     H137994   5.871   7.378   4.746
12584WAT     H237995   5.779   7.390   4.611
12585WAT      O37996   5.509   5.278   2.066
12585WAT     H137997   5.440   5.341   2.028
12585WAT     H237998   5.537   5.214   1.995
12586WAT      O37999   7.729   6.475   0.614
12586WAT     H138000   7.692   6.567   0.629
12586WAT     H238001   7.829   6.480   0.608
12587WAT      O38002   7.027   7.307   2.341
12587WAT     H138003   7.034   7.276   2.436
12587WAT     H238004   6.935   7.343   2.324
12588WAT      O38005   2.766   1.912   4.515
12588WAT     H138006   2.746   1.940   4.609
12588WAT     H238007   2.695   1.849   4.484
12589WAT      O38008   8.258   3.757   4.104
12589WAT     H138009   8.247   3.771   4.202
12589WAT     H238010   8.271   3.846   4.059
12590WAT      O38011   3.529   0.390   1.711
12590WAT     H138012   3.601   0.445   1.754
12590WAT     H238013   3.450   0.448   1.692
12591WAT      O38014   6.263   5.669   5.752
12591WAT     H138015   6.280   5.730   5.674
12591WAT     H238016   6.287   5.575   5.726
12592WAT      O38017   9.370   0.553   8.001
12592WAT     H138018   9.414   0.464   8.011
12592WAT     H238019   9.301   0.548   7.930
12593WAT      O38020   0.672   7.236   4.817
12593WAT     H138021   0.619   7.207   4.896
12593WAT     H238022   0.617   7.299   4.762
12594WAT      O38023   8.589   8.722   1.661
12594WAT     H138024   8.508   8.715   1.719
12594WAT     H238025   8.629   8.813   1.670
12595WAT      O38026   3.560   7.467   7.890
12595WAT     H138027   3.521   7.558   7.901
12595WAT     H238028   3.496   7.399   7.925
12596WAT      O38029   1.151   1.861   0.211
12596WAT     H138030   1.083   1.839   0.142
12596WAT     H238031   1.209   1.936   0.179
12597WAT      O38032   9.684   2.230   3.137
12597WAT     H138033   9.658   2.215   3.233
12597WAT     H238034   9.761   2.170   3.114
12598WAT      O38035   2.986   3.532   6.145
12598WAT     H138036   2.910   3.475   6.115
12598WAT     H238037   2.952   3.608   6.200
12599WAT      O38038   5.406   1.942   2.671
12599WAT     H138039   5.430   1.885   2.749
12599WAT     H238040   5.461   1.917   2.592
12600WAT      O38041   0.556   9.296   8.737
12600WAT     H138042   0.640   9.339   8.703
12600WAT     H238043   0.580   9.221   8.799
12601WAT      O38044   4.228   4.229   8.559
12601WAT     H138045   4.231   4.245   8.657
12601WAT     H238046   4.274   4.304   8.512
12602WAT      O38047   2.724   7.734   9.632
12602WAT     H138048   2.712   7.832   9.651
12602WAT     H238049   2.741   7.686   9.718
12603WAT      O38050   4.706   2.908   4.205
12603WAT     H138051   4.715   3.008   4.213
12603WAT     H238052   4.796   2.867   4.204
12604WAT      O38053   4.628   9.572   4.750
12604WAT     H138054   4.668   9.486   4.719
12604WAT     H238055   4.598   9.625   4.672
12605WAT      O38056   5.364   7.373   7.405
12605WAT     H138057   5.419   7.298   7.441
12605WAT     H238058   5.288   7.392   7.467
12606WAT      O38059   3.814   0.323   3.076
12606WAT     H138060   3.726   0.300   3.117
12606WAT     H238061   3.799   0.383   2.997
12607WAT      O38062   4.069   2.038   5.396
12607WAT     H138063   3.982   2.029   5.348
12607WAT     H238064   4.079   2.132   5.429
12608WAT      O38065   0.335   0.857   1.605
12608WAT     H138066   0.312   0.759   1.603
12608WAT     H238067   0.404   0.873   1.675
12609WAT      O38068   2.425   7.504   0.790
12609WAT     H138069   2.495   7.526   0.723
12609WAT     H238070   2.340   7.552   0.768
12610WAT      O38071   1.842   1.351   3.658
12610WAT     H138072   1.841   1.449   3.637
12610WAT     H238073   1.774   1.331   3.728
12611WAT      O38074   6.951   5.712   9.832
12611WAT     H138075   6.977   5.619   9.861
12611WAT     H238076   6.858   5.731   9.865
12612WAT      O38077   9.869   4.992   0.528
12612WAT     H138078   9.936   4.941   0.583
12612WAT     H238079   9.808   4.928   0.482
12613WAT      O38080   0.229   9.229   8.978
12613WAT     H138081   0.250   9.213   9.075
12613WAT     H238082   0.182   9.317   8.968
12614WAT      O38083   4.314   4.786   0.535
12614WAT     H138084   4.318   4.806   0.437
12614WAT     H238085   4.220   4.794   0.567
12615WAT      O38086   3.979   3.289   4.881
12615WAT     H138087   3.965   3.190   4.889
12615WAT     H238088   4.043   3.307   4.806
12616WAT      O38089   8.301   9.817   4.663
12616WAT     H138090   8.250   9.836   4.579
12616WAT     H238091   8.393   9.855   4.656
12617WAT      O38092   6.239   5.513   1.205
12617WAT     H138093   6.210   5.598   1.251
12617WAT     H238094   6.338   5.516   1.190
12618WAT      O38095   5.912   5.824   5.551
12618WAT     H138096   5.953   5.819   5.460
12618WAT     H238097   5.920   5.734   5.595
12619WAT      O38098   2.912   3.708   8.813
12619WAT     H138099   2.894   3.639   8.883
12619WAT     H238100   2.929   3.797   8.856
12620WAT      O38101   1.564   8.065   2.187
12620WAT     H138102   1.604   8.128   2.121
12620WAT     H238103   1.538   7.981   2.141
12621WAT      O38104   4.571   6.050   9.221
12621WAT     H138105   4.475   6.028   9.234
12621WAT     H238106   4.625   5.966   9.219
12622WAT      O38107   5.589   1.811   8.517
12622WAT     H138108   5.639   1.820   8.431
12622WAT     H238109   5.548   1.720   8.523
12623WAT      O38110   6.853   3.226   3.524
12623WAT     H138111   6.831   3.316   3.562
12623WAT     H238112   6.905   3.173   3.590
12624WAT      O38113   7.805   0.523   6.880
12624WAT     H138114   7.720   0.561   6.844
12624WAT     H238115   7.786   0.437   6.926
12625WAT      O38116   7.684   5.347   7.737
12625WAT     H138117   7.715   5.421   7.796
12625WAT     H238118   7.689   5.376   7.642
12626WAT      O38119   8.745   4.522   4.139
12626WAT     H138120   8.655   4.511   4.183
12626WAT     H238121   8.799   4.440   4.154
12627WAT      O38122   3.957   0.342   4.070
12627WAT     H138123   3.997   0.272   4.011
12627WAT     H238124   3.949   0.428   4.019
12628WAT      O38125   9.316   2.748   9.502
12628WAT     H138126   9.378   2.717   9.431
12628WAT     H238127   9.291   2.843   9.485
12629WAT      O38128   4.790   9.171   9.786
12629WAT     H138129   4.781   9.074   9.804
12629WAT     H238130   4.705   9.207   9.747
12630WAT      O38131   7.812   0.401   1.857
12630WAT     H138132   7.878   0.350   1.913
12630WAT     H238133   7.802   0.355   1.768
12631WAT      O38134   0.102   0.187   9.770
12631WAT     H138135   0.154   0.192   9.685
12631WAT     H238136   0.033   0.259   9.772
12632WAT      O38137   0.397   0.681   1.918
12632WAT     H138138   0.462   0.713   1.849
12632WAT     H238139   0.366   0.758   1.973
12633WAT      O38140   6.041   2.593   7.284
12633WAT     H138141   6.046   2.515   7.347
12633WAT     H238142   6.097   2.574   7.203
12634WAT      O38143   1.239   9.616   9.065
12634WAT     H138144   1.193   9.695   9.103
12634WAT     H238145   1.171   9.550   9.031
12635WAT      O38146   6.894   2.601   3.155
12635WAT     H138147   6.809   2.646   3.184
12635WAT     H238148   6.947   2.576   3.236
12636WAT      O38149   5.982   0.504   0.911
12636WAT     H138150   5.992   0.472   0.817
12636WAT     H238151   6.055   0.570   0.932
12637WAT      O38152   5.527   6.927   4.131
12637WAT     H138153   5.463   6.905   4.204
12637WAT     H238154   5.619   6.898   4.157
12638WAT      O38155   2.198   1.916   5.789
12638WAT     H138156   2.217   1.918   5.888
12638WAT     H238157   2.266   1.972   5.741
12639WAT      O38158   4.937   0.654   1.356
12639WAT     H138159   4.976   0.745   1.371
12639WAT     H238160   5.010   0.587   1.348
12640WAT      O38161   9.828   8.192   9.296
12640WAT     H138162   9.845   8.289   9.313
12640WAT     H238163   9.767   8.156   9.367
12641WAT      O38164   3.365   4.534   1.046
12641WAT     H138165   3.412   4.619   1.069
12641WAT     H238166   3.420   4.456   1.075
12642WAT      O38167   2.056   4.760   3.827
12642WAT     H138168   2.148   4.739   3.861
12642WAT     H238169   1.998   4.791   3.902
12643WAT      O38170   3.204   3.877   7.360
12643WAT     H138171   3.273   3.894   7.289
12643WAT     H238172   3.166   3.965   7.390
12644WAT      O38173   4.789   8.242   1.236
12644WAT     H138174   4.884   8.244   1.204
12644WAT     H238175   4.729   8.215   1.161
12645WAT      O38176   9.068   5.289   7.917
12645WAT     H138177   9.156   5.305   7.872
12645WAT     H238178   9.044   5.369   7.972
12646WAT      O38179   7.498   8.624   8.525
12646WAT     H138180   7.453   8.633   8.614
12646WAT     H238181   7.587   8.580   8.537
12647WAT      O38182   9.346   4.334   3.923
12647WAT     H138183   9.294   4.250   3.908
12647WAT     H238184   9.443   4.316   3.909
12648WAT      O38185   4.777   8.766   3.647
12648WAT     H138186   4.849   8.835   3.645
12648WAT     H238187   4.704   8.792   3.584
12649WAT      O38188   4.304   8.707   3.106
12649WAT     H138189   4.386   8.679   3.157
12649WAT     H238190   4.240   8.630   3.102
12650WAT      O38191   8.791   5.078   1.797
12650WAT     H138192   8.830   5.029   1.874
12650WAT     H238193   8.691   5.078   1.805
12651WAT      O38194   1.298   4.498   2.775
12651WAT     H138195   1.245   4.527   2.696
12651WAT     H238196   1.309   4.575   2.838
12652WAT      O38197   3.677   8.888   1.241
12652WAT     H138198   3.634   8.961   1.293
12652WAT     H238199   3.632   8.880   1.152
12653WAT      O38200   9.120   4.713   6.523
12653WAT     H138201   9.182   4.648   6.567
12653WAT     H238202   9.128   4.705   6.424
12654WAT      O38203   8.379   0.024   5.409
12654WAT     H138204   8.305   0.013   5.343
12654WAT     H238205   8.372   0.114   5.452
12655WAT      O38206   8.055   2.111   9.031
12655WAT     H138207   8.011   2.108   8.941
12655WAT     H238208   8.146   2.069   9.025
12656WAT      O38209   0.319   2.781   9.447
12656WAT     H138210   0.345   2.730   9.529
12656WAT     H238211   0.320   2.879   9.467
12657WAT      O38212   1.995   8.348   7.784
12657WAT     H138213   2.017   8.421   7.849
12657WAT     H238214   1.929   8.383   7.717
12658WAT      O38215   3.862   7.035   6.783
12658WAT     H138216   3.780   7.091   6.799
12658WAT     H238217   3.939   7.074   6.833
12659WAT      O38218   2.757   8.867   5.549
12659WAT     H138219   2.706   8.953   5.559
12659WAT     H238220   2.735   8.824   5.462
12660WAT      O38221   0.747   7.657   9.652
12660WAT     H138222   0.835   7.617   9.678
12660WAT     H238223   0.755   7.756   9.649
12661WAT      O38224   8.581   6.475   1.154
12661WAT     H138225   8.621   6.531   1.227
12661WAT     H238226   8.489   6.507   1.134
12662WAT      O38227   2.121   8.142   2.786
12662WAT     H138228   2.192   8.191   2.735
12662WAT     H238229   2.064   8.090   2.722
12663WAT      O38230   0.742   5.955   4.059
12663WAT     H138231   0.808   6.029   4.068
12663WAT     H238232   0.743   5.919   3.965
12664WAT      O38233   3.263   7.840   6.342
12664WAT     H138234   3.351   7.840   6.389
12664WAT     H238235   3.268   7.779   6.262
12665WAT      O38236   4.390   4.146   3.048
12665WAT     H138237   4.449   4.149   3.128
12665WAT     H238238   4.362   4.239   3.022
12666WAT      O38239   1.763   4.751   7.285
12666WAT     H138240   1.770   4.782   7.190
12666WAT     H238241   1.792   4.824   7.347
12667WAT      O38242   2.381   0.265   5.140
12667WAT     H138243   2.340   0.226   5.057
12667WAT     H238244   2.472   0.226   5.154
12668WAT      O38245   8.296   0.798   6.157
12668WAT     H138246   8.383   0.749   6.165
12668WAT     H238247   8.289   0.839   6.066
12669WAT      O38248   7.767   0.613   9.428
12669WAT     H138249   7.672   0.601   9.397
12669WAT     H238250   7.826   0.553   9.374
12670WAT      O38251   3.610   7.743   7.658
12670WAT     H138252   3.541   7.696   7.601
12670WAT     H238253   3.584   7.735   7.754
12671WAT      O38254   8.045   2.666   3.986
12671WAT     H138255   8.023   2.709   4.073
12671WAT     H238256   8.143   2.645   3.983
12672WAT      O38257   4.736   2.336   2.907
12672WAT     H138258   4.761   2.241   2.887
12672WAT     H238259   4.730   2.388   2.822
12673WAT      O38260   5.331   3.133   4.701
12673WAT     H138261   5.354   3.165   4.793
12673WAT     H238262   5.236   3.104   4.699
12674WAT      O38263   2.834   2.173   7.941
12674WAT     H138264   2.806   2.161   8.036
12674WAT     H238265   2.908   2.109   7.920
12675WAT      O38266   7.767   8.466   5.347
12675WAT     H138267   7.689   8.525   5.326
12675WAT     H238268   7.746   8.372   5.318
12676WAT      O38269   5.309   7.954   7.744
12676WAT     H138270   5.284   7.916   7.655
12676WAT     H238271   5.368   7.889   7.792
12677WAT      O38272   0.050   2.116   6.282
12677WAT     H138273  -0.050   2.120   6.288
12677WAT     H238274   0.088   2.203   6.315
12678WAT      O38275   9.437   6.423   3.339
12678WAT     H138276   9.394   6.501   3.292
12678WAT     H238277   9.369   6.375   3.394
12679WAT      O38278   1.972   7.916   0.842
12679WAT     H138279   1.982   8.006   0.799
12679WAT     H238280   2.061   7.871   0.846
12680WAT      O38281   2.302   6.669   7.751
12680WAT     H138282   2.389   6.668   7.801
12680WAT     H238283   2.230   6.629   7.807
12681WAT      O38284   5.985   6.034   6.130
12681WAT     H138285   5.992   6.038   6.229
12681WAT     H238286   5.917   5.966   6.103
12682WAT      O38287   8.435   5.972   9.179
12682WAT     H138288   8.438   6.062   9.135
12682WAT     H238289   8.492   5.974   9.262
12683WAT      O38290   9.616   7.903   2.186
12683WAT     H138291   9.633   8.002   2.185
12683WAT     H238292   9.683   7.859   2.245
12684WAT      O38293   7.747   6.582   4.985
12684WAT     H138294   7.819   6.645   4.956
12684WAT     H238295   7.757   6.564   5.083
12685WAT      O38296   1.285   1.525   5.277
12685WAT     H138297   1.340   1.441   5.276
12685WAT     H238298   1.345   1.604   5.269
12686WAT      O38299   1.865   1.535   1.840
12686WAT     H138300   1.814   1.616   1.871
12686WAT     H238301   1.960   1.560   1.821
12687WAT      O38302   4.526   7.007   1.624
12687WAT     H138303   4.452   6.972   1.567
12687WAT     H238304   4.488   7.041   1.710
12688WAT      O38305   4.115   7.842   6.456
12688WAT     H138306   4.212   7.815   6.459
12688WAT     H238307   4.073   7.807   6.373
12689WAT      O38308   3.779   9.561   7.343
12689WAT     H138309   3.788   9.486   7.409
12689WAT     H238310   3.737   9.527   7.259
12690WAT      O38311   9.380   4.578   1.783
12690WAT     H138312   9.319   4.655   1.762
12690WAT     H238313   9.422   4.593   1.873
12691WAT      O38314   8.996   3.575   9.813
12691WAT     H138315   8.976   3.477   9.814
12691WAT     H238316   8.916   3.626   9.847
12692WAT      O38317   5.594   7.873   1.394
12692WAT     H138318   5.546   7.960   1.400
12692WAT     H238319   5.692   7.890   1.382
12693WAT      O38320   7.497   8.713   6.976
12693WAT     H138321   7.486   8.615   6.990
12693WAT     H238322   7.519   8.731   6.880
12694WAT      O38323   3.116   2.415   1.086
12694WAT     H138324   3.024   2.412   1.046
12694WAT     H238325   3.122   2.491   1.152
12695WAT      O38326   7.316   3.113   6.467
12695WAT     H138327   7.391   3.179   6.474
12695WAT     H238328   7.250   3.130   6.540
12696WAT      O38329   6.275   5.135   6.005
12696WAT     H138330   6.240   5.092   5.923
12696WAT     H238331   6.315   5.066   6.065
12697WAT      O38332   9.162   0.272   1.817
12697WAT     H138333   9.209   0.335   1.754
12697WAT     H238334   9.227   0.202   1.847
12698WAT      O38335   2.822   9.402   3.838
12698WAT     H138336   2.748   9.470   3.844
12698WAT     H238337   2.861   9.387   3.929
12699WAT      O38338   6.380   1.353   6.160
12699WAT     H138339   6.418   1.319   6.246
12699WAT     H238340   6.287   1.318   6.148
12700WAT      O38341   2.032   7.131   2.401
12700WAT     H138342   2.105   7.190   2.436
12700WAT     H238343   1.978   7.182   2.334
12701WAT      O38344   2.790   2.444   5.146
12701WAT     H138345   2.711   2.425   5.087
12701WAT     H238346   2.855   2.369   5.140
12702WAT      O38347   7.224   9.432   4.367
12702WAT     H138348   7.250   9.454   4.461
12702WAT     H238349   7.306   9.423   4.310
12703WAT      O38350   9.867   7.981   1.410
12703WAT     H138351   9.880   7.920   1.332
12703WAT     H238352   9.846   8.073   1.377
12704WAT      O38353   7.872   5.738   1.576
12704WAT     H138354   7.946   5.737   1.509
12704WAT     H238355   7.850   5.645   1.603
12705WAT      O38356   4.826   4.540   7.582
12705WAT     H138357   4.787   4.511   7.495
12705WAT     H238358   4.767   4.511   7.657
12706WAT      O38359   1.575   1.644   7.795
12706WAT     H138360   1.617   1.570   7.849
12706WAT     H238361   1.638   1.721   7.791
12707WAT      O38362   2.294   3.257   4.009
12707WAT     H138363   2.337   3.291   4.093
12707WAT     H238364   2.352   3.278   3.931
12708WAT      O38365   7.034   6.314   5.965
12708WAT     H138366   7.105   6.244   5.978
12708WAT     H238367   6.970   6.312   6.042
12709WAT      O38368   6.623   6.346   5.855
12709WAT     H138369   6.669   6.257   5.852
12709WAT     H238370   6.645   6.392   5.941
12710WAT      O38371   7.528   5.567   5.178
12710WAT     H138372   7.455   5.615   5.129
12710WAT     H238373   7.584   5.517   5.112
12711WAT      O38374   3.644   2.213   2.698
12711WAT     H138375   3.597   2.281   2.755
12711WAT     H238376   3.581   2.178   2.629
12712WAT      O38377   4.641   4.364   1.939
12712WAT     H138378   4.642   4.269   1.969
12712WAT     H238379   4.597   4.420   2.009
12713WAT      O38380   0.147   0.491   4.711
12713WAT     H138381   0.220   0.558   4.722
12713WAT     H238382   0.099   0.508   4.625
12714WAT      O38383   0.469   4.994   6.931
12714WAT     H138384   0.484   4.915   6.990
12714WAT     H238385   0.447   5.074   6.988
12715WAT      O38386   7.973   3.788   7.682
12715WAT     H138387   7.928   3.781   7.771
12715WAT     H238388   8.008   3.881   7.670
12716WAT      O38389   3.977   2.369   8.695
12716WAT     H138390   3.973   2.332   8.787
12716WAT     H238391   3.893   2.421   8.676
12717WAT      O38392   8.952   9.210   0.788
12717WAT     H138393   8.909   9.239   0.874
12717WAT     H238394   9.004   9.286   0.750
12718WAT      O38395   5.459   6.317   6.208
12718WAT     H138396   5.458   6.255   6.286
12718WAT     H238397   5.491   6.407   6.238
12719WAT      O38398   4.402   2.992   0.758
12719WAT     H138399   4.409   2.926   0.832
12719WAT     H238400   4.306   3.003   0.733
12720WAT      O38401   6.947   3.046   9.188
12720WAT     H138402   6.949   3.146   9.189
12720WAT     H238403   7.041   3.011   9.188
12721WAT      O38404   8.305   9.243   5.133
12721WAT     H138405   8.357   9.244   5.048
12721WAT     H238406   8.319   9.330   5.181
12722WAT      O38407   1.056   7.719   6.553
12722WAT     H138408   0.992   7.726   6.477
12722WAT     H238409   1.084   7.623   6.564
12723WAT      O38410   2.100   1.872   4.232
12723WAT     H138411   2.092   1.828   4.143
12723WAT     H238412   2.067   1.809   4.303
12724WAT      O38413   6.029   1.437   2.346
12724WAT     H138414   5.932   1.444   2.323
12724WAT     H238415   6.039   1.396   2.437
12725WAT      O38416   8.023   0.045   0.380
12725WAT     H138417   8.025   0.092   0.292
12725WAT     H238418   8.072  -0.042   0.373
12726WAT      O38419   4.781   8.966   4.368
12726WAT     H138420   4.792   8.967   4.269
12726WAT     H238421   4.685   8.949   4.391
12727WAT      O38422   2.355   6.980   8.300
12727WAT     H138423   2.313   6.984   8.210
12727WAT     H238424   2.293   7.019   8.368
12728WAT      O38425   7.984   9.571   2.981
12728WAT     H138426   8.050   9.534   3.046
12728WAT     H238427   8.026   9.576   2.890
12729WAT      O38428   9.626   0.082   2.064
12729WAT     H138429   9.568   0.012   2.022
12729WAT     H238430   9.680   0.128   1.993
12730WAT      O38431   8.527   7.599   2.441
12730WAT     H138432   8.428   7.588   2.456
12730WAT     H238433   8.557   7.537   2.368
12731WAT      O38434   1.569   4.325   6.611
12731WAT     H138435   1.485   4.353   6.565
12731WAT     H238436   1.621   4.264   6.551
12732WAT      O38437   7.443   7.793   0.485
12732WAT     H138438   7.527   7.759   0.526
12732WAT     H238439   7.412   7.874   0.535
12733WAT      O38440   5.766   2.475   8.523
12733WAT     H138441   5.795   2.501   8.615
12733WAT     H238442   5.714   2.390   8.526
12734WAT      O38443   7.271   3.736   2.034
12734WAT     H138444   7.272   3.642   2.000
12734WAT     H238445   7.193   3.749   2.094
12735WAT      O38446   0.987   6.239   4.298
12735WAT     H138447   1.068   6.289   4.328
12735WAT     H238448   0.994   6.220   4.200
12736WAT      O38449   2.400   1.564   0.755
12736WAT     H138450   2.393   1.641   0.817
12736WAT     H238451   2.394   1.478   0.807
12737WAT      O38452   8.754   5.544   0.568
12737WAT     H138453   8.775   5.520   0.473
12737WAT     H238454   8.664   5.508   0.592
12738WAT      O38455   1.829   6.752   0.826
12738WAT     H138456   1.913   6.805   0.816
12738WAT     H238457   1.851   6.662   0.863
12739WAT      O38458   4.254   8.754   1.552
12739WAT     H138459   4.220   8.770   1.645
12739WAT     H238460   4.189   8.793   1.486
12740WAT      O38461   1.191   2.144   6.537
12740WAT     H138462   1.097   2.165   6.564
12740WAT     H238463   1.191   2.085   6.457
12741WAT      O38464   7.975   8.594   8.473
12741WAT     H138465   8.020   8.638   8.395
12741WAT     H238466   7.927   8.663   8.527
12742WAT      O38467   2.506   5.638   6.750
12742WAT     H138468   2.537   5.720   6.797
12742WAT     H238469   2.568   5.617   6.674
12743WAT      O38470   1.609   3.513   2.636
12743WAT     H138471   1.551   3.505   2.554
12743WAT     H238472   1.558   3.481   2.716
12744WAT      O38473   3.452   3.081   8.924
12744WAT     H138474   3.391   3.013   8.964
12744WAT     H238475   3.418   3.173   8.945
12745WAT      O38476   5.352   8.957   7.960
12745WAT     H138477   5.370   8.859   7.947
12745WAT     H238478   5.425   9.010   7.918
12746WAT      O38479   0.146   8.234   2.867
12746WAT     H138480   0.206   8.291   2.924
12746WAT     H238481   0.102   8.291   2.797
12747WAT      O38482   6.995   5.523   5.993
12747WAT     H138483   6.904   5.562   5.985
12747WAT     H238484   7.024   5.487   5.904
12748WAT      O38485   0.953   7.481   1.861
12748WAT     H138486   0.905   7.437   1.936
12748WAT     H238487   0.898   7.556   1.825
12749WAT      O38488   4.465   4.618   5.856
12749WAT     H138489   4.493   4.647   5.764
12749WAT     H238490   4.500   4.684   5.923
12750WAT      O38491   1.282   5.524   5.078
12750WAT     H138492   1.197   5.570   5.054
12750WAT     H238493   1.320   5.479   4.996
12751WAT      O38494   5.043   2.235   2.153
12751WAT     H138495   5.036   2.173   2.231
12751WAT     H238496   5.106   2.310   2.175
12752WAT      O38497   7.038   7.780   6.895
12752WAT     H138498   7.034   7.705   6.829
12752WAT     H238499   7.056   7.865   6.847
12753WAT      O38500   9.769   9.377   5.436
12753WAT     H138501   9.865   9.404   5.429
12753WAT     H238502   9.758   9.283   5.404
12754WAT      O38503   5.620   3.823   3.368
12754WAT     H138504   5.614   3.816   3.268
12754WAT     H238505   5.715   3.810   3.396
12755WAT      O38506   0.105   3.425   2.051
12755WAT     H138507   0.105   3.358   1.977
12755WAT     H238508   0.148   3.385   2.132
12756WAT      O38509   6.022   5.187   0.177
12756WAT     H138510   6.022   5.087   0.176
12756WAT     H238511   6.116   5.220   0.174
12757WAT      O38512   7.036   4.429   8.680
12757WAT     H138513   7.008   4.475   8.764
12757WAT     H238514   7.013   4.487   8.602
12758WAT      O38515   2.894   3.652   1.360
12758WAT     H138516   2.908   3.629   1.456
12758WAT     H238517   2.797   3.645   1.338
12759WAT      O38518   6.261   1.990   4.136
12759WAT     H138519   6.230   1.928   4.064
12759WAT     H238520   6.191   1.995   4.207
12760WAT      O38521   3.055   5.191   4.500
12760WAT     H138522   3.121   5.124   4.534
12760WAT     H238523   2.962   5.157   4.515
12761WAT      O38524   5.569   7.645   6.795
12761WAT     H138525   5.539   7.677   6.885
12761WAT     H238526   5.597   7.723   6.739
12762WAT      O38527   6.631   9.746   1.427
12762WAT     H138528   6.580   9.804   1.365
12762WAT     H238529   6.612   9.772   1.522
12763WAT      O38530   5.717   6.531   1.134
12763WAT     H138531   5.621   6.514   1.156
12763WAT     H238532   5.776   6.469   1.185
12764WAT      O38533   9.140   9.020   4.826
12764WAT     H138534   9.042   9.011   4.808
12764WAT     H238535   9.154   9.072   4.909
12765WAT      O38536   3.630   9.812   1.661
12765WAT     H138537   3.647   9.909   1.642
12765WAT     H238538   3.716   9.762   1.655
12766WAT      O38539   7.158   6.711   7.946
12766WAT     H138540   7.171   6.613   7.962
12766WAT     H238541   7.077   6.743   7.994
12767WAT      O38542   6.925   7.660   8.026
12767WAT     H138543   6.881   7.593   8.085
12767WAT     H238544   6.882   7.659   7.936
12768WAT      O38545   2.544   0.931   6.826
12768WAT     H138546   2.513   1.018   6.865
12768WAT     H238547   2.577   0.872   6.900
12769WAT      O38548   9.098   5.723   1.640
12769WAT     H138549   9.014   5.761   1.601
12769WAT     H238550   9.139   5.659   1.575
12770WAT      O38551   9.253   2.294   8.067
12770WAT     H138552   9.203   2.209   8.049
12770WAT     H238553   9.327   2.305   8.000
12771WAT      O38554   1.755   5.432   2.763
12771WAT     H138555   1.835   5.489   2.782
12771WAT     H238556   1.784   5.336   2.754
12772WAT      O38557   4.425   6.856   0.686
12772WAT     H138558   4.488   6.842   0.609
12772WAT     H238559   4.467   6.821   0.770
12773WAT      O38560   9.287   4.479   0.547
12773WAT     H138561   9.278   4.380   0.540
12773WAT     H238562   9.309   4.503   0.642
12774WAT      O38563   4.052   2.390   9.488
12774WAT     H138564   3.958   2.366   9.464
12774WAT     H238565   4.087   2.456   9.422
12775WAT      O38566   2.801   9.095   0.489
12775WAT     H138567   2.900   9.080   0.496
12775WAT     H238568   2.758   9.079   0.578
12776WAT      O38569   1.924   3.333   4.716
12776WAT     H138570   2.016   3.295   4.703
12776WAT     H238571   1.909   3.352   4.813
12777WAT      O38572   3.065   3.637   6.618
12777WAT     H138573   3.057   3.591   6.529
12777WAT     H238574   3.152   3.612   6.660
12778WAT      O38575   0.714   8.921   2.455
12778WAT     H138576   0.761   8.912   2.367
12778WAT     H238577   0.688   9.016   2.470
12779WAT      O38578   1.774   7.687   6.508
12779WAT     H138579   1.781   7.783   6.483
12779WAT     H238580   1.865   7.652   6.531
12780WAT      O38581   5.592   2.239   2.689
12780WAT     H138582   5.648   2.321   2.673
12780WAT     H238583   5.620   2.196   2.775
12781WAT      O38584   2.958   8.931   1.390
12781WAT     H138585   2.948   8.972   1.299
12781WAT     H238586   3.019   8.852   1.384
12782WAT      O38587   3.273   8.151   1.890
12782WAT     H138588   3.230   8.111   1.971
12782WAT     H238589   3.221   8.126   1.809
12783WAT      O38590   9.230   8.230   4.337
12783WAT     H138591   9.207   8.276   4.251
12783WAT     H238592   9.206   8.290   4.414
12784WAT      O38593   0.149   0.087   4.045
12784WAT     H138594   0.090   0.021   4.090
12784WAT     H238595   0.128   0.090   3.947
12785WAT      O38596   8.310   5.016   0.470
12785WAT     H138597   8.323   4.917   0.459
12785WAT     H238598   8.327   5.041   0.565
12786WAT      O38599   1.265   9.845   6.384
12786WAT     H138600   1.250   9.757   6.428
12786WAT     H238601   1.249   9.836   6.285
12787WAT      O38602   6.663   7.144   4.853
12787WAT     H138603   6.724   7.177   4.781
12787WAT     H238604   6.615   7.062   4.822
12788WAT      O38605   4.280   7.354   1.214
12788WAT     H138606   4.361   7.317   1.259
12788WAT     H238607   4.243   7.285   1.151
12789WAT      O38608   2.314   1.779   0.943
12789WAT     H138609   2.219   1.747   0.951
12789WAT     H238610   2.314   1.876   0.917
12790WAT      O38611   5.355   0.708   6.905
12790WAT     H138612   5.389   0.738   6.994
12790WAT     H238613   5.416   0.638   6.867
12791WAT      O38614   2.971   5.248   4.259
12791WAT     H138615   2.905   5.323   4.262
12791WAT     H238616   3.007   5.232   4.351
12792WAT      O38617   0.203   4.868   4.394
12792WAT     H138618   0.134   4.800   4.421
12792WAT     H238619   0.265   4.885   4.471
12793WAT      O38620   9.002   0.099   6.563
12793WAT     H138621   9.051   0.174   6.519
12793WAT     H238622   8.961   0.041   6.493
12794WAT      O38623   7.183   0.949   7.167
12794WAT     H138624   7.186   1.048   7.182
12794WAT     H238625   7.236   0.903   7.238
12795WAT      O38626   3.234   2.085   8.916
12795WAT     H138627   3.259   2.050   9.006
12795WAT     H238628   3.306   2.144   8.881
12796WAT      O38629   7.453   2.665   8.052
12796WAT     H138630   7.434   2.569   8.032
12796WAT     H238631   7.405   2.692   8.135
12797WAT      O38632   1.625   7.056   3.735
12797WAT     H138633   1.617   7.061   3.636
12797WAT     H238634   1.677   7.135   3.769
12798WAT      O38635   5.348   8.435   5.937
12798WAT     H138636   5.334   8.482   6.024
12798WAT     H238637   5.274   8.370   5.923
12799WAT      O38638   3.813   3.129   5.879
12799WAT     H138639   3.791   3.033   5.896
12799WAT     H238640   3.774   3.185   5.952
12800WAT      O38641   8.437   8.792   0.831
12800WAT     H138642   8.374   8.715   0.823
12800WAT     H238643   8.473   8.795   0.924
12801WAT      O38644   0.330   9.121   1.989
12801WAT     H138645   0.332   9.154   2.083
12801WAT     H238646   0.401   9.167   1.936
12802WAT      O38647   4.659   1.015   9.644
12802WAT     H138648   4.659   0.940   9.710
12802WAT     H238649   4.720   1.088   9.676
12803WAT      O38650   5.903   0.304   4.211
12803WAT     H138651   5.857   0.327   4.125
12803WAT     H238652   5.849   0.238   4.262
12804WAT      O38653   8.680   6.171   6.994
12804WAT     H138654   8.644   6.264   7.000
12804WAT     H238655   8.753   6.168   6.926
12805WAT      O38656   3.277   8.322   8.648
12805WAT     H138657   3.191   8.364   8.677
12805WAT     H238658   3.325   8.287   8.729
12806WAT      O38659   3.325   7.726   1.078
12806WAT     H138660   3.288   7.658   1.141
12806WAT     H238661   3.252   7.758   1.018
12807WAT      O38662   3.380   2.503   2.443
12807WAT     H138663   3.368   2.528   2.539
12807WAT     H238664   3.336   2.415   2.426
12808WAT      O38665   3.534   5.810   5.503
12808WAT     H138666   3.568   5.875   5.571
12808WAT     H238667   3.609   5.780   5.444
12809WAT      O38668   6.202   3.214   1.792
12809WAT     H138669   6.174   3.158   1.714
12809WAT     H238670   6.243   3.299   1.759
12810WAT      O38671   8.395   3.992   7.363
12810WAT     H138672   8.427   4.032   7.277
12810WAT     H238673   8.449   4.028   7.439
12811WAT      O38674   8.045   6.418   3.854
12811WAT     H138675   7.961   6.369   3.831
12811WAT     H238676   8.023   6.510   3.886
12812WAT      O38677   0.251   1.303   3.329
12812WAT     H138678   0.213   1.377   3.385
12812WAT     H238679   0.350   1.314   3.323
12813WAT      O38680   9.417   2.680   6.432
12813WAT     H138681   9.370   2.613   6.374
12813WAT     H238682   9.431   2.764   6.380
12814WAT      O38683   3.309   0.476   0.567
12814WAT     H138684   3.400   0.486   0.606
12814WAT     H238685   3.276   0.566   0.535
12815WAT      O38686   8.377   3.233   5.618
12815WAT     H138687   8.386   3.172   5.696
12815WAT     H238688   8.293   3.286   5.627
12816WAT      O38689   1.986   1.308   4.061
12816WAT     H138690   2.063   1.320   3.999
12816WAT     H238691   1.902   1.336   4.015
12817WAT      O38692   8.088   2.448   0.130
12817WAT     H138693   8.170   2.480   0.082
12817WAT     H238694   8.059   2.361   0.091
12818WAT      O38695   5.648   2.407   6.645
12818WAT     H138696   5.741   2.396   6.679
12818WAT     H238697   5.606   2.487   6.688
12819WAT      O38698   2.098   7.467   4.111
12819WAT     H138699   2.126   7.374   4.090
12819WAT     H238700   2.168   7.531   4.080
12820WAT      O38701   4.555   6.747   0.924
12820WAT     H138702   4.621   6.821   0.910
12820WAT     H238703   4.599   6.671   0.972
12821WAT      O38704   3.572   7.573   8.758
12821WAT     H138705   3.631   7.649   8.784
12821WAT     H238706   3.505   7.557   8.830
12822WAT      O38707   3.656   9.473   1.816
12822WAT     H138708   3.648   9.534   1.895
12822WAT     H238709   3.718   9.513   1.749
12823WAT      O38710   6.347   7.188   5.321
12823WAT     H138711   6.269   7.163   5.379
12823WAT     H238712   6.430   7.148   5.360
12824WAT      O38713   3.308   5.615   5.103
12824WAT     H138714   3.276   5.521   5.112
12824WAT     H238715   3.399   5.615   5.062
12825WAT      O38716   2.721   1.504   3.550
12825WAT     H138717   2.650   1.442   3.515
12825WAT     H238718   2.786   1.524   3.477
12826WAT      O38719   7.654   9.560   0.158
12826WAT     H138720   7.699   9.649   0.153
12826WAT     H238721   7.633   9.528   0.065
12827WAT      O38722   5.043   7.130   0.538
12827WAT     H138723   5.032   7.064   0.464
12827WAT     H238724   5.060   7.081   0.624
12828WAT      O38725   5.014   8.327   7.249
12828WAT     H138726   4.997   8.296   7.342
12828WAT     H238727   4.937   8.301   7.190
12829WAT      O38728   8.235   3.772   0.037
12829WAT     H138729   8.294   3.852   0.038
12829WAT     H238730   8.142   3.798   0.064
12830WAT      O38731   3.781   0.568   0.187
12830WAT     H138732   3.829   0.603   0.267
12830WAT     H238733   3.836   0.497   0.143
12831WAT      O38734   8.762   5.942   6.667
12831WAT     H138735   8.717   5.867   6.714
12831WAT     H238736   8.694   6.000   6.622
12832WAT      O38737   2.549   7.846   0.638
12832WAT     H138738   2.627   7.843   0.701
12832WAT     H238739   2.540   7.759   0.591
12833WAT      O38740   7.364   8.524   5.916
12833WAT     H138741   7.330   8.445   5.864
12833WAT     H238742   7.367   8.604   5.857
12834WAT      O38743   4.111   8.541   4.327
12834WAT     H138744   4.176   8.603   4.371
12834WAT     H238745   4.071   8.480   4.396
12835WAT      O38746   7.983   1.466   6.883
12835WAT     H138747   7.995   1.366   6.880
12835WAT     H238748   7.904   1.488   6.940
12836WAT      O38749   0.509   5.997   9.392
12836WAT     H138750   0.596   6.045   9.405
12836WAT     H238751   0.456   6.043   9.321
12837WAT      O38752   5.175   5.748   7.333
12837WAT     H138753   5.114   5.715   7.405
12837WAT     H238754   5.171   5.848   7.329
12838WAT      O38755   2.867   0.506   8.426
12838WAT     H138756   2.784   0.509   8.371
12838WAT     H238757   2.845   0.530   8.521
12839WAT      O38758   0.048   7.727   0.328
12839WAT     H138759   0.045   7.651   0.392
12839WAT     H238760   0.142   7.741   0.296
12840WAT      O38761   5.375   8.332   9.140
12840WAT     H138762   5.293   8.275   9.145
12840WAT     H238763   5.350   8.427   9.159
12841WAT      O38764   7.815   9.422   4.892
12841WAT     H138765   7.909   9.392   4.877
12841WAT     H238766   7.765   9.421   4.806
12842WAT      O38767   2.811   4.649   9.236
12842WAT     H138768   2.742   4.580   9.258
12842WAT     H238769   2.768   4.739   9.229
12843WAT      O38770   8.251   1.896   8.111
12843WAT     H138771   8.326   1.863   8.168
12843WAT     H238772   8.245   1.839   8.028
12844WAT      O38773   9.859   9.784   3.592
12844WAT     H138774   9.885   9.697   3.549
12844WAT     H238775   9.940   9.827   3.631
12845WAT      O38776   0.483   3.827   0.010
12845WAT     H138777   0.486   3.770   0.092
12845WAT     H238778   0.562   3.806  -0.048
12846WAT      O38779   3.467   5.249   6.502
12846WAT     H138780   3.543   5.309   6.529
12846WAT     H238781   3.464   5.242   6.403
12847WAT      O38782   9.164   3.273   8.908
12847WAT     H138783   9.217   3.193   8.935
12847WAT     H238784   9.158   3.336   8.986
12848WAT      O38785   9.859   7.173   5.026
12848WAT     H138786   9.955   7.149   5.039
12848WAT     H238787   9.820   7.205   5.112
12849WAT      O38788   4.251   6.246   3.044
12849WAT     H138789   4.218   6.309   3.114
12849WAT     H238790   4.246   6.290   2.954
12850WAT      O38791   9.317   7.466   7.540
12850WAT     H138792   9.322   7.565   7.535
12850WAT     H238793   9.378   7.433   7.613
12851WAT      O38794   1.737   1.093   9.129
12851WAT     H138795   1.649   1.119   9.168
12851WAT     H238796   1.757   0.997   9.152
12852WAT      O38797   7.742   1.027   7.312
12852WAT     H138798   7.732   0.944   7.258
12852WAT     H238799   7.715   1.106   7.256
12853WAT      O38800   0.761   9.600   0.252
12853WAT     H138801   0.849   9.587   0.299
12853WAT     H238802   0.687   9.564   0.310
12854WAT      O38803   5.028   7.844   5.820
12854WAT     H138804   5.027   7.744   5.820
12854WAT     H238805   5.056   7.877   5.910
12855WAT      O38806   8.071   0.287   4.224
12855WAT     H138807   8.108   0.217   4.164
12855WAT     H238808   8.029   0.360   4.170
12856WAT      O38809   0.546   8.300   7.258
12856WAT     H138810   0.645   8.292   7.245
12856WAT     H238811   0.527   8.355   7.339
12857WAT      O38812   0.962   7.077   1.032
12857WAT     H138813   1.017   6.994   1.017
12857WAT     H238814   1.018   7.157   1.010
12858WAT      O38815   4.991   4.054   4.781
12858WAT     H138816   5.076   4.074   4.830
12858WAT     H238817   4.913   4.075   4.840
12859WAT      O38818   2.526   0.808   2.129
12859WAT     H138819   2.465   0.782   2.204
12859WAT     H238820   2.538   0.730   2.068
12860WAT      O38821   2.359   4.225   2.982
12860WAT     H138822   2.286   4.249   2.917
12860WAT     H238823   2.432   4.292   2.976
12861WAT      O38824   3.095   7.346   0.200
12861WAT     H138825   3.036   7.424   0.182
12861WAT     H238826   3.113   7.339   0.298
12862WAT      O38827   4.804   5.223   1.271
12862WAT     H138828   4.741   5.145   1.276
12862WAT     H238829   4.875   5.205   1.204
12863WAT      O38830   7.707   7.480   9.009
12863WAT     H138831   7.681   7.525   8.923
12863WAT     H238832   7.659   7.524   9.084
12864WAT      O38833   8.095   9.330   2.306
12864WAT     H138834   8.004   9.339   2.264
12864WAT     H238835   8.109   9.403   2.372
12865WAT      O38836   8.030   9.170   8.593
12865WAT     H138837   8.021   9.111   8.512
12865WAT     H238838   7.939   9.188   8.631
12866WAT      O38839   4.557   0.746   1.013
12866WAT     H138840   4.554   0.835   0.967
12866WAT     H238841   4.611   0.753   1.096
12867WAT      O38842   2.368   3.543   8.739
12867WAT     H138843   2.288   3.587   8.699
12867WAT     H238844   2.438   3.612   8.759
12868WAT      O38845   3.652   1.632   3.683
12868WAT     H138846   3.560   1.671   3.683
12868WAT     H238847   3.705   1.672   3.609
12869WAT      O38848   9.574   4.599   2.991
12869WAT     H138849   9.598   4.526   2.926
12869WAT     H238850   9.479   4.626   2.976
12870WAT      O38851   6.978   8.268   0.725
12870WAT     H138852   6.900   8.238   0.671
12870WAT     H238853   6.989   8.367   0.717
12871WAT      O38854   1.857   1.352   4.446
12871WAT     H138855   1.845   1.386   4.353
12871WAT     H238856   1.805   1.409   4.510
12872WAT      O38857   8.145   9.134   1.554
12872WAT     H138858   8.210   9.210   1.548
12872WAT     H238859   8.083   9.137   1.476
12873WAT      O38860   2.732   1.258   6.374
12873WAT     H138861   2.639   1.282   6.349
12873WAT     H238862   2.759   1.309   6.456
12874WAT      O38863   8.168   6.761   0.250
12874WAT     H138864   8.112   6.732   0.173
12874WAT     H238865   8.257   6.791   0.217
12875WAT      O38866   8.760   1.985   8.883
12875WAT     H138867   8.853   2.018   8.899
12875WAT     H238868   8.732   2.006   8.790
12876WAT      O38869   0.907   0.731   1.270
12876WAT     H138870   1.005   0.747   1.269
12876WAT     H238871   0.859   0.815   1.244
12877WAT      O38872   3.752   1.026   8.424
12877WAT     H138873   3.778   1.008   8.329
12877WAT     H238874   3.832   1.012   8.482
12878WAT      O38875   9.094   9.154   1.248
12878WAT     H138876   9.154   9.190   1.176
12878WAT     H238877   9.147   9.094   1.307
12879WAT      O38878   9.719   0.205   7.014
12879WAT     H138879   9.770   0.188   7.098
12879WAT     H238880   9.767   0.164   6.936
12880WAT      O38881   3.977   5.681   3.172
12880WAT     H138882   3.961   5.741   3.250
12880WAT     H238883   3.892   5.668   3.122
12881WAT      O38884   1.550   0.882   2.559
12881WAT     H138885   1.490   0.890   2.480
12881WAT     H238886   1.629   0.826   2.534
12882WAT      O38887   6.304   0.114   2.317
12882WAT     H138888   6.219   0.115   2.265
12882WAT     H238889   6.313   0.026   2.365
12883WAT      O38890   2.601   9.639   9.206
12883WAT     H138891   2.507   9.643   9.240
12883WAT     H238892   2.653   9.716   9.243
12884WAT      O38893   3.170   0.201   3.403
12884WAT     H138894   3.146   0.169   3.312
12884WAT     H238895   3.092   0.251   3.443
12885WAT      O38896   3.708   1.399   8.008
12885WAT     H138897   3.720   1.432   8.102
12885WAT     H238898   3.702   1.299   8.008
12886WAT      O38899   2.187   6.477   8.386
12886WAT     H138900   2.278   6.513   8.367
12886WAT     H238901   2.156   6.511   8.474
12887WAT      O38902   8.931   1.672   7.157
12887WAT     H138903   8.878   1.657   7.074
12887WAT     H238904   8.942   1.770   7.173
12888WAT      O38905   9.274   2.281   1.145
12888WAT     H138906   9.344   2.352   1.136
12888WAT     H238907   9.311   2.205   1.199
12889WAT      O38908   1.247   4.269   9.284
12889WAT     H138909   1.217   4.343   9.224
12889WAT     H238910   1.346   4.257   9.277
12890WAT      O38911   9.668   8.178   2.199
12890WAT     H138912   9.703   8.267   2.229
12890WAT     H238913   9.582   8.192   2.150
12891WAT      O38914   7.233   6.435   5.570
12891WAT     H138915   7.147   6.402   5.609
12891WAT     H238916   7.280   6.360   5.524
12892WAT      O38917   0.562   2.079   7.372
12892WAT     H138918   0.497   2.005   7.352
12892WAT     H238919   0.650   2.058   7.330
12893WAT      O38920   4.100   1.218   2.933
12893WAT     H138921   4.179   1.277   2.918
12893WAT     H238922   4.128   1.136   2.982
12894WAT      O38923   7.872   5.740   4.135
12894WAT     H138924   7.796   5.799   4.162
12894WAT     H238925   7.844   5.681   4.060
12895WAT      O38926   2.627   3.492   6.610
12895WAT     H138927   2.598   3.586   6.632
12895WAT     H238928   2.552   3.429   6.630
12896WAT      O38929   9.504   2.195   3.657
12896WAT     H138930   9.410   2.184   3.623
12896WAT     H238931   9.549   2.269   3.607
12897WAT      O38932   7.461   9.583   8.859
12897WAT     H138933   7.470   9.682   8.872
12897WAT     H238934   7.499   9.535   8.938
12898WAT      O38935   0.549   7.538   5.505
12898WAT     H138936   0.508   7.490   5.583
12898WAT     H238937   0.486   7.537   5.428
12899WAT      O38938   7.477   9.474   9.146
12899WAT     H138939   7.382   9.446   9.157
12899WAT     H238940   7.522   9.472   9.236
12900WAT      O38941   1.362   4.877   3.238
12900WAT     H138942   1.381   4.789   3.282
12900WAT     H238943   1.430   4.944   3.267
12901WAT      O38944   8.452   2.812   4.855
12901WAT     H138945   8.405   2.805   4.943
12901WAT     H238946   8.550   2.826   4.871
12902WAT      O38947   8.971   1.137   3.222
12902WAT     H138948   8.895   1.148   3.157
12902WAT     H238949   8.938   1.157   3.314
12903WAT      O38950   8.831   5.782   9.793
12903WAT     H138951   8.762   5.786   9.866
12903WAT     H238952   8.813   5.703   9.735
12904WAT      O38953   0.884   7.903   9.801
12904WAT     H138954   0.942   7.956   9.863
12904WAT     H238955   0.810   7.960   9.767
12905WAT      O38956   9.797   7.142   9.689
12905WAT     H138957   9.735   7.220   9.675
12905WAT     H238958   9.834   7.113   9.600
12906WAT      O38959   8.669   4.024   2.125
12906WAT     H138960   8.604   4.097   2.147
12906WAT     H238961   8.668   4.007   2.026
12907WAT      O38962   1.815   6.540   6.228
12907WAT     H138963   1.778   6.525   6.319
12907WAT     H238964   1.897   6.597   6.234
12908WAT      O38965   2.867   0.422   6.253
12908WAT     H138966   2.934   0.388   6.319
12908WAT     H238967   2.808   0.489   6.299
12909WAT      O38968   4.705   1.118   8.859
12909WAT     H138969   4.720   1.079   8.950
12909WAT     H238970   4.667   1.047   8.799
12910WAT      O38971   3.125   4.431   0.961
12910WAT     H138972   3.223   4.428   0.980
12910WAT     H238973   3.093   4.526   0.960
12911WAT      O38974   8.169   0.319   9.597
12911WAT     H138975   8.178   0.395   9.661
12911WAT     H238976   8.080   0.324   9.552
12912WAT      O38977   5.917   3.196   6.615
12912WAT     H138978   5.984   3.178   6.543
12912WAT     H238979   5.863   3.277   6.590
12913WAT      O38980   8.679   5.595   4.520
12913WAT     H138981   8.776   5.581   4.541
12913WAT     H238982   8.644   5.670   4.576
12914WAT      O38983   9.401   0.795   6.886
12914WAT     H138984   9.495   0.793   6.853
12914WAT     H238985   9.379   0.709   6.931
12915WAT      O38986   9.596   0.610   7.516
12915WAT     H138987   9.527   0.632   7.447
12915WAT     H238988   9.572   0.523   7.560
12916WAT      O38989   7.620   2.887   3.177
12916WAT     H138990   7.702   2.923   3.132
12916WAT     H238991   7.543   2.887   3.113
12917WAT      O38992   3.643   7.369   5.628
12917WAT     H138993   3.702   7.288   5.623
12917WAT     H238994   3.585   7.373   5.546
12918WAT      O38995   2.498   9.140   6.683
12918WAT     H138996   2.440   9.222   6.686
12918WAT     H238997   2.554   9.143   6.600
12919WAT      O38998   3.432   8.202   5.678
12919WAT     H138999   3.490   8.142   5.734
12919WAT     H239000   3.484   8.283   5.651
12920WAT      O39001   9.612   9.422   5.678
12920WAT     H139002   9.653   9.483   5.746
12920WAT     H239003   9.651   9.442   5.588
12921WAT      O39004   1.550   0.473   0.270
12921WAT     H139005   1.522   0.435   0.182
12921WAT     H239006   1.650   0.475   0.275
12922WAT      O39007   4.249   1.352   4.159
12922WAT     H139008   4.304   1.407   4.221
12922WAT     H239009   4.304   1.326   4.080
12923WAT      O39010   0.663   3.703   2.283
12923WAT     H139011   0.706   3.788   2.314
12923WAT     H239012   0.665   3.700   2.183
12924WAT      O39013   0.199   3.918   9.170
12924WAT     H139014   0.163   3.954   9.256
12924WAT     H239015   0.210   3.819   9.178
12925WAT      O39016   8.333   3.539   0.100
12925WAT     H139017   8.287   3.619   0.062
12925WAT     H239018   8.267   3.482   0.149
12926WAT      O39019   9.683   6.296   3.266
12926WAT     H139020   9.719   6.388   3.251
12926WAT     H239021   9.589   6.302   3.301
12927WAT      O39022   2.201   4.749   4.915
12927WAT     H139023   2.224   4.705   4.828
12927WAT     H239024   2.272   4.730   4.982
12928WAT      O39025   9.260   6.724   7.701
12928WAT     H139026   9.348   6.767   7.723
12928WAT     H239027   9.241   6.738   7.604
12929WAT      O39028   4.818   2.817   5.479
12929WAT     H139029   4.785   2.860   5.395
12929WAT     H239030   4.870   2.884   5.533
12930WAT      O39031   5.310   6.753   0.588
12930WAT     H139032   5.342   6.789   0.501
12930WAT     H239033   5.319   6.653   0.589
12931WAT      O39034   2.143   7.462   8.602
12931WAT     H139035   2.103   7.538   8.552
12931WAT     H239036   2.218   7.496   8.660
12932WAT      O39037   8.406   5.260   4.312
12932WAT     H139038   8.487   5.278   4.369
12932WAT     H239039   8.328   5.309   4.349
12933WAT      O39040   0.416   3.287   9.863
12933WAT     H139041   0.477   3.254   9.791
12933WAT     H239042   0.341   3.222   9.875
12934WAT      O39043   9.777   5.160   7.798
12934WAT     H139044   9.794   5.247   7.845
12934WAT     H239045   9.858   5.102   7.806
12935WAT      O39046   0.473   3.412   0.580
12935WAT     H139047   0.552   3.451   0.627
12935WAT     H239048   0.408   3.485   0.557
12936WAT      O39049   7.104   8.746   8.323
12936WAT     H139050   7.082   8.837   8.288
12936WAT     H239051   7.042   8.678   8.283
12937WAT      O39052   9.179   3.832   3.753
12937WAT     H139053   9.095   3.801   3.709
12937WAT     H239054   9.178   3.932   3.760
12938WAT      O39055   5.940   7.685   9.708
12938WAT     H139056   5.842   7.664   9.703
12938WAT     H239057   5.991   7.601   9.726
12939WAT      O39058   5.725   8.193   8.356
12939WAT     H139059   5.689   8.100   8.367
12939WAT     H239060   5.650   8.256   8.337
12940WAT      O39061   2.395   9.756   4.778
12940WAT     H139062   2.387   9.685   4.708
12940WAT     H239063   2.473   9.736   4.838
12941WAT      O39064   1.967   5.078   5.272
12941WAT     H139065   1.921   5.125   5.197
12941WAT     H239066   1.944   4.981   5.269
12942WAT      O39067   6.343   6.117   3.718
12942WAT     H139068   6.305   6.170   3.642
12942WAT     H239069   6.339   6.020   3.696
12943WAT      O39070   1.404   4.890   2.334
12943WAT     H139071   1.490   4.925   2.299
12943WAT     H239072   1.411   4.791   2.349
12944WAT      O39073   6.391   0.699   6.832
12944WAT     H139074   6.362   0.727   6.924
12944WAT     H239075   6.346   0.614   6.808
12945WAT      O39076   2.820   3.059   4.436
12945WAT     H139077   2.743   3.050   4.373
12945WAT     H239078   2.817   2.984   4.503
12946WAT      O39079   0.708   9.279   3.325
12946WAT     H139080   0.755   9.298   3.411
12946WAT     H239081   0.774   9.278   3.250
12947WAT      O39082   8.491   5.909   4.770
12947WAT     H139083   8.542   5.933   4.687
12947WAT     H239084   8.474   5.811   4.772
12948WAT      O39085   3.111   6.724   9.691
12948WAT     H139086   3.174   6.664   9.740
12948WAT     H239087   3.134   6.819   9.711
12949WAT      O39088   9.011   1.181   6.475
12949WAT     H139089   9.094   1.164   6.423
12949WAT     H239090   9.034   1.202   6.570
12950WAT      O39091   7.858   8.858   8.186
12950WAT     H139092   7.864   8.939   8.245
12950WAT     H239093   7.944   8.807   8.191
12951WAT      O39094   3.322   6.356   6.853
12951WAT     H139095   3.365   6.309   6.930
12951WAT     H239096   3.223   6.344   6.857
12952WAT      O39097   0.018   4.213   8.620
12952WAT     H139098   0.089   4.159   8.576
12952WAT     H239099  -0.034   4.156   8.683
12953WAT      O39100   3.930   0.414   6.132
12953WAT     H139101   3.854   0.400   6.196
12953WAT     H239102   3.918   0.501   6.085
12954WAT      O39103   5.905   0.858   3.193
12954WAT     H139104   5.916   0.902   3.283
12954WAT     H239105   5.910   0.759   3.203
12955WAT      O39106   2.293   1.207   8.515
12955WAT     H139107   2.252   1.241   8.599
12955WAT     H239108   2.385   1.172   8.534
12956WAT      O39109   5.584   6.629   7.839
12956WAT     H139110   5.628   6.539   7.849
12956WAT     H239111   5.641   6.688   7.782
12957WAT      O39112   0.887   9.797   1.184
12957WAT     H139113   0.959   9.864   1.164
12957WAT     H239114   0.868   9.796   1.282
12958WAT      O39115   3.946   8.738   4.057
12958WAT     H139116   3.852   8.761   4.031
12958WAT     H239117   3.978   8.662   4.000
12959WAT      O39118   5.168   9.091   4.659
12959WAT     H139119   5.084   9.041   4.637
12959WAT     H239120   5.247   9.035   4.633
12960WAT      O39121   9.224   6.753   7.426
12960WAT     H139122   9.287   6.710   7.361
12960WAT     H239123   9.186   6.836   7.385
12961WAT      O39124   3.066   3.788   0.913
12961WAT     H139125   3.099   3.882   0.914
12961WAT     H239126   2.997   3.776   0.984
12962WAT      O39127   1.986   2.161   0.207
12962WAT     H139128   2.082   2.150   0.234
12962WAT     H239129   1.972   2.253   0.170
12963WAT      O39130   3.132   0.626   9.210
12963WAT     H139131   3.052   0.567   9.210
12963WAT     H239132   3.131   0.685   9.290
12964WAT      O39133   9.784   1.252   1.968
12964WAT     H139134   9.841   1.254   2.050
12964WAT     H239135   9.816   1.181   1.906
12965WAT      O39136   3.891   5.195   9.237
12965WAT     H139137   3.800   5.230   9.218
12965WAT     H239138   3.952   5.216   9.160
12966WAT      O39139   3.779   0.173   0.022
12966WAT     H139140   3.782   0.075   0.002
12966WAT     H239141   3.865   0.200   0.066
12967WAT      O39142   7.487   1.729   6.148
12967WAT     H139143   7.501   1.630   6.140
12967WAT     H239144   7.501   1.757   6.243
12968WAT      O39145   7.888   4.440   6.038
12968WAT     H139146   7.895   4.516   5.974
12968WAT     H239147   7.907   4.354   5.991
12969WAT      O39148   6.381   0.988   1.706
12969WAT     H139149   6.423   1.066   1.752
12969WAT     H239150   6.360   0.916   1.772
12970WAT      O39151   6.437   5.995   5.202
12970WAT     H139152   6.416   6.056   5.278
12970WAT     H239153   6.517   6.030   5.153
12971WAT      O39154   6.954   5.261   4.827
12971WAT     H139155   7.008   5.178   4.836
12971WAT     H239156   7.012   5.336   4.796
12972WAT      O39157   7.175   5.772   0.148
12972WAT     H139158   7.159   5.673   0.155
12972WAT     H239159   7.119   5.810   0.075
12973WAT      O39160   5.217   4.766   3.960
12973WAT     H139161   5.233   4.861   3.934
12973WAT     H239162   5.302   4.727   3.996
12974WAT      O39163   3.816   8.691   7.289
12974WAT     H139164   3.893   8.752   7.269
12974WAT     H239165   3.849   8.598   7.299
12975WAT      O39166   5.712   3.970   2.840
12975WAT     H139167   5.789   4.033   2.852
12975WAT     H239168   5.634   4.019   2.802
12976WAT      O39169   0.454   5.415   7.395
12976WAT     H139170   0.525   5.485   7.397
12976WAT     H239171   0.385   5.436   7.465
12977WAT      O39172   9.793   5.310   9.860
12977WAT     H139173   9.701   5.281   9.887
12977WAT     H239174   9.796   5.410   9.857
12978WAT      O39175   8.524   7.008   4.714
12978WAT     H139176   8.430   7.041   4.713
12978WAT     H239177   8.528   6.920   4.761
12979WAT      O39178   6.599   6.407   7.570
12979WAT     H139179   6.583   6.361   7.657
12979WAT     H239180   6.589   6.342   7.495
12980WAT      O39181   5.150   6.248   1.296
12980WAT     H139182   5.176   6.239   1.200
12980WAT     H239183   5.147   6.345   1.320
12981WAT      O39184   0.483   0.426   6.779
12981WAT     H139185   0.544   0.385   6.712
12981WAT     H239186   0.533   0.493   6.834
12982WAT      O39187   9.794   5.931   9.267
12982WAT     H139188   9.828   5.881   9.346
12982WAT     H239189   9.710   5.979   9.291
12983WAT      O39190   6.035   6.099   6.419
12983WAT     H139191   5.979   6.016   6.424
12983WAT     H239192   5.983   6.177   6.455
12984WAT      O39193   8.797   0.182   2.703
12984WAT     H139194   8.797   0.166   2.802
12984WAT     H239195   8.766   0.275   2.684
12985WAT      O39196   7.827   9.243   6.013
12985WAT     H139197   7.864   9.159   5.973
12985WAT     H239198   7.735   9.226   6.047
12986WAT      O39199   0.570   7.765   3.479
12986WAT     H139200   0.532   7.673   3.473
12986WAT     H239201   0.618   7.787   3.393
12987WAT      O39202   8.853   2.492   5.666
12987WAT     H139203   8.774   2.497   5.727
12987WAT     H239204   8.824   2.463   5.575
12988WAT      O39205   3.217   4.470   4.338
12988WAT     H139206   3.140   4.478   4.274
12988WAT     H239207   3.228   4.374   4.365
12989WAT      O39208   4.183   1.847   7.003
12989WAT     H139209   4.264   1.868   7.058
12989WAT     H239210   4.102   1.846   7.062
12990WAT      O39211   2.084   2.512   6.557
12990WAT     H139212   2.068   2.539   6.652
12990WAT     H239213   2.155   2.441   6.554
12991WAT      O39214   0.524   5.145   0.764
12991WAT     H139215   0.544   5.159   0.667
12991WAT     H239216   0.585   5.075   0.801
12992WAT      O39217   1.213   9.427   2.605
12992WAT     H139218   1.312   9.416   2.602
12992WAT     H239219   1.177   9.383   2.688
12993WAT      O39220   5.168   5.268   8.839
12993WAT     H139221   5.131   5.294   8.750
12993WAT     H239222   5.117   5.189   8.874
12994WAT      O39223   1.937   3.096   6.296
12994WAT     H139224   1.986   3.183   6.290
12994WAT     H239225   1.946   3.047   6.209
12995WAT      O39226   8.629   7.830   1.379
12995WAT     H139227   8.573   7.913   1.377
12995WAT     H239228   8.690   7.829   1.300
12996WAT      O39229   1.905   1.505   0.231
12996WAT     H139230   1.954   1.474   0.313
12996WAT     H239231   1.807   1.493   0.244
12997WAT      O39232   6.837   6.877  -0.001
12997WAT     H139233   6.815   6.832   0.086
12997WAT     H239234   6.769   6.947  -0.020
12998WAT      O39235   6.648   5.723  -0.000
12998WAT     H139236   6.594   5.807   0.001
12998WAT     H239237   6.615   5.661   0.071
12999WAT      O39238   3.622   2.051   6.305
12999WAT     H139239   3.573   2.124   6.258
12999WAT     H239240   3.641   1.977   6.241
13000WAT      O39241   2.530   6.782   0.686
13000WAT     H139242   2.500   6.862   0.634
13000WAT     H239243   2.459   6.757   0.752
13001WAT      O39244   4.341   9.830   0.711
13001WAT     H139245   4.372   9.849   0.617
13001WAT     H239246   4.402   9.875   0.776
13002WAT      O39247   1.568   3.396   3.364
13002WAT     H139248   1.574   3.482   3.414
13002WAT     H239249   1.522   3.411   3.276
13003WAT      O39250   8.550   9.821   2.015
13003WAT     H139251   8.609   9.889   1.973
13003WAT     H239252   8.568   9.818   2.114
13004WAT      O39253   6.959   5.794   0.721
13004WAT     H139254   6.976   5.893   0.721
13004WAT     H239255   7.006   5.752   0.643
13005WAT      O39256   1.958   6.030   5.635
13005WAT     H139257   1.950   6.100   5.706
13005WAT     H239258   2.055   6.011   5.618
13006WAT      O39259   2.965   9.547   9.842
13006WAT     H139260   2.914   9.593   9.768
13006WAT     H239261   3.005   9.616   9.902
13007WAT      O39262   1.960   0.033   7.548
13007WAT     H139263   1.965   0.001   7.642
13007WAT     H239264   1.894   0.108   7.541
13008WAT      O39265   3.226   1.080   7.132
13008WAT     H139266   3.183   1.055   7.219
13008WAT     H239267   3.177   1.035   7.057
13009WAT      O39268   1.458   2.552   7.942
13009WAT     H139269   1.359   2.550   7.935
13009WAT     H239270   1.490   2.647   7.946
13010WAT      O39271   8.378   6.160   4.072
13010WAT     H139272   8.459   6.217   4.063
13010WAT     H239273   8.405   6.063   4.071
13011WAT      O39274   8.284   9.395   8.329
13011WAT     H139275   8.314   9.462   8.262
13011WAT     H239276   8.337   9.311   8.318
13012WAT      O39277   9.396   1.347   1.110
13012WAT     H139278   9.412   1.438   1.071
13012WAT     H239279   9.403   1.278   1.038
13013WAT      O39280   2.959   8.415   5.067
13013WAT     H139281   2.998   8.466   4.990
13013WAT     H239282   2.860   8.404   5.053
13014WAT      O39283   4.807   4.338   1.638
13014WAT     H139284   4.786   4.381   1.725
13014WAT     H239285   4.727   4.287   1.605
13015WAT      O39286   5.969   4.233   3.718
13015WAT     H139287   6.063   4.209   3.696
13015WAT     H239288   5.962   4.259   3.814
13016WAT      O39289   4.378   9.086   6.209
13016WAT     H139290   4.412   9.091   6.303
13016WAT     H239291   4.366   9.179   6.173
13017WAT      O39292   9.186   6.837   0.242
13017WAT     H139293   9.109   6.869   0.296
13017WAT     H239294   9.155   6.766   0.179
13018WAT      O39295   8.810   0.094   4.790
13018WAT     H139296   8.827   0.182   4.745
13018WAT     H239297   8.719   0.094   4.831
13019WAT      O39298   7.244   5.643   6.043
13019WAT     H139299   7.158   5.599   6.019
13019WAT     H239300   7.268   5.619   6.137
13020WAT      O39301   4.083   8.855   1.374
13020WAT     H139302   4.073   8.864   1.275
13020WAT     H239303   3.993   8.847   1.417
13021WAT      O39304   0.183   4.217   0.805
13021WAT     H139305   0.223   4.306   0.827
13021WAT     H239306   0.129   4.185   0.883
13022WAT      O39307   4.411   1.492   7.685
13022WAT     H139308   4.354   1.456   7.759
13022WAT     H239309   4.354   1.539   7.618
13023WAT      O39310   1.552   1.453   0.464
13023WAT     H139311   1.571   1.467   0.367
13023WAT     H239312   1.456   1.474   0.483
13024WAT      O39313   7.917   1.535   3.065
13024WAT     H139314   7.923   1.471   2.989
13024WAT     H239315   7.933   1.487   3.151
13025WAT      O39316   5.199   3.679   4.773
13025WAT     H139317   5.117   3.732   4.797
13025WAT     H239318   5.171   3.592   4.734
13026WAT      O39319   5.018   7.522   4.167
13026WAT     H139320   5.054   7.582   4.238
13026WAT     H239321   4.959   7.574   4.106
13027WAT      O39322   9.229   5.574   1.465
13027WAT     H139323   9.246   5.481   1.433
13027WAT     H239324   9.316   5.618   1.488
13028WAT      O39325   4.302   1.531   8.876
13028WAT     H139326   4.283   1.563   8.969
13028WAT     H239327   4.389   1.482   8.874
13029WAT      O39328   0.061   2.668   4.806
13029WAT     H139329   0.025   2.745   4.753
13029WAT     H239330   0.070   2.695   4.902
13030WAT      O39331   1.998   8.716   5.150
13030WAT     H139332   1.949   8.729   5.064
13030WAT     H239333   2.015   8.806   5.192
13031WAT      O39334   8.216   0.846   2.262
13031WAT     H139335   8.230   0.751   2.236
13031WAT     H239336   8.305   0.892   2.271
13032WAT      O39337   7.173   4.063   9.766
13032WAT     H139338   7.126   4.092   9.849
13032WAT     H239339   7.229   4.139   9.732
13033WAT      O39340   4.575   7.170   2.169
13033WAT     H139341   4.602   7.237   2.238
13033WAT     H239342   4.641   7.173   2.093
13034WAT      O39343   1.823   6.306   2.844
13034WAT     H139344   1.854   6.241   2.775
13034WAT     H239345   1.762   6.373   2.802
13035WAT      O39346   9.551   5.618   4.385
13035WAT     H139347   9.572   5.701   4.438
13035WAT     H239348   9.545   5.540   4.447
13036WAT      O39349   2.948   8.091   3.672
13036WAT     H139350   2.853   8.087   3.642
13036WAT     H239351   2.952   8.082   3.772
13037WAT      O39352   2.084   9.550   1.062
13037WAT     H139353   2.066   9.525   0.967
13037WAT     H239354   2.075   9.469   1.120
13038WAT      O39355   5.349   9.701   7.568
13038WAT     H139356   5.256   9.717   7.602
13038WAT     H239357   5.401   9.786   7.570
13039WAT      O39358   3.592   3.207   5.695
13039WAT     H139359   3.619   3.265   5.617
13039WAT     H239360   3.669   3.148   5.720
13040WAT      O39361   3.500   6.920   6.622
13040WAT     H139362   3.526   6.823   6.614
13040WAT     H239363   3.537   6.971   6.544
13041WAT      O39364   0.188   9.517   0.039
13041WAT     H139365   0.145   9.559  -0.041
13041WAT     H239366   0.119   9.464   0.089
13042WAT      O39367   7.906   8.269   4.148
13042WAT     H139368   7.943   8.362   4.152
13042WAT     H239369   7.944   8.221   4.069
13043WAT      O39370   4.897   5.847   1.682
13043WAT     H139371   4.802   5.815   1.684
13043WAT     H239372   4.900   5.940   1.643
13044WAT      O39373   8.502   7.726   6.321
13044WAT     H139374   8.487   7.746   6.418
13044WAT     H239375   8.415   7.702   6.278
13045WAT      O39376   6.230   4.129   6.681
13045WAT     H139377   6.210   4.226   6.667
13045WAT     H239378   6.329   4.114   6.675
13046WAT      O39379   9.854   8.249   1.328
13046WAT     H139380   9.949   8.272   1.308
13046WAT     H239381   9.794   8.305   1.271
13047WAT      O39382   7.523   8.024   3.077
13047WAT     H139383   7.512   7.958   3.002
13047WAT     H239384   7.599   8.086   3.056
13048WAT      O39385   5.973   3.832   2.312
13048WAT     H139386   6.044   3.897   2.284
13048WAT     H239387   5.979   3.749   2.257
13049WAT      O39388   9.509   2.145   7.535
13049WAT     H139389   9.573   2.137   7.611
13049WAT     H239390   9.416   2.131   7.569
13050WAT      O39391   2.837   9.602   6.194
13050WAT     H139392   2.933   9.624   6.178
13050WAT     H239393   2.817   9.512   6.156
13051WAT      O39394   3.866   3.833   7.162
13051WAT     H139395   3.869   3.736   7.182
13051WAT     H239396   3.831   3.883   7.241
13052WAT      O39397   9.380   0.687   0.394
13052WAT     H139398   9.398   0.762   0.331
13052WAT     H239399   9.465   0.655   0.434
13053WAT      O39400   2.560   0.848   4.818
13053WAT     H139401   2.601   0.863   4.908
13053WAT     H239402   2.616   0.783   4.767
13054WAT      O39403   1.460   2.389   4.755
13054WAT     H139404   1.457   2.467   4.818
13054WAT     H239405   1.368   2.348   4.749
13055WAT      O39406   3.547   5.353   3.860
13055WAT     H139407   3.502   5.412   3.793
13055WAT     H239408   3.528   5.386   3.952
13056WAT      O39409   1.623   9.465   4.022
13056WAT     H139410   1.575   9.442   3.937
13056WAT     H239411   1.720   9.440   4.013
13057WAT      O39412   3.386   3.646   1.381
13057WAT     H139413   3.387   3.573   1.313
13057WAT     H239414   3.368   3.607   1.471
13058WAT      O39415   5.944   7.815   3.129
13058WAT     H139416   5.845   7.807   3.127
13058WAT     H239417   5.981   7.797   3.038
13059WAT      O39418   6.946   8.013   3.960
13059WAT     H139419   6.892   8.096   3.973
13059WAT     H239420   6.922   7.971   3.872
13060WAT      O39421   3.438   2.332   8.558
13060WAT     H139422   3.491   2.313   8.476
13060WAT     H239423   3.458   2.425   8.590
13061WAT      O39424   6.935   7.488   3.437
13061WAT     H139425   7.019   7.517   3.482
13061WAT     H239426   6.956   7.455   3.344
13062WAT      O39427   7.613   6.179   7.397
13062WAT     H139428   7.597   6.093   7.446
13062WAT     H239429   7.693   6.169   7.338
13063WAT      O39430   2.539   0.015   9.889
13063WAT     H139431   2.547  -0.078   9.852
13063WAT     H239432   2.602   0.025   9.966
13064WAT      O39433   2.307   0.386   9.181
13064WAT     H139434   2.320   0.402   9.278
13064WAT     H239435   2.315   0.472   9.131
13065WAT      O39436   6.623   2.589   5.748
13065WAT     H139437   6.635   2.683   5.780
13065WAT     H239438   6.657   2.581   5.654
13066WAT      O39439   6.155   6.316   1.360
13066WAT     H139440   6.225   6.246   1.347
13066WAT     H239441   6.170   6.362   1.448
13067WAT      O39442   8.649   9.185   9.312
13067WAT     H139443   8.741   9.155   9.334
13067WAT     H239444   8.625   9.156   9.219
13068WAT      O39445   0.443   5.844   0.029
13068WAT     H139446   0.483   5.823  -0.060
13068WAT     H239447   0.513   5.887   0.087
13069WAT      O39448   6.278   5.100   5.016
13069WAT     H139449   6.234   5.057   4.937
13069WAT     H239450   6.262   5.199   5.012
13070WAT      O39451   2.078   8.391   2.891
13070WAT     H139452   2.095   8.299   2.853
13070WAT     H239453   2.164   8.441   2.895
13071WAT      O39454   7.949   3.381   8.227
13071WAT     H139455   7.934   3.336   8.139
13071WAT     H239456   8.046   3.376   8.250
13072WAT      O39457   6.890   1.427   4.796
13072WAT     H139458   6.887   1.387   4.887
13072WAT     H239459   6.852   1.362   4.730
13073WAT      O39460   6.375   8.817   4.342
13073WAT     H139461   6.391   8.749   4.414
13073WAT     H239462   6.446   8.809   4.272
13074WAT      O39463   3.561   2.920   6.929
13074WAT     H139464   3.606   2.890   6.845
13074WAT     H239465   3.510   3.004   6.911
13075WAT      O39466   4.985   9.635   8.015
13075WAT     H139467   4.906   9.682   7.976
13075WAT     H239468   5.064   9.646   7.955
13076WAT      O39469   3.050   4.454   8.735
13076WAT     H139470   2.968   4.441   8.790
13076WAT     H239471   3.130   4.423   8.787
13077WAT      O39472   9.723   6.795   2.309
13077WAT     H139473   9.652   6.762   2.371
13077WAT     H239474   9.809   6.806   2.359
13078WAT      O39475   2.738   1.351   8.073
13078WAT     H139476   2.674   1.278   8.048
13078WAT     H239477   2.721   1.379   8.168
13079WAT      O39478   7.737   7.089   0.209
13079WAT     H139479   7.646   7.131   0.211
13079WAT     H239480   7.728   6.990   0.200
13080WAT      O39481   6.199   6.422   6.072
13080WAT     H139482   6.121   6.377   6.028
13080WAT     H239483   6.270   6.439   6.004
13081WAT      O39484   8.705   4.865   4.783
13081WAT     H139485   8.765   4.900   4.711
13081WAT     H239486   8.675   4.940   4.841
13082WAT      O39487   5.676   6.378   0.361
13082WAT     H139488   5.620   6.296   0.366
13082WAT     H239489   5.760   6.359   0.310
13083WAT      O39490   6.867   3.468   7.038
13083WAT     H139491   6.866   3.553   6.986
13083WAT     H239492   6.858   3.488   7.135
13084WAT      O39493   2.545   7.544   7.062
13084WAT     H139494   2.641   7.571   7.054
13084WAT     H239495   2.512   7.509   6.975
13085WAT      O39496   5.737   8.122   9.306
13085WAT     H139497   5.649   8.164   9.329
13085WAT     H239498   5.793   8.115   9.389
13086WAT      O39499   9.233   9.713   4.845
13086WAT     H139500   9.172   9.786   4.877
13086WAT     H239501   9.322   9.723   4.889
13087WAT      O39502   0.857   7.457   7.077
13087WAT     H139503   0.946   7.465   7.031
13087WAT     H239504   0.814   7.371   7.050
13088WAT      O39505   0.989   2.917   6.376
13088WAT     H139506   0.951   2.982   6.310
13088WAT     H239507   0.946   2.931   6.465
13089WAT      O39508   0.459   8.049   7.212
13089WAT     H139509   0.488   8.143   7.230
13089WAT     H239510   0.527   7.986   7.249
13090WAT      O39511   6.302   4.082   7.459
13090WAT     H139512   6.315   3.984   7.446
13090WAT     H239513   6.376   4.132   7.414
13091WAT      O39514   5.740   0.144   4.759
13091WAT     H139515   5.682   0.136   4.677
13091WAT     H239516   5.687   0.118   4.840
13092WAT      O39517   5.250   3.481   6.875
13092WAT     H139518   5.204   3.521   6.796
13092WAT     H239519   5.311   3.408   6.844
13093WAT      O39520   2.489   4.511   5.982
13093WAT     H139521   2.504   4.467   6.071
13093WAT     H239522   2.461   4.442   5.915
13094WAT      O39523   2.493   9.237   3.063
13094WAT     H139524   2.494   9.228   3.163
13094WAT     H239525   2.586   9.258   3.032
13095WAT      O39526   0.072   2.001   2.157
13095WAT     H139527   0.135   2.039   2.226
13095WAT     H239528   0.125   1.955   2.086
13096WAT      O39529   9.104   4.729   4.133
13096WAT     H139530   9.019   4.717   4.186
13096WAT     H239531   9.087   4.791   4.057
13097WAT      O39532   4.358   1.297   2.406
13097WAT     H139533   4.435   1.238   2.380
13097WAT     H239534   4.311   1.328   2.324
13098WAT      O39535   3.885   3.858   3.493
13098WAT     H139536   3.787   3.881   3.494
13098WAT     H239537   3.911   3.824   3.583
13099WAT      O39538   3.853   3.128   3.411
13099WAT     H139539   3.842   3.068   3.490
13099WAT     H239540   3.821   3.081   3.329
13100WAT      O39541   2.681   2.890   1.512
13100WAT     H139542   2.755   2.917   1.450
13100WAT     H239543   2.593   2.910   1.470
13101WAT      O39544   6.593   4.178   9.438
13101WAT     H139545   6.528   4.146   9.507
13101WAT     H239546   6.546   4.189   9.351
13102WAT      O39547   0.982   6.771   2.849
13102WAT     H139548   0.970   6.795   2.753
13102WAT     H239549   1.035   6.686   2.855
13103WAT      O39550   3.468   4.313   3.299
13103WAT     H139551   3.382   4.264   3.285
13103WAT     H239552   3.452   4.411   3.294
13104WAT      O39553   8.387   1.346   0.560
13104WAT     H139554   8.319   1.374   0.492
13104WAT     H239555   8.436   1.427   0.594
13105WAT      O39556   4.999   4.560   6.466
13105WAT     H139557   4.918   4.504   6.449
13105WAT     H239558   5.050   4.524   6.544
13106WAT      O39559   8.077   5.250   4.104
13106WAT     H139560   8.044   5.289   4.190
13106WAT     H239561   8.087   5.323   4.036
13107WAT      O39562   6.608   9.795   7.952
13107WAT     H139563   6.529   9.848   7.984
13107WAT     H239564   6.650   9.747   8.029
13108WAT      O39565   1.590   6.824   9.799
13108WAT     H139566   1.592   6.733   9.759
13108WAT     H239567   1.603   6.816   9.898
13109WAT      O39568   4.814   8.502   3.534
13109WAT     H139569   4.901   8.507   3.486
13109WAT     H239570   4.789   8.592   3.568
13110WAT      O39571   2.775   8.814   8.011
13110WAT     H139572   2.688   8.786   7.971
13110WAT     H239573   2.821   8.735   8.051
13111WAT      O39574   7.621   8.411   9.838
13111WAT     H139575   7.564   8.363   9.905
13111WAT     H239576   7.648   8.500   9.875
13112WAT      O39577   5.725   4.133   4.075
13112WAT     H139578   5.663   4.094   4.007
13112WAT     H239579   5.753   4.225   4.045
13113WAT      O39580   6.161   0.694   8.379
13113WAT     H139581   6.174   0.642   8.295
13113WAT     H239582   6.089   0.652   8.434
13114WAT      O39583   9.125   2.152   4.368
13114WAT     H139584   9.113   2.175   4.271
13114WAT     H239585   9.216   2.182   4.398
13115WAT      O39586   0.438   7.079   2.779
13115WAT     H139587   0.441   7.082   2.679
13115WAT     H239588   0.360   7.133   2.811
13116WAT      O39589   8.130   1.459   6.673
13116WAT     H139590   8.172   1.369   6.678
13116WAT     H239591   8.069   1.473   6.751
13117WAT      O39592   2.932   7.484   8.206
13117WAT     H139593   2.983   7.562   8.242
13117WAT     H239594   2.871   7.448   8.278
13118WAT      O39595   6.116   7.893   9.040
13118WAT     H139596   6.142   7.923   8.948
13118WAT     H239597   6.043   7.824   9.033
13119WAT      O39598   7.498   9.057   0.691
13119WAT     H139599   7.462   9.128   0.631
13119WAT     H239600   7.597   9.051   0.680
13120WAT      O39601   3.151   3.925   5.729
13120WAT     H139602   3.120   3.890   5.818
13120WAT     H239603   3.250   3.911   5.721
13121WAT      O39604   8.742   1.919   5.845
13121WAT     H139605   8.787   1.963   5.767
13121WAT     H239606   8.672   1.856   5.812
13122WAT      O39607   1.733   8.209   1.226
13122WAT     H139608   1.831   8.213   1.211
13122WAT     H239609   1.686   8.196   1.138
13123WAT      O39610   2.973   3.400   8.169
13123WAT     H139611   3.046   3.452   8.124
13123WAT     H239612   2.930   3.340   8.102
13124WAT      O39613   6.290   3.555   4.752
13124WAT     H139614   6.271   3.577   4.848
13124WAT     H239615   6.232   3.610   4.693
13125WAT      O39616   6.520   9.306   5.093
13125WAT     H139617   6.463   9.249   5.152
13125WAT     H239618   6.529   9.261   5.003
13126WAT      O39619   8.228   8.826   1.599
13126WAT     H139620   8.310   8.820   1.656
13126WAT     H239621   8.230   8.912   1.547
13127WAT      O39622   5.378   2.147   0.957
13127WAT     H139623   5.426   2.083   0.897
13127WAT     H239624   5.302   2.099   1.002
13128WAT      O39625   0.586   6.571   8.624
13128WAT     H139626   0.595   6.596   8.720
13128WAT     H239627   0.612   6.475   8.611
13129WAT      O39628   7.810   2.419   1.873
13129WAT     H139629   7.887   2.408   1.935
13129WAT     H239630   7.797   2.517   1.853
13130WAT      O39631   5.586   3.501   1.526
13130WAT     H139632   5.670   3.555   1.531
13130WAT     H239633   5.561   3.486   1.430
13131WAT      O39634   1.431   9.266   2.922
13131WAT     H139635   1.409   9.258   3.019
13131WAT     H239636   1.347   9.279   2.870
13132WAT      O39637   3.908   9.213   0.827
13132WAT     H139638   3.913   9.307   0.795
13132WAT     H239639   3.981   9.196   0.893
13133WAT      O39640   8.670   8.859   1.079
13133WAT     H139641   8.596   8.815   1.130
13133WAT     H239642   8.648   8.956   1.067
13134WAT      O39643   1.799   3.876   4.657
13134WAT     H139644   1.733   3.945   4.627
13134WAT     H239645   1.785   3.792   4.604
13135WAT      O39646   6.519   6.314   4.107
13135WAT     H139647   6.583   6.296   4.182
13135WAT     H239648   6.544   6.400   4.061
13136WAT      O39649   3.016   9.071   6.325
13136WAT     H139650   3.061   9.012   6.393
13136WAT     H239651   2.936   9.024   6.288
13137WAT      O39652   1.121   4.730   6.302
13137WAT     H139653   1.094   4.657   6.240
13137WAT     H239654   1.110   4.700   6.397
13138WAT      O39655   6.877   5.927   0.380
13138WAT     H139656   6.805   5.858   0.370
13138WAT     H239657   6.840   6.007   0.426
13139WAT      O39658   9.570   5.480   1.368
13139WAT     H139659   9.531   5.572   1.370
13139WAT     H239660   9.562   5.442   1.276
13140WAT      O39661   9.561   4.260   2.325
13140WAT     H139662   9.606   4.290   2.241
13140WAT     H239663   9.462   4.260   2.310
13141WAT      O39664   2.273   6.963   2.090
13141WAT     H139665   2.296   6.937   2.184
13141WAT     H239666   2.356   6.960   2.033
13142WAT      O39667   4.411   0.684   2.072
13142WAT     H139668   4.418   0.706   1.975
13142WAT     H239669   4.367   0.595   2.083
13143WAT      O39670   8.368   3.484   7.442
13143WAT     H139671   8.370   3.572   7.394
13143WAT     H239672   8.290   3.431   7.411
13144WAT      O39673   5.167   2.613   7.206
13144WAT     H139674   5.166   2.697   7.152
13144WAT     H239675   5.261   2.581   7.216
13145WAT      O39676   1.847   8.404   4.534
13145WAT     H139677   1.921   8.355   4.488
13145WAT     H239678   1.805   8.469   4.471
13146WAT      O39679   2.919   6.103   6.956
13146WAT     H139680   2.973   6.152   7.024
13146WAT     H239681   2.968   6.021   6.927
13147WAT      O39682   3.729   0.623   5.342
13147WAT     H139683   3.727   0.722   5.326
13147WAT     H239684   3.648   0.582   5.300
13148WAT      O39685   1.655   7.269   9.647
13148WAT     H139686   1.605   7.346   9.607
13148WAT     H239687   1.753   7.285   9.638
13149WAT      O39688   2.961   6.784   8.341
13149WAT     H139689   3.052   6.743   8.342
13149WAT     H239690   2.911   6.751   8.261
13150WAT      O39691   7.067   7.944   8.417
13150WAT     H139692   7.031   8.031   8.451
13150WAT     H239693   7.058   7.940   8.318
13151WAT      O39694   2.647   8.241   8.681
13151WAT     H139695   2.607   8.263   8.592
13151WAT     H239696   2.614   8.152   8.711
13152WAT      O39697   2.817   7.406   3.448
13152WAT     H139698   2.882   7.481   3.457
13152WAT     H239699   2.851   7.326   3.497
13153WAT      O39700   5.872   1.498   4.432
13153WAT     H139701   5.871   1.593   4.403
13153WAT     H239702   5.917   1.490   4.521
13154WAT      O39703   2.137   4.933   6.025
13154WAT     H139704   2.055   4.988   6.040
13154WAT     H239705   2.215   4.994   6.013
13155WAT      O39706   2.129   5.355   8.938
13155WAT     H139707   2.131   5.423   9.012
13155WAT     H239708   2.194   5.282   8.959
13156WAT      O39709   2.909   7.005   0.012
13156WAT     H139710   2.837   7.052   0.062
13156WAT     H239711   2.971   7.072  -0.030
13157WAT      O39712   4.298   7.574   3.373
13157WAT     H139713   4.364   7.647   3.355
13157WAT     H239714   4.226   7.608   3.433
13158WAT      O39715   9.483   5.585   6.154
13158WAT     H139716   9.406   5.521   6.160
13158WAT     H239717   9.520   5.583   6.061
13159WAT      O39718   0.092   3.131   9.585
13159WAT     H139719   0.117   3.101   9.493
13159WAT     H239720   0.123   3.062   9.651
13160WAT      O39721   4.739   2.423   0.491
13160WAT     H139722   4.712   2.475   0.411
13160WAT     H239723   4.832   2.388   0.480
13161WAT      O39724   0.587   4.452   7.838
13161WAT     H139725   0.589   4.546   7.870
13161WAT     H239726   0.498   4.411   7.859
13162WAT      O39727   0.880   0.389   3.470
13162WAT     H139728   0.906   0.293   3.458
13162WAT     H239729   0.781   0.398   3.457
13163WAT      O39730   8.580   1.140   1.534
13163WAT     H139731   8.626   1.227   1.517
13163WAT     H239732   8.546   1.103   1.447
13164WAT      O39733   0.339   1.163   5.040
13164WAT     H139734   0.314   1.257   5.019
13164WAT     H239735   0.415   1.135   4.980
13165WAT      O39736   3.531   6.887   5.061
13165WAT     H139737   3.529   6.980   5.098
13165WAT     H239738   3.536   6.891   4.961
13166WAT      O39739   0.612   5.805   0.451
13166WAT     H139740   0.514   5.825   0.450
13166WAT     H239741   0.661   5.886   0.483
13167WAT      O39742   7.976   6.897   7.625
13167WAT     H139743   7.901   6.842   7.663
13167WAT     H239744   7.949   6.994   7.625
13168WAT      O39745   3.364   1.961   5.172
13168WAT     H139746   3.313   2.002   5.097
13168WAT     H239747   3.381   1.865   5.152
13169WAT      O39748   6.101   7.622   0.094
13169WAT     H139749   6.055   7.541   0.130
13169WAT     H239750   6.035   7.698   0.090
13170WAT      O39751   2.022   6.764   5.980
13170WAT     H139752   2.055   6.857   5.965
13170WAT     H239753   1.936   6.750   5.932
13171WAT      O39754   9.400   9.034   3.995
13171WAT     H139755   9.395   8.968   3.920
13171WAT     H239756   9.308   9.052   4.030
13172WAT      O39757   3.624   6.562   6.908
13172WAT     H139758   3.534   6.604   6.913
13172WAT     H239759   3.623   6.475   6.958
13173WAT      O39760   0.031   5.310   9.353
13173WAT     H139761   0.058   5.230   9.300
13173WAT     H239762   0.001   5.282   9.444
13174WAT      O39763   1.086   4.166   4.802
13174WAT     H139764   1.128   4.137   4.716
13174WAT     H239765   1.065   4.263   4.798
13175WAT      O39766   1.500   3.959   3.434
13175WAT     H139767   1.497   3.953   3.534
13175WAT     H239768   1.413   3.925   3.396
13176WAT      O39769   5.129   1.149   3.998
13176WAT     H139770   5.066   1.210   3.950
13176WAT     H239771   5.085   1.113   4.080
13177WAT      O39772   3.128   6.644   0.907
13177WAT     H139773   3.171   6.669   0.994
13177WAT     H239774   3.110   6.546   0.904
13178WAT      O39775   0.434   6.990   7.197
13178WAT     H139776   0.533   6.978   7.201
13178WAT     H239777   0.401   7.026   7.284
13179WAT      O39778   2.414   3.291   6.637
13179WAT     H139779   2.363   3.336   6.564
13179WAT     H239780   2.481   3.228   6.597
13180WAT      O39781   3.557   1.120   2.392
13180WAT     H139782   3.606   1.155   2.472
13180WAT     H239783   3.622   1.095   2.321
13181WAT      O39784   0.089   3.083   0.852
13181WAT     H139785   0.179   3.045   0.872
13181WAT     H239786   0.039   3.020   0.792
13182WAT      O39787   6.713   9.347   2.072
13182WAT     H139788   6.625   9.300   2.069
13182WAT     H239789   6.780   9.294   2.021
13183WAT      O39790   8.808   8.925   9.632
13183WAT     H139791   8.781   8.863   9.558
13183WAT     H239792   8.726   8.951   9.684
13184WAT      O39793   5.002   0.305   3.500
13184WAT     H139794   4.971   0.213   3.522
13184WAT     H239795   5.014   0.358   3.584
13185WAT      O39796   9.822   5.204   9.620
13185WAT     H139797   9.830   5.273   9.691
13185WAT     H239798   9.732   5.210   9.577
13186WAT      O39799   2.211   1.010   7.592
13186WAT     H139800   2.132   0.958   7.622
13186WAT     H239801   2.180   1.092   7.544
13187WAT      O39802   8.842   8.075   9.089
13187WAT     H139803   8.930   8.044   9.055
13187WAT     H239804   8.771   8.058   9.020
13188WAT      O39805   1.943   9.161   8.044
13188WAT     H139806   1.884   9.224   7.993
13188WAT     H239807   1.984   9.210   8.121
13189WAT      O39808   2.275   9.347   3.946
13189WAT     H139809   2.211   9.287   3.995
13189WAT     H239810   2.338   9.389   4.012
13190WAT      O39811   0.392   2.002   1.001
13190WAT     H139812   0.463   1.939   0.969
13190WAT     H239813   0.435   2.077   1.051
13191WAT      O39814   8.039   7.480   5.554
13191WAT     H139815   8.103   7.533   5.499
13191WAT     H239816   8.089   7.428   5.623
13192WAT      O39817   0.127   9.808   2.564
13192WAT     H139818   0.113   9.727   2.508
13192WAT     H239819   0.042   9.861   2.567
13193WAT      O39820   1.125   8.566   2.558
13193WAT     H139821   1.043   8.620   2.576
13193WAT     H239822   1.191   8.621   2.506
13194WAT      O39823   5.517   5.719   5.398
13194WAT     H139824   5.508   5.750   5.493
13194WAT     H239825   5.528   5.798   5.338
13195WAT      O39826   8.005   0.439   2.831
13195WAT     H139827   8.010   0.525   2.780
13195WAT     H239828   8.050   0.367   2.779
13196WAT      O39829   9.014   8.306   6.838
13196WAT     H139830   8.998   8.349   6.749
13196WAT     H239831   9.004   8.206   6.829
13197WAT      O39832   9.087   6.608   4.352
13197WAT     H139833   9.116   6.693   4.397
13197WAT     H239834   9.050   6.545   4.420
13198WAT      O39835   1.808   1.316   3.357
13198WAT     H139836   1.733   1.250   3.352
13198WAT     H239837   1.827   1.338   3.453
13199WAT      O39838   4.714   2.213   6.842
13199WAT     H139839   4.620   2.183   6.828
13199WAT     H239840   4.715   2.297   6.896
13200WAT      O39841   7.744   7.916   0.391
13200WAT     H139842   7.782   7.825   0.408
13200WAT     H239843   7.717   7.958   0.478
13201WAT      O39844   5.803   6.902   6.366
13201WAT     H139845   5.866   6.898   6.288
13201WAT     H239846   5.711   6.877   6.336
13202WAT      O39847   1.549   9.041   1.021
13202WAT     H139848   1.527   9.138   1.012
13202WAT     H239849   1.637   9.023   0.977
13203WAT      O39850   7.498   3.064   1.932
13203WAT     H139851   7.418   3.119   1.908
13203WAT     H239852   7.579   3.123   1.936
13204WAT      O39853   6.120   6.002   5.099
13204WAT     H139854   6.188   5.933   5.074
13204WAT     H239855   6.160   6.093   5.091
13205WAT      O39856   6.035   9.607   6.024
13205WAT     H139857   6.034   9.510   6.047
13205WAT     H239858   6.101   9.654   6.081
13206WAT      O39859   5.078   0.378   7.198
13206WAT     H139860   5.001   0.412   7.252
13206WAT     H239861   5.151   0.346   7.259
13207WAT      O39862   0.454   4.670   2.140
13207WAT     H139863   0.539   4.720   2.125
13207WAT     H239864   0.435   4.611   2.062
13208WAT      O39865   7.520   7.444   0.366
13208WAT     H139866   7.615   7.418   0.349
13208WAT     H239867   7.503   7.535   0.327
13209WAT      O39868   9.384   6.157   7.921
13209WAT     H139869   9.296   6.111   7.922
13209WAT     H239870   9.375   6.247   7.963
13210WAT      O39871   6.357   2.191   8.425
13210WAT     H139872   6.285   2.259   8.415
13210WAT     H239873   6.340   2.115   8.361
13211WAT      O39874   5.789   2.276   1.971
13211WAT     H139875   5.732   2.344   1.924
13211WAT     H239876   5.835   2.318   2.049
13212WAT      O39877   4.550   2.015   4.606
13212WAT     H139878   4.571   2.112   4.611
13212WAT     H239879   4.634   1.964   4.586
13213WAT      O39880   4.396   9.283   5.176
13213WAT     H139881   4.439   9.251   5.091
13213WAT     H239882   4.440   9.240   5.254
13214WAT      O39883   1.583   7.209   4.220
13214WAT     H139884   1.567   7.128   4.276
13214WAT     H239885   1.495   7.251   4.196
13215WAT      O39886   4.083   3.359   3.625
13215WAT     H139887   3.990   3.372   3.590
13215WAT     H239888   4.138   3.312   3.557
13216WAT      O39889   8.324   2.555   7.113
13216WAT     H139890   8.382   2.634   7.094
13216WAT     H239891   8.380   2.480   7.148
13217WAT      O39892   7.932   8.827   1.169
13217WAT     H139893   7.916   8.868   1.080
13217WAT     H239894   8.009   8.873   1.215
13218WAT      O39895   2.396   9.827   0.836
13218WAT     H139896   2.451   9.895   0.884
13218WAT     H239897   2.302   9.832   0.868
13219WAT      O39898   9.170   7.161   3.798
13219WAT     H139899   9.201   7.085   3.740
13219WAT     H239900   9.071   7.152   3.813
13220WAT      O39901   5.058   4.204   8.627
13220WAT     H139902   5.124   4.129   8.617
13220WAT     H239903   4.977   4.185   8.573
13221WAT      O39904   4.497   8.999   4.118
13221WAT     H139905   4.566   8.991   4.046
13221WAT     H239906   4.440   8.917   4.119
13222WAT      O39907   9.221   0.153   8.065
13222WAT     H139908   9.181   0.167   8.156
13222WAT     H239909   9.222   0.055   8.044
13223WAT      O39910   8.088   8.034   9.492
13223WAT     H139911   8.136   7.952   9.462
13223WAT     H239912   8.094   8.042   9.592
13224WAT      O39913   7.831   7.242   7.898
13224WAT     H139914   7.744   7.248   7.849
13224WAT     H239915   7.849   7.146   7.921
13225WAT      O39916   0.887   5.120   5.287
13225WAT     H139917   0.960   5.174   5.245
13225WAT     H239918   0.907   5.023   5.275
13226WAT      O39919   5.105   4.139   0.871
13226WAT     H139920   5.187   4.157   0.926
13226WAT     H239921   5.053   4.064   0.913
13227WAT      O39922   3.776   4.370   2.703
13227WAT     H139923   3.733   4.365   2.613
13227WAT     H239924   3.713   4.413   2.768
13228WAT      O39925   0.196   0.241   5.491
13228WAT     H139926   0.098   0.239   5.469
13228WAT     H239927   0.223   0.153   5.528
13229WAT      O39928   7.420   8.170   4.396
13229WAT     H139929   7.457   8.259   4.368
13229WAT     H239930   7.347   8.144   4.333
13230WAT      O39931   5.617   6.421   3.665
13230WAT     H139932   5.572   6.454   3.747
13230WAT     H239933   5.644   6.499   3.608
13231WAT      O39934   4.667   6.178   3.893
13231WAT     H139935   4.715   6.091   3.885
13231WAT     H239936   4.689   6.222   3.980
13232WAT      O39937   6.773   5.571   6.513
13232WAT     H139938   6.715   5.545   6.436
13232WAT     H239939   6.865   5.534   6.499
13233WAT      O39940   5.105   2.077   4.156
13233WAT     H139941   5.029   2.107   4.098
13233WAT     H239942   5.190   2.115   4.122
13234WAT      O39943   6.273   2.290   9.777
13234WAT     H139944   6.213   2.287   9.697
13234WAT     H239945   6.220   2.265   9.859
13235WAT      O39946   6.013   4.786   0.843
13235WAT     H139947   5.915   4.798   0.860
13235WAT     H239948   6.065   4.832   0.915
13236WAT      O39949   5.101   1.621   0.129
13236WAT     H139950   5.044   1.694   0.089
13236WAT     H239951   5.113   1.548   0.063
13237WAT      O39952   6.268   7.527   7.445
13237WAT     H139953   6.217   7.609   7.419
13237WAT     H239954   6.350   7.553   7.495
13238WAT      O39955   4.654   4.236   7.555
13238WAT     H139956   4.646   4.138   7.577
13238WAT     H239957   4.601   4.289   7.622
13239WAT      O39958   6.889   3.683   1.846
13239WAT     H139959   6.910   3.775   1.877
13239WAT     H239960   6.892   3.680   1.746
13240WAT      O39961   5.170   5.143   5.481
13240WAT     H139962   5.115   5.224   5.460
13240WAT     H239963   5.123   5.089   5.551
13241WAT      O39964   2.354   1.489   4.325
13241WAT     H139965   2.443   1.476   4.281
13241WAT     H239966   2.314   1.399   4.345
13242WAT      O39967   5.479   5.171   6.454
13242WAT     H139968   5.475   5.257   6.402
13242WAT     H239969   5.401   5.166   6.516
13243WAT      O39970   8.536   3.378   2.707
13243WAT     H139971   8.489   3.355   2.622
13243WAT     H239972   8.609   3.444   2.687
13244WAT      O39973   9.401   6.385   6.492
13244WAT     H139974   9.313   6.352   6.524
13244WAT     H239975   9.472   6.319   6.516
13245WAT      O39976   4.969   2.136   4.801
13245WAT     H139977   4.992   2.040   4.783
13245WAT     H239978   4.998   2.161   4.893
13246WAT      O39979   0.031   4.300   3.113
13246WAT     H139980   0.018   4.381   3.055
13246WAT     H239981   0.115   4.310   3.166
13247WAT      O39982   2.094   2.434   4.537
13247WAT     H139983   2.095   2.350   4.485
13247WAT     H239984   2.014   2.488   4.512
13248WAT      O39985   2.919   5.823   4.547
13248WAT     H139986   3.002   5.859   4.588
13248WAT     H239987   2.932   5.814   4.448
13249WAT      O39988   7.916   8.154   5.105
13249WAT     H139989   7.822   8.186   5.092
13249WAT     H239990   7.949   8.114   5.020
13250WAT      O39991   5.208   0.218   9.399
13250WAT     H139992   5.276   0.291   9.400
13250WAT     H239993   5.246   0.138   9.446
13251WAT      O39994   4.590   1.447   2.757
13251WAT     H139995   4.499   1.447   2.714
13251WAT     H239996   4.660   1.453   2.686
13252WAT      O39997   0.204   6.488   6.540
13252WAT     H139998   0.255   6.444   6.614
13252WAT     H239999   0.245   6.578   6.520
13253WAT      O40000   6.981   0.079   6.827
13253WAT     H140001   6.918   0.136   6.773
13253WAT     H240002   7.016   0.006   6.769
13254WAT      O40003   8.602   2.481   6.889
13254WAT     H140004   8.550   2.395   6.885
13254WAT     H240005   8.698   2.462   6.908
13255WAT      O40006   5.094   6.878   4.568
13255WAT     H140007   5.077   6.919   4.478
13255WAT     H240008   5.112   6.780   4.557
13256WAT      O40009   2.916   8.052   5.488
13256WAT     H140010   2.877   8.100   5.409
13256WAT     H240011   2.887   8.098   5.572
13257WAT      O40012   6.199   4.077   1.811
13257WAT     H140013   6.273   4.106   1.751
13257WAT     H240014   6.163   4.155   1.862
13258WAT      O40015   1.348   3.917   6.315
13258WAT     H140016   1.387   4.009   6.317
13258WAT     H240017   1.262   3.918   6.263
13259WAT      O40018   4.355   1.917   5.238
13259WAT     H140019   4.374   1.979   5.162
13259WAT     H240020   4.258   1.895   5.240
13260WAT      O40021   6.948   8.758   8.625
13260WAT     H140022   6.850   8.778   8.629
13260WAT     H240023   6.997   8.839   8.591
13261WAT      O40024   6.608   5.530   6.305
13261WAT     H140025   6.621   5.434   6.279
13261WAT     H240026   6.596   5.585   6.222
13262WAT      O40027   0.778   2.312   0.850
13262WAT     H140028   0.683   2.328   0.878
13262WAT     H240029   0.779   2.267   0.761
13263WAT      O40030   1.136   6.463   8.780
13263WAT     H140031   1.061   6.517   8.743
13263WAT     H240032   1.205   6.449   8.709
13264WAT      O40033   7.642   5.398   3.384
13264WAT     H140034   7.689   5.370   3.301
13264WAT     H240035   7.543   5.391   3.371
13265WAT      O40036   8.026   9.199   1.788
13265WAT     H140037   8.096   9.229   1.852
13265WAT     H240038   8.069   9.165   1.705
13266WAT      O40039   0.834   5.093   1.495
13266WAT     H140040   0.892   5.043   1.431
13266WAT     H240041   0.738   5.066   1.482
13267WAT      O40042   2.261   3.696   4.651
13267WAT     H140043   2.254   3.606   4.696
13267WAT     H240044   2.188   3.755   4.685
13268WAT      O40045   2.162   9.167   4.750
13268WAT     H140046   2.167   9.164   4.850
13268WAT     H240047   2.078   9.122   4.720
13269WAT      O40048   7.140   6.122   1.164
13269WAT     H140049   7.133   6.026   1.139
13269WAT     H240050   7.229   6.158   1.137
13270WAT      O40051   2.984   0.752   8.733
13270WAT     H140052   2.933   0.667   8.722
13270WAT     H240053   3.024   0.778   8.645
13271WAT      O40054   7.800   9.204   6.323
13271WAT     H140055   7.854   9.272   6.274
13271WAT     H240056   7.844   9.115   6.316
13272WAT      O40057   0.861   4.817   3.932
13272WAT     H140058   0.911   4.745   3.979
13272WAT     H240059   0.827   4.883   3.999
13273WAT      O40060   5.807   6.232   5.270
13273WAT     H140061   5.766   6.158   5.322
13273WAT     H240062   5.907   6.223   5.273
13274WAT      O40063   9.739   5.421   7.101
13274WAT     H140064   9.781   5.359   7.166
13274WAT     H240065   9.642   5.398   7.091
13275WAT      O40066   9.665   3.366   6.028
13275WAT     H140067   9.604   3.360   5.949
13275WAT     H240068   9.753   3.403   5.999
13276WAT      O40069   1.255   4.769   9.489
13276WAT     H140070   1.203   4.727   9.564
13276WAT     H240071   1.261   4.705   9.413
13277WAT      O40072   5.504   9.380   8.695
13277WAT     H140073   5.547   9.466   8.670
13277WAT     H240074   5.526   9.358   8.790
13278WAT      O40075   4.053   6.152   4.137
13278WAT     H140076   4.062   6.189   4.229
13278WAT     H240077   4.062   6.226   4.070
13279WAT      O40078   4.260   7.785   8.324
13279WAT     H140079   4.267   7.858   8.256
13279WAT     H240080   4.334   7.719   8.308
13280WAT      O40081   5.955   4.209   9.261
13280WAT     H140082   5.898   4.238   9.184
13280WAT     H240083   5.997   4.289   9.303
13281WAT      O40084   3.793   6.768   6.951
13281WAT     H140085   3.745   6.843   6.906
13281WAT     H240086   3.746   6.682   6.931
13282WAT      O40087   8.738   7.508   7.648
13282WAT     H140088   8.828   7.546   7.627
13282WAT     H240089   8.669   7.555   7.594
13283WAT      O40090   1.362   7.905   3.980
13283WAT     H140091   1.323   7.986   3.936
13283WAT     H240092   1.319   7.823   3.941
13284WAT      O40093   3.430   9.732   0.364
13284WAT     H140094   3.415   9.639   0.397
13284WAT     H240095   3.342   9.780   0.359
13285WAT      O40096   1.809   1.738   1.511
13285WAT     H140097   1.807   1.649   1.465
13285WAT     H240098   1.880   1.795   1.471
13286WAT      O40099   8.435   1.881   2.549
13286WAT     H140100   8.477   1.916   2.633
13286WAT     H240101   8.347   1.925   2.534
13287WAT      O40102   3.464   6.727   8.046
13287WAT     H140103   3.559   6.754   8.031
13287WAT     H240104   3.436   6.752   8.139
13288WAT      O40105   2.390   8.083   5.185
13288WAT     H140106   2.320   8.026   5.230
13288WAT     H240107   2.439   8.135   5.254
13289WAT      O40108   5.881   3.967   3.699
13289WAT     H140109   5.912   4.060   3.723
13289WAT     H240110   5.902   3.905   3.775
13290WAT      O40111   7.718   4.924   4.021
13290WAT     H140112   7.771   4.920   3.936
13290WAT     H240113   7.768   4.875   4.093
13291WAT      O40114   0.448   6.400   2.826
13291WAT     H140115   0.495   6.361   2.906
13291WAT     H240116   0.484   6.491   2.807
13292WAT      O40117   8.263   6.118   6.407
13292WAT     H140118   8.202   6.196   6.420
13292WAT     H240119   8.351   6.149   6.371
13293WAT      O40120   6.931   1.004   0.956
13293WAT     H140121   7.004   0.955   0.908
13293WAT     H240122   6.967   1.089   0.993
13294WAT      O40123   7.161   4.633   7.486
13294WAT     H140124   7.214   4.655   7.568
13294WAT     H240125   7.088   4.569   7.509
13295WAT      O40126   2.433   4.706   2.506
13295WAT     H140127   2.513   4.677   2.558
13295WAT     H240128   2.353   4.652   2.533
13296WAT      O40129   6.550   9.078   8.995
13296WAT     H140130   6.586   9.000   8.943
13296WAT     H240131   6.503   9.044   9.077
13297WAT      O40132   0.932   5.215   1.887
13297WAT     H140133   0.933   5.128   1.837
13297WAT     H240134   0.853   5.269   1.859
13298WAT      O40135   9.009   6.409   7.973
13298WAT     H140136   8.920   6.444   7.944
13298WAT     H240137   8.999   6.358   8.059
13299WAT      O40138   7.234   3.701   7.278
13299WAT     H140139   7.274   3.776   7.330
13299WAT     H240140   7.176   3.737   7.206
13300WAT      O40141   8.440   9.815   4.311
13300WAT     H140142   8.485   9.737   4.354
13300WAT     H240143   8.341   9.808   4.324
13301WAT      O40144   5.662   7.988   0.343
13301WAT     H140145   5.757   7.982   0.372
13301WAT     H240146   5.630   7.897   0.314
13302WAT      O40147   0.876   0.933   1.462
13302WAT     H140148   0.864   0.837   1.437
13302WAT     H240149   0.923   0.981   1.389
13303WAT      O40150   1.985   1.416   2.147
13303WAT     H140151   1.898   1.454   2.177
13303WAT     H240152   1.969   1.332   2.096
13304WAT      O40153   4.547   8.774   7.867
13304WAT     H140154   4.513   8.847   7.808
13304WAT     H240155   4.550   8.807   7.962
13305WAT      O40156   9.107   6.602   0.092
13305WAT     H140157   9.031   6.638   0.037
13305WAT     H240158   9.129   6.509   0.062
13306WAT      O40159   9.403   5.982   8.804
13306WAT     H140160   9.317   6.005   8.758
13306WAT     H240161   9.385   5.963   8.901
13307WAT      O40162   7.792   2.752   9.493
13307WAT     H140163   7.731   2.775   9.417
13307WAT     H240164   7.749   2.681   9.549
13308WAT      O40165   4.308   0.975   5.885
13308WAT     H140166   4.284   0.909   5.956
13308WAT     H240167   4.280   0.940   5.796
13309WAT      O40168   5.145   4.776   1.903
13309WAT     H140169   5.143   4.867   1.946
13309WAT     H240170   5.061   4.763   1.851
13310WAT      O40171   1.717   3.783   7.034
13310WAT     H140172   1.765   3.865   7.064
13310WAT     H240173   1.778   3.725   6.981
13311WAT      O40174   7.052   1.309   9.435
13311WAT     H140175   7.010   1.291   9.524
13311WAT     H240176   7.118   1.236   9.414
13312WAT      O40177   0.058   7.210   5.473
13312WAT     H140178   0.065   7.154   5.556
13312WAT     H240179   0.129   7.184   5.408
13313WAT      O40180   2.348   3.809   1.942
13313WAT     H140181   2.371   3.889   1.887
13313WAT     H240182   2.347   3.728   1.884
13314WAT      O40183   6.459   6.355   4.933
13314WAT     H140184   6.419   6.364   4.841
13314WAT     H240185   6.477   6.447   4.970
13315WAT      O40186   3.979   4.854   9.658
13315WAT     H140187   3.962   4.851   9.559
13315WAT     H240188   4.078   4.861   9.675
13316WAT      O40189   1.969   6.136   6.748
13316WAT     H140190   1.981   6.051   6.799
13316WAT     H240191   2.026   6.207   6.788
13317WAT      O40192   7.975   5.686   0.970
13317WAT     H140193   8.013   5.594   0.979
13317WAT     H240194   8.024   5.748   1.032
13318WAT      O40195   0.113   5.075   9.226
13318WAT     H140196   0.143   5.039   9.314
13318WAT     H240197   0.132   5.009   9.154
13319WAT      O40198   2.855   1.220   9.872
13319WAT     H140199   2.794   1.142   9.888
13319WAT     H240200   2.800   1.301   9.852
13320WAT      O40201   3.745   4.604   1.160
13320WAT     H140202   3.716   4.566   1.248
13320WAT     H240203   3.829   4.655   1.172
13321WAT      O40204   3.925   8.826   9.293
13321WAT     H140205   3.831   8.830   9.329
13321WAT     H240206   3.942   8.733   9.259
13322WAT      O40207   0.735   1.732   6.119
13322WAT     H140208   0.671   1.808   6.117
13322WAT     H240209   0.801   1.741   6.045
13323WAT      O40210   8.241   8.718   6.153
13323WAT     H140211   8.336   8.711   6.124
13323WAT     H240212   8.190   8.638   6.121
13324WAT      O40213   0.886   5.684   7.453
13324WAT     H140214   0.971   5.736   7.445
13324WAT     H240215   0.850   5.694   7.546
13325WAT      O40216   3.707   7.926   6.210
13325WAT     H140217   3.642   7.919   6.134
13325WAT     H240218   3.670   7.878   6.290
13326WAT      O40219   1.603   4.980   0.866
13326WAT     H140220   1.702   4.970   0.868
13326WAT     H240221   1.570   5.000   0.959
13327WAT      O40222   7.160   9.755   9.579
13327WAT     H140223   7.207   9.674   9.614
13327WAT     H240224   7.225   9.813   9.529
13328WAT      O40225   0.145   4.209   3.456
13328WAT     H140226   0.235   4.240   3.485
13328WAT     H240227   0.154   4.130   3.395
13329WAT      O40228   1.400   3.163   6.891
13329WAT     H140229   1.469   3.113   6.943
13329WAT     H240230   1.445   3.224   6.826
13330WAT      O40231   9.237   4.022   7.617
13330WAT     H140232   9.162   4.087   7.608
13330WAT     H240233   9.242   3.966   7.534
13331WAT      O40234   0.308   0.047   1.374
13331WAT     H140235   0.306  -0.021   1.301
13331WAT     H240236   0.221   0.098   1.374
13332WAT      O40237   3.997   6.584   2.148
13332WAT     H140238   4.012   6.664   2.090
13332WAT     H240239   4.069   6.578   2.216
13333WAT      O40240   1.755   8.763   5.946
13333WAT     H140241   1.839   8.810   5.918
13333WAT     H240242   1.726   8.700   5.873
13334WAT      O40243   1.541   4.676   6.426
13334WAT     H140244   1.473   4.605   6.414
13334WAT     H240245   1.536   4.740   6.350
13335WAT      O40246   6.326   9.030   4.988
13335WAT     H140247   6.286   9.101   4.932
13335WAT     H240248   6.281   8.943   4.969
13336WAT      O40249   5.086   9.370   1.218
13336WAT     H140250   5.021   9.416   1.278
13336WAT     H240251   5.162   9.431   1.199
13337WAT      O40252   2.276   5.547   6.608
13337WAT     H140253   2.223   5.631   6.617
13337WAT     H240254   2.362   5.556   6.658
13338WAT      O40255   9.153   5.629   0.679
13338WAT     H140256   9.153   5.702   0.747
13338WAT     H240257   9.148   5.541   0.725
13339WAT      O40258   1.898   5.833   9.858
13339WAT     H140259   1.901   5.856   9.955
13339WAT     H240260   1.894   5.917   9.804
13340WAT      O40261   9.572   5.304   8.227
13340WAT     H140262   9.641   5.350   8.283
13340WAT     H240263   9.589   5.206   8.228
13341WAT      O40264   7.403   3.982   4.382
13341WAT     H140265   7.337   3.930   4.328
13341WAT     H240266   7.415   3.938   4.471
13342WAT      O40267   7.802   1.382   5.521
13342WAT     H140268   7.849   1.470   5.522
13342WAT     H240269   7.840   1.323   5.593
13343WAT      O40270   7.070   8.943   0.461
13343WAT     H140271   7.154   8.997   0.457
13343WAT     H240272   7.052   8.903   0.371
13344WAT      O40273   2.635   7.176   1.849
13344WAT     H140274   2.720   7.142   1.810
13344WAT     H240275   2.591   7.238   1.784
13345WAT      O40276   6.701   1.858   8.631
13345WAT     H140277   6.685   1.946   8.586
13345WAT     H240278   6.638   1.848   8.708
13346WAT      O40279   1.893   0.641   5.179
13346WAT     H140280   1.857   0.672   5.091
13346WAT     H240281   1.887   0.541   5.184
13347WAT      O40282   9.191   8.414   4.513
13347WAT     H140283   9.133   8.450   4.586
13347WAT     H240284   9.260   8.482   4.488
13348WAT      O40285   7.841   4.316   5.141
13348WAT     H140286   7.842   4.240   5.207
13348WAT     H240287   7.933   4.353   5.131
13349WAT      O40288   0.632   5.444   7.062
13349WAT     H140289   0.568   5.426   6.987
13349WAT     H240290   0.610   5.532   7.104
13350WAT      O40291   7.869   5.913   6.958
13350WAT     H140292   7.927   5.994   6.947
13350WAT     H240293   7.906   5.856   7.032
13351WAT      O40294   3.283   7.221   6.591
13351WAT     H140295   3.200   7.264   6.629
13351WAT     H240296   3.362   7.249   6.646
13352WAT      O40297   6.947   1.968   1.389
13352WAT     H140298   6.858   1.972   1.343
13352WAT     H240299   6.933   1.966   1.488
13353WAT      O40300   9.282   3.573   5.173
13353WAT     H140301   9.318   3.612   5.088
13353WAT     H240302   9.337   3.606   5.250
13354WAT      O40303   8.765   9.585   4.191
13354WAT     H140304   8.711   9.517   4.142
13354WAT     H240305   8.710   9.628   4.262
13355WAT      O40306   4.997   7.987   6.225
13355WAT     H140307   5.006   7.892   6.254
13355WAT     H240308   5.078   8.039   6.252
13356WAT      O40309   3.227   1.466   8.381
13356WAT     H140310   3.320   1.494   8.406
13356WAT     H240311   3.208   1.375   8.417
13357WAT      O40312   6.255   3.634   6.827
13357WAT     H140313   6.231   3.596   6.917
13357WAT     H240314   6.282   3.729   6.837
13358WAT      O40315   1.736   6.393   4.067
13358WAT     H140316   1.661   6.369   4.006
13358WAT     H240317   1.787   6.311   4.091
13359WAT      O40318   6.486   6.715   9.682
13359WAT     H140319   6.486   6.796   9.742
13359WAT     H240320   6.465   6.743   9.589
13360WAT      O40321   6.823   5.499   4.529
13360WAT     H140322   6.885   5.455   4.464
13360WAT     H240323   6.843   5.597   4.532
13361WAT      O40324   4.497   4.184   2.727
13361WAT     H140325   4.541   4.117   2.787
13361WAT     H240326   4.454   4.256   2.782
13362WAT      O40327   1.282   6.225   8.383
13362WAT     H140328   1.361   6.270   8.341
13362WAT     H240329   1.276   6.250   8.479
13363WAT      O40330   1.500   1.219   5.541
13363WAT     H140331   1.587   1.178   5.513
13363WAT     H240332   1.483   1.199   5.637
13364WAT      O40333   0.521   8.907   5.155
13364WAT     H140334   0.466   8.834   5.114
13364WAT     H240335   0.598   8.928   5.094
13365WAT      O40336   8.886   3.935   2.518
13365WAT     H140337   8.867   4.027   2.484
13365WAT     H240338   8.804   3.898   2.561
13366WAT      O40339   3.449   7.040   5.516
13366WAT     H140340   3.399   6.955   5.534
13366WAT     H240341   3.389   7.118   5.531
13367WAT      O40342   4.058   3.241   3.213
13367WAT     H140343   3.984   3.306   3.226
13367WAT     H240344   4.019   3.151   3.192
13368WAT      O40345   4.128   7.276   7.571
13368WAT     H140346   4.033   7.254   7.547
13368WAT     H240347   4.190   7.235   7.504
13369WAT      O40348   6.661   3.238   6.200
13369WAT     H140349   6.670   3.142   6.229
13369WAT     H240350   6.619   3.242   6.110
13370WAT      O40351   0.837   3.261   1.958
13370WAT     H140352   0.866   3.172   1.923
13370WAT     H240353   0.917   3.315   1.985
13371WAT      O40354   0.273   3.329   2.243
13371WAT     H140355   0.312   3.244   2.208
13371WAT     H240356   0.330   3.364   2.316
13372WAT      O40357   4.545   4.285   5.852
13372WAT     H140358   4.598   4.328   5.778
13372WAT     H240359   4.520   4.192   5.825
13373WAT      O40360   3.219   1.620   6.741
13373WAT     H140361   3.239   1.609   6.839
13373WAT     H240362   3.298   1.662   6.696
13374WAT      O40363   2.535   6.343   7.090
13374WAT     H140364   2.576   6.256   7.061
13374WAT     H240365   2.501   6.334   7.183
13375WAT      O40366   9.452   1.836   0.465
13375WAT     H140367   9.408   1.926   0.466
13375WAT     H240368   9.514   1.830   0.387
13376WAT      O40369   4.650   2.359   7.939
13376WAT     H140370   4.630   2.451   7.974
13376WAT     H240371   4.722   2.365   7.869
13377WAT      O40372   3.780   4.623   9.609
13377WAT     H140373   3.841   4.681   9.662
13377WAT     H240374   3.817   4.612   9.517
13378WAT      O40375   2.892   9.643   3.607
13378WAT     H140376   2.871   9.555   3.563
13378WAT     H240377   2.963   9.629   3.676
13379WAT      O40378   0.466   1.628   9.821
13379WAT     H140379   0.529   1.551   9.830
13379WAT     H240380   0.373   1.594   9.814
13380WAT      O40381   5.735   0.480   9.801
13380WAT     H140382   5.692   0.404   9.750
13380WAT     H240383   5.835   0.472   9.793
13381WAT      O40384   2.737   7.746   2.459
13381WAT     H140385   2.734   7.703   2.549
13381WAT     H240386   2.643   7.765   2.429
13382WAT      O40387   1.165   7.656   7.018
13382WAT     H140388   1.117   7.731   6.972
13382WAT     H240389   1.150   7.663   7.117
13383WAT      O40390   7.335   2.013   5.610
13383WAT     H140391   7.374   1.955   5.681
13383WAT     H240392   7.409   2.061   5.562
13384WAT      O40393   8.319   6.838   1.155
13384WAT     H140394   8.240   6.860   1.098
13384WAT     H240395   8.304   6.872   1.248
13385WAT      O40396   1.874   2.741   3.537
13385WAT     H140397   1.893   2.831   3.575
13385WAT     H240398   1.808   2.750   3.462
13386WAT      O40399   1.282   4.129   1.097
13386WAT     H140400   1.206   4.094   1.151
13386WAT     H240401   1.367   4.119   1.148
13387WAT      O40402   5.008   1.144   8.771
13387WAT     H140403   4.915   1.130   8.804
13387WAT     H240404   5.070   1.154   8.849
13388WAT      O40405   4.894   5.386   0.560
13388WAT     H140406   4.934   5.295   0.547
13388WAT     H240407   4.966   5.450   0.588
13389WAT      O40408   9.404   5.223   2.427
13389WAT     H140409   9.415   5.141   2.371
13389WAT     H240410   9.342   5.286   2.381
13390WAT      O40411   6.360   3.784   2.809
13390WAT     H140412   6.444   3.767   2.861
13390WAT     H240413   6.370   3.748   2.716
13391WAT      O40414   8.036   4.530   6.921
13391WAT     H140415   8.093   4.449   6.905
13391WAT     H240416   8.029   4.547   7.019
13392WAT      O40417   8.861   9.617   7.062
13392WAT     H140418   8.775   9.578   7.094
13392WAT     H240419   8.908   9.662   7.139
13393WAT      O40420   6.427   1.796   0.415
13393WAT     H140421   6.493   1.811   0.488
13393WAT     H240422   6.468   1.821   0.327
13394WAT      O40423   0.140   2.827   3.235
13394WAT     H140424   0.209   2.842   3.164
13394WAT     H240425   0.106   2.916   3.266
13395WAT      O40426   8.787   2.418   0.717
13395WAT     H140427   8.753   2.343   0.774
13395WAT     H240428   8.725   2.433   0.641
13396WAT      O40429   5.014   0.731   2.875
13396WAT     H140430   4.982   0.670   2.947
13396WAT     H240431   4.965   0.711   2.790
13397WAT      O40432   1.688   8.053   1.671
13397WAT     H140433   1.720   8.044   1.576
13397WAT     H240434   1.632   7.974   1.695
13398WAT      O40435   8.793   6.991   0.990
13398WAT     H140436   8.879   6.941   0.978
13398WAT     H240437   8.718   6.938   0.950
13399WAT      O40438   0.090   8.811   5.645
13399WAT     H140439   0.113   8.723   5.687
13399WAT     H240440   0.086   8.881   5.716
13400WAT      O40441   3.645   7.136   8.927
13400WAT     H140442   3.562   7.157   8.876
13400WAT     H240443   3.655   7.037   8.935
13401WAT      O40444   9.349   6.563   2.888
13401WAT     H140445   9.402   6.639   2.927
13401WAT     H240446   9.259   6.597   2.860
13402WAT      O40447   3.811   8.647   4.369
13402WAT     H140448   3.905   8.627   4.341
13402WAT     H240449   3.806   8.740   4.404
13403WAT      O40450   6.003   3.608   8.526
13403WAT     H140451   5.995   3.520   8.480
13403WAT     H240452   5.930   3.669   8.495
13404WAT      O40453   6.428   3.497   3.473
13404WAT     H140454   6.505   3.553   3.504
13404WAT     H240455   6.345   3.523   3.524
13405WAT      O40456   5.353   5.071   9.239
13405WAT     H140457   5.322   5.060   9.334
13405WAT     H240458   5.302   5.145   9.196
13406WAT      O40459   7.909   9.274   2.051
13406WAT     H140460   7.852   9.204   2.094
13406WAT     H240461   7.933   9.246   1.958
13407WAT      O40462   5.538   0.249   1.764
13407WAT     H140463   5.441   0.234   1.744
13407WAT     H240464   5.571   0.327   1.711
13408WAT      O40465   0.843   9.040   8.222
13408WAT     H140466   0.907   8.963   8.228
13408WAT     H240467   0.860   9.104   8.296
13409WAT      O40468   6.357   6.342   7.027
13409WAT     H140469   6.335   6.390   6.942
13409WAT     H240470   6.334   6.401   7.105
13410WAT      O40471   1.450   2.518   0.267
13410WAT     H140472   1.472   2.609   0.301
13410WAT     H240473   1.364   2.522   0.215
13411WAT      O40474   3.789   2.543   0.440
13411WAT     H140475   3.752   2.499   0.521
13411WAT     H240476   3.851   2.481   0.393
13412WAT      O40477   7.204   4.478   4.728
13412WAT     H140478   7.163   4.488   4.818
13412WAT     H240479   7.177   4.555   4.670
13413WAT      O40480   8.395   6.391   7.667
13413WAT     H140481   8.423   6.482   7.637
13413WAT     H240482   8.471   6.348   7.715
13414WAT      O40483   5.973   0.828   2.212
13414WAT     H140484   5.905   0.780   2.157
13414WAT     H240485   5.927   0.900   2.265
13415WAT      O40486   9.857   2.494   8.784
13415WAT     H140487   9.762   2.465   8.773
13415WAT     H240488   9.918   2.423   8.748
13416WAT      O40489   1.332   3.318   1.938
13416WAT     H140490   1.379   3.351   1.856
13416WAT     H240491   1.339   3.218   1.943
13417WAT      O40492   1.634   0.135   4.395
13417WAT     H140493   1.567   0.204   4.370
13417WAT     H240494   1.668   0.153   4.487
13418WAT      O40495   1.333   3.080   8.454
13418WAT     H140496   1.429   3.052   8.457
13418WAT     H240497   1.288   3.035   8.377
13419WAT      O40498   2.117   6.448   5.565
13419WAT     H140499   2.040   6.473   5.507
13419WAT     H240500   2.176   6.528   5.577
13420WAT      O40501   0.902   8.766   0.128
13420WAT     H140502   0.961   8.817   0.065
13420WAT     H240503   0.843   8.704   0.076
13421WAT      O40504   5.514   0.507   4.273
13421WAT     H140505   5.531   0.497   4.175
13421WAT     H240506   5.429   0.558   4.288
13422WAT      O40507   7.768   5.075   4.758
13422WAT     H140508   7.848   5.114   4.805
13422WAT     H240509   7.761   5.114   4.666
13423WAT      O40510   6.799   6.751   3.701
13423WAT     H140511   6.855   6.688   3.648
13423WAT     H240512   6.821   6.845   3.675
13424WAT      O40513   0.700   5.365   9.534
13424WAT     H140514   0.722   5.457   9.503
13424WAT     H240515   0.747   5.298   9.477
13425WAT      O40516   1.179   4.141   4.555
13425WAT     H140517   1.240   4.220   4.558
13425WAT     H240518   1.172   4.107   4.462
13426WAT      O40519   9.713   2.155   8.893
13426WAT     H140520   9.659   2.236   8.871
13426WAT     H240521   9.731   2.103   8.810
13427WAT      O40522   2.346   0.912   1.825
13427WAT     H140523   2.272   0.947   1.767
13427WAT     H240524   2.322   0.925   1.921
13428WAT      O40525   6.316   4.853   8.483
13428WAT     H140526   6.407   4.811   8.482
13428WAT     H240527   6.271   4.836   8.395
13429WAT      O40528   9.105   7.053   3.133
13429WAT     H140529   9.039   7.019   3.199
13429WAT     H240530   9.082   7.018   3.042
13430WAT      O40531   4.870   8.148   2.655
13430WAT     H140532   4.781   8.102   2.653
13430WAT     H240533   4.943   8.080   2.654
13431WAT      O40534   4.725   2.614   0.720
13431WAT     H140535   4.656   2.669   0.673
13431WAT     H240536   4.734   2.525   0.674
13432WAT      O40537   5.653   0.684   6.571
13432WAT     H140538   5.741   0.641   6.592
13432WAT     H240539   5.629   0.748   6.644
13433WAT      O40540   1.472   2.977   8.196
13433WAT     H140541   1.464   3.077   8.192
13433WAT     H240542   1.381   2.937   8.205
13434WAT      O40543   1.070   4.404   8.576
13434WAT     H140544   1.027   4.410   8.666
13434WAT     H240545   1.085   4.496   8.539
13435WAT      O40546   2.607   2.909   8.524
13435WAT     H140547   2.692   2.869   8.558
13435WAT     H240548   2.622   2.946   8.432
13436WAT      O40549   6.149   6.103   4.148
13436WAT     H140550   6.242   6.069   4.164
13436WAT     H240551   6.141   6.136   4.054
13437WAT      O40552   4.711   5.886   5.650
13437WAT     H140553   4.774   5.886   5.728
13437WAT     H240554   4.669   5.976   5.641
13438WAT      O40555   4.246   3.518   0.431
13438WAT     H140556   4.309   3.541   0.357
13438WAT     H240557   4.297   3.510   0.517
13439WAT      O40558   2.286   9.129   2.448
13439WAT     H140559   2.341   9.200   2.492
13439WAT     H240560   2.234   9.169   2.372
13440WAT      O40561   2.779   5.164   3.866
13440WAT     H140562   2.874   5.186   3.888
13440WAT     H240563   2.719   5.200   3.937
13441WAT      O40564   3.478   3.066   5.429
13441WAT     H140565   3.408   3.022   5.372
13441WAT     H240566   3.437   3.146   5.474
13442WAT      O40567   5.447   2.592   6.809
13442WAT     H140568   5.458   2.662   6.879
13442WAT     H240569   5.381   2.524   6.840
13443WAT      O40570   6.335   8.387   5.300
13443WAT     H140571   6.276   8.418   5.225
13443WAT     H240572   6.305   8.428   5.386
13444WAT      O40573   0.132   7.821   6.694
13444WAT     H140574   0.210   7.881   6.676
13444WAT     H240575   0.151   7.765   6.774
13445WAT      O40576   1.837   9.743   9.137
13445WAT     H140577   1.879   9.660   9.098
13445WAT     H240578   1.779   9.786   9.068
13446WAT      O40579   4.131   5.706   6.584
13446WAT     H140580   4.104   5.611   6.566
13446WAT     H240581   4.071   5.745   6.654
13447WAT      O40582   0.257   6.961   5.803
13447WAT     H140583   0.306   7.040   5.769
13447WAT     H240584   0.273   6.952   5.902
13448WAT      O40585   9.490   1.028   5.252
13448WAT     H140586   9.436   1.110   5.268
13448WAT     H240587   9.481   0.999   5.157
13449WAT      O40588   4.765   9.753   2.737
13449WAT     H140589   4.785   9.767   2.640
13449WAT     H240590   4.832   9.689   2.775
13450WAT      O40591   1.023   4.047   2.133
13450WAT     H140592   1.078   3.963   2.140
13450WAT     H240593   0.948   4.033   2.068
13451WAT      O40594   3.902   0.147   4.269
13451WAT     H140595   3.832   0.168   4.336
13451WAT     H240596   3.926   0.230   4.218
13452WAT      O40597   5.996   4.417   7.656
13452WAT     H140598   5.913   4.361   7.651
13452WAT     H240599   5.976   4.510   7.627
13453WAT      O40600   6.276   3.838   7.779
13453WAT     H140601   6.202   3.894   7.741
13453WAT     H240602   6.364   3.868   7.742
13454WAT      O40603   9.325   8.345   0.455
13454WAT     H140604   9.335   8.384   0.546
13454WAT     H240605   9.307   8.418   0.389
13455WAT      O40606   9.608   6.067   6.310
13455WAT     H140607   9.701   6.032   6.298
13455WAT     H240608   9.543   6.000   6.273
13456WAT      O40609   7.372   9.011   3.792
13456WAT     H140610   7.419   8.926   3.768
13456WAT     H240611   7.399   9.083   3.728
13457WAT      O40612   9.255   4.397   7.692
13457WAT     H140613   9.272   4.349   7.605
13457WAT     H240614   9.234   4.331   7.763
13458WAT      O40615   4.066   9.142   0.266
13458WAT     H140616   4.074   9.235   0.303
13458WAT     H240617   4.016   9.146   0.179
13459WAT      O40618   1.899   3.643   5.830
13459WAT     H140619   1.843   3.560   5.829
13459WAT     H240620   1.992   3.620   5.858
13460WAT      O40621   1.312   7.406   9.786
13460WAT     H140622   1.227   7.412   9.838
13460WAT     H240623   1.293   7.375   9.693
13461WAT      O40624   7.387   2.494   0.392
13461WAT     H140625   7.363   2.575   0.337
13461WAT     H240626   7.437   2.523   0.474
13462WAT      O40627   5.781   1.164   6.254
13462WAT     H140628   5.819   1.147   6.163
13462WAT     H240629   5.743   1.256   6.257
13463WAT      O40630   4.715   6.073   6.814
13463WAT     H140631   4.650   6.007   6.777
13463WAT     H240632   4.779   6.026   6.874
13464WAT      O40633   8.431   3.832   2.251
13464WAT     H140634   8.333   3.818   2.252
13464WAT     H240635   8.478   3.744   2.256
13465WAT      O40636   8.605   1.949   7.961
13465WAT     H140637   8.558   1.913   8.041
13465WAT     H240638   8.701   1.921   7.963
13466WAT      O40639   0.155   0.961   9.221
13466WAT     H140640   0.145   0.993   9.127
13466WAT     H240641   0.215   0.881   9.223
13467WAT      O40642   2.491   4.469   4.819
13467WAT     H140643   2.464   4.438   4.728
13467WAT     H240644   2.574   4.422   4.847
13468WAT      O40645   8.720   9.212   6.695
13468WAT     H140646   8.682   9.291   6.744
13468WAT     H240647   8.795   9.174   6.749
13469WAT      O40648   3.007   0.347   8.901
13469WAT     H140649   3.074   0.413   8.931
13469WAT     H240650   3.053   0.268   8.861
13470WAT      O40651   3.847   3.106   7.075
13470WAT     H140652   3.798   3.026   7.109
13470WAT     H240653   3.835   3.182   7.139
13471WAT      O40654   4.914   9.139   0.132
13471WAT     H140655   4.882   9.157   0.040
13471WAT     H240656   5.013   9.125   0.131
13472WAT      O40657   2.216   5.459   5.383
13472WAT     H140658   2.280   5.480   5.457
13472WAT     H240659   2.259   5.481   5.295
13473WAT      O40660   5.088   1.843   8.019
13473WAT     H140661   5.164   1.908   8.015
13473WAT     H240662   5.030   1.864   8.097
13474WAT      O40663   0.714   6.670   0.068
13474WAT     H140664   0.725   6.605  -0.006
13474WAT     H240665   0.755   6.634   0.152
13475WAT      O40666   9.569   6.269   7.217
13475WAT     H140667   9.658   6.231   7.191
13475WAT     H240668   9.542   6.339   7.151
13476WAT      O40669   2.094   8.985   6.114
13476WAT     H140670   2.079   9.001   6.212
13476WAT     H240671   2.041   9.052   6.062
13477WAT      O40672   1.651   7.414   2.739
13477WAT     H140673   1.750   7.410   2.726
13477WAT     H240674   1.607   7.341   2.685
13478WAT      O40675   5.653   4.644   1.073
13478WAT     H140676   5.626   4.551   1.047
13478WAT     H240677   5.631   4.658   1.170
13479WAT      O40678   1.877   3.118   5.360
13479WAT     H140679   1.783   3.142   5.336
13479WAT     H240680   1.914   3.185   5.424
13480WAT      O40681   2.140   3.923   5.832
13480WAT     H140682   2.209   3.991   5.806
13480WAT     H240683   2.049   3.964   5.826
13481WAT      O40684   5.610   3.103   0.376
13481WAT     H140685   5.644   3.028   0.319
13481WAT     H240686   5.524   3.137   0.338
13482WAT      O40687   2.480   6.456   5.890
13482WAT     H140688   2.484   6.508   5.804
13482WAT     H240689   2.516   6.512   5.964
13483WAT      O40690   3.673   6.798   4.139
13483WAT     H140691   3.758   6.775   4.187
13483WAT     H240692   3.678   6.892   4.105
13484WAT      O40693   7.746   9.772   7.552
13484WAT     H140694   7.746   9.861   7.598
13484WAT     H240695   7.716   9.701   7.615
13485WAT      O40696   2.072   3.305   5.878
13485WAT     H140697   2.100   3.337   5.787
13485WAT     H240698   2.150   3.258   5.921
13486WAT      O40699   6.896   3.605   1.574
13486WAT     H140700   6.988   3.570   1.556
13486WAT     H240701   6.832   3.564   1.509
13487WAT      O40702   8.937   7.014   5.216
13487WAT     H140703   8.881   7.092   5.189
13487WAT     H240704   9.029   7.025   5.179
13488WAT      O40705   5.453   8.125   2.143
13488WAT     H140706   5.457   8.106   2.044
13488WAT     H240707   5.540   8.097   2.185
13489WAT      O40708   8.901   8.884   7.639
13489WAT     H140709   8.998   8.886   7.661
13489WAT     H240710   8.889   8.877   7.540
13490WAT      O40711   2.964   5.067   8.526
13490WAT     H140712   2.905   5.145   8.550
13490WAT     H240713   3.057   5.099   8.512
13491WAT      O40714   9.217   0.542   8.905
13491WAT     H140715   9.149   0.552   8.833
13491WAT     H240716   9.173   0.550   8.994
13492WAT      O40717   9.367   5.981   1.731
13492WAT     H140718   9.329   5.910   1.672
13492WAT     H240719   9.467   5.970   1.736
13493WAT      O40720   2.609   9.622   9.816
13493WAT     H140721   2.607   9.530   9.856
13493WAT     H240722   2.607   9.615   9.716
13494WAT      O40723   1.825   3.883   2.318
13494WAT     H140724   1.906   3.828   2.300
13494WAT     H240725   1.804   3.880   2.416
13495WAT      O40726   6.626   3.058   7.221
13495WAT     H140727   6.583   3.017   7.140
13495WAT     H240728   6.699   2.998   7.254
13496WAT      O40729   9.842   5.289   4.219
13496WAT     H140730   9.871   5.224   4.289
13496WAT     H240731   9.867   5.255   4.129
13497WAT      O40732   9.619   0.066   6.433
13497WAT     H140733   9.628  -0.032   6.416
13497WAT     H240734   9.614   0.083   6.531
13498WAT      O40735   2.555   8.369   0.681
13498WAT     H140736   2.652   8.353   0.701
13498WAT     H240737   2.501   8.290   0.710
13499WAT      O40738   3.062   0.405   7.486
13499WAT     H140739   3.155   0.425   7.516
13499WAT     H240740   3.060   0.314   7.443
13500WAT      O40741   9.363   9.311   5.643
13500WAT     H140742   9.448   9.343   5.685
13500WAT     H240743   9.385   9.256   5.562
13501WAT      O40744   2.462   3.427   8.246
13501WAT     H140745   2.445   3.524   8.228
13501WAT     H240746   2.403   3.396   8.321
13502WAT      O40747   4.810   0.917   2.242
13502WAT     H140748   4.769   1.007   2.225
13502WAT     H240749   4.738   0.850   2.259
13503WAT      O40750   3.457   8.839   4.945
13503WAT     H140751   3.543   8.841   4.995
13503WAT     H240752   3.415   8.930   4.946
13504WAT      O40753   6.281   1.206   3.618
13504WAT     H140754   6.235   1.186   3.705
13504WAT     H240755   6.212   1.222   3.548
13505WAT      O40756   6.267   4.483   4.345
13505WAT     H140757   6.234   4.441   4.430
13505WAT     H240758   6.324   4.417   4.295
13506WAT      O40759   4.920   2.986   2.445
13506WAT     H140760   5.019   2.973   2.438
13506WAT     H240761   4.898   3.028   2.534
13507WAT      O40762   4.184   9.130   7.666
13507WAT     H140763   4.180   9.226   7.639
13507WAT     H240764   4.204   9.074   7.586
13508WAT      O40765   2.536   1.401   6.100
13508WAT     H140766   2.527   1.302   6.111
13508WAT     H240767   2.632   1.425   6.093
13509WAT      O40768   5.656   4.706   5.701
13509WAT     H140769   5.618   4.628   5.751
13509WAT     H240770   5.611   4.714   5.612
13510WAT      O40771   6.146   9.210   1.582
13510WAT     H140772   6.081   9.254   1.520
13510WAT     H240773   6.198   9.281   1.631
13511WAT      O40774   7.712   7.182   2.161
13511WAT     H140775   7.689   7.232   2.245
13511WAT     H240776   7.641   7.198   2.093
13512WAT      O40777   8.531   3.028   7.218
13512WAT     H140778   8.461   3.075   7.272
13512WAT     H240779   8.572   2.955   7.273
13513WAT      O40780   3.823   3.797   2.287
13513WAT     H140781   3.753   3.854   2.330
13513WAT     H240782   3.787   3.759   2.202
13514WAT      O40783   0.869   1.911   3.196
13514WAT     H140784   0.771   1.933   3.192
13514WAT     H240785   0.921   1.984   3.152
13515WAT      O40786   5.413   3.695   3.878
13515WAT     H140787   5.482   3.643   3.929
13515WAT     H240788   5.425   3.679   3.780
13516WAT      O40789   8.282   1.374   5.818
13516WAT     H140790   8.246   1.430   5.893
13516WAT     H240791   8.371   1.336   5.844
13517WAT      O40792   7.055   2.914   0.374
13517WAT     H140793   7.073   2.820   0.406
13517WAT     H240794   6.976   2.913   0.312
13518WAT      O40795   8.959   7.625   9.350
13518WAT     H140796   9.019   7.661   9.278
13518WAT     H240797   8.867   7.613   9.313
13519WAT      O40798   2.317   6.837   2.339
13519WAT     H140799   2.333   6.740   2.324
13519WAT     H240800   2.334   6.859   2.436
13520WAT      O40801   4.113   8.914   8.221
13520WAT     H140802   4.098   9.010   8.245
13520WAT     H240803   4.200   8.883   8.261
13521WAT      O40804   5.731   0.408   3.099
13521WAT     H140805   5.675   0.357   3.165
13521WAT     H240806   5.812   0.354   3.076
13522WAT      O40807   3.948   8.353   2.415
13522WAT     H140808   3.860   8.363   2.462
13522WAT     H240809   4.013   8.306   2.476
13523WAT      O40810   7.111   5.271   8.179
13523WAT     H140811   7.029   5.326   8.193
13523WAT     H240812   7.142   5.279   8.085
13524WAT      O40813   0.404   5.714   6.034
13524WAT     H140814   0.378   5.684   5.942
13524WAT     H240815   0.381   5.811   6.044
13525WAT      O40816   2.236   8.435   4.637
13525WAT     H140817   2.321   8.382   4.646
13525WAT     H240818   2.205   8.464   4.727
13526WAT      O40819   0.774   3.687   9.043
13526WAT     H140820   0.866   3.648   9.042
13526WAT     H240821   0.711   3.623   9.000
13527WAT      O40822   8.730   8.195   3.510
13527WAT     H140823   8.789   8.212   3.431
13527WAT     H240824   8.651   8.140   3.481
13528WAT      O40825   6.287   0.493   1.161
13528WAT     H140826   6.309   0.410   1.109
13528WAT     H240827   6.199   0.481   1.207
13529WAT      O40828   0.870   1.150   3.069
13529WAT     H140829   0.876   1.245   3.099
13529WAT     H240830   0.814   1.098   3.132
13530WAT      O40831   5.630   5.960   4.255
13530WAT     H140832   5.552   5.919   4.207
13530WAT     H240833   5.597   6.032   4.316
13531WAT      O40834   2.557   1.375   8.765
13531WAT     H140835   2.574   1.287   8.811
13531WAT     H240836   2.616   1.445   8.805
13532WAT      O40837   4.255   1.238   8.119
13532WAT     H140838   4.314   1.315   8.142
13532WAT     H240839   4.268   1.213   8.023
13533WAT      O40840   2.208   5.749   5.475
13533WAT     H140841   2.223   5.788   5.384
13533WAT     H240842   2.184   5.652   5.466
13534WAT      O40843   2.837   3.781   0.557
13534WAT     H140844   2.792   3.852   0.610
13534WAT     H240845   2.780   3.699   0.554
13535WAT      O40846   4.656   0.749   3.571
13535WAT     H140847   4.637   0.690   3.493
13535WAT     H240848   4.719   0.703   3.634
13536WAT      O40849   3.625   5.695   1.823
13536WAT     H140850   3.609   5.773   1.762
13536WAT     H240851   3.548   5.633   1.820
13537WAT      O40852   2.948   4.720   3.147
13537WAT     H140853   3.029   4.670   3.180
13537WAT     H240854   2.888   4.656   3.098
13538WAT      O40855   5.784   4.168   9.529
13538WAT     H140856   5.748   4.237   9.465
13538WAT     H240857   5.791   4.080   9.483
13539WAT      O40858   4.245   6.822   4.948
13539WAT     H140859   4.299   6.889   4.898
13539WAT     H240860   4.152   6.857   4.961
13540WAT      O40861   0.182   0.895   9.614
13540WAT     H140862   0.113   0.967   9.604
13540WAT     H240863   0.266   0.923   9.566
13541WAT      O40864   2.048   1.754   6.526
13541WAT     H140865   2.040   1.849   6.557
13541WAT     H240866   1.977   1.736   6.458
13542WAT      O40867   2.220   9.467   3.259
13542WAT     H140868   2.187   9.479   3.352
13542WAT     H240869   2.148   9.490   3.194
13543WAT      O40870   8.249   9.530   5.242
13543WAT     H140871   8.341   9.521   5.204
13543WAT     H240872   8.204   9.609   5.201
13544WAT      O40873   3.294   1.130   0.877
13544WAT     H140874   3.282   1.121   0.778
13544WAT     H240875   3.359   1.061   0.909
13545WAT      O40876   4.527   1.817   6.183
13545WAT     H140877   4.570   1.892   6.133
13545WAT     H240878   4.589   1.786   6.255
13546WAT      O40879   6.486   7.397   0.171
13546WAT     H140880   6.445   7.488   0.180
13546WAT     H240881   6.418   7.328   0.196
13547WAT      O40882   0.480   2.355   4.791
13547WAT     H140883   0.477   2.302   4.876
13547WAT     H240884   0.414   2.431   4.797
13548WAT      O40885   3.703   0.244   6.012
13548WAT     H140886   3.625   0.240   6.074
13548WAT     H240887   3.711   0.336   5.973
13549WAT      O40888   0.731   3.937   2.884
13549WAT     H140889   0.774   3.886   2.810
13549WAT     H240890   0.783   4.021   2.902
13550WAT      O40891   9.887   2.058   2.493
13550WAT     H140892   9.823   2.134   2.506
13550WAT     H240893   9.972   2.092   2.453
13551WAT      O40894   7.103   1.561   1.779
13551WAT     H140895   7.004   1.577   1.782
13551WAT     H240896   7.131   1.541   1.685
13552WAT      O40897   1.357   4.127   5.274
13552WAT     H140898   1.284   4.192   5.256
13552WAT     H240899   1.358   4.057   5.203
13553WAT      O40900   1.218   3.092   6.660
13553WAT     H140901   1.302   3.100   6.714
13553WAT     H240902   1.224   3.150   6.579
13554WAT      O40903   5.475   4.525   5.103
13554WAT     H140904   5.425   4.532   5.017
13554WAT     H240905   5.542   4.598   5.109
13555WAT      O40906   6.093   3.532   5.107
13555WAT     H140907   6.176   3.586   5.093
13555WAT     H240908   6.047   3.562   5.191
13556WAT      O40909   3.342   5.742   5.773
13556WAT     H140910   3.332   5.839   5.797
13556WAT     H240911   3.375   5.692   5.854
13557WAT      O40912   4.905   2.781   0.850
13557WAT     H140913   4.984   2.732   0.887
13557WAT     H240914   4.844   2.716   0.805
13558WAT      O40915   1.475   7.084   7.212
13558WAT     H140916   1.433   6.998   7.238
13558WAT     H240917   1.567   7.067   7.176
13559WAT      O40918   6.395   9.012   9.784
13559WAT     H140919   6.320   8.965   9.832
13559WAT     H240920   6.452   9.060   9.850
13560WAT      O40921   5.624   7.166   6.207
13560WAT     H140922   5.615   7.138   6.112
13560WAT     H240923   5.719   7.190   6.226
13561WAT      O40924   4.400   6.765   8.743
13561WAT     H140925   4.315   6.796   8.701
13561WAT     H240926   4.380   6.713   8.825
13562WAT      O40927   0.158   4.496   9.813
13562WAT     H140928   0.157   4.578   9.756
13562WAT     H240929   0.081   4.499   9.877
13563WAT      O40930   2.977   6.943   2.232
13563WAT     H140931   2.898   6.884   2.214
13563WAT     H240932   2.947   7.028   2.275
13564WAT      O40933   9.660   4.940   0.061
13564WAT     H140934   9.646   5.029   0.017
13564WAT     H240935   9.733   4.948   0.129
13565WAT      O40936   4.165   3.342   6.672
13565WAT     H140937   4.177   3.410   6.600
13565WAT     H240938   4.139   3.255   6.632
13566WAT      O40939   8.374   7.813   9.243
13566WAT     H140940   8.428   7.894   9.264
13566WAT     H240941   8.378   7.794   9.144
13567WAT      O40942   6.763   6.165   6.988
13567WAT     H140943   6.673   6.129   7.016
13567WAT     H240944   6.763   6.181   6.889
13568WAT      O40945   8.511   3.453   7.664
13568WAT     H140946   8.456   3.481   7.585
13568WAT     H240947   8.451   3.432   7.741
13569WAT      O40948   1.148   7.099   3.601
13569WAT     H140949   1.232   7.063   3.642
13569WAT     H240950   1.111   7.032   3.537
13570WAT      O40951   7.313   0.950   1.065
13570WAT     H140952   7.391   1.003   1.032
13570WAT     H240953   7.247   0.938   0.990
13571WAT      O40954   4.404   1.334   1.323
13571WAT     H140955   4.454   1.261   1.370
13571WAT     H240956   4.307   1.311   1.319
13572WAT      O40957   7.936   9.772   1.068
13572WAT     H140958   7.928   9.678   1.100
13572WAT     H240959   7.905   9.834   1.140
13573WAT      O40960   0.899   8.191   5.568
13573WAT     H140961   0.905   8.179   5.469
13573WAT     H240962   0.893   8.288   5.590
13574WAT      O40963   9.820   9.160   9.848
13574WAT     H140964   9.881   9.082   9.861
13574WAT     H240965   9.726   9.128   9.835
13575WAT      O40966   8.128   5.122   1.249
13575WAT     H140967   8.216   5.118   1.297
13575WAT     H240968   8.107   5.032   1.211
13576WAT      O40969   0.832   4.335   4.086
13576WAT     H140970   0.847   4.313   3.990
13576WAT     H240971   0.915   4.372   4.126
13577WAT      O40972   1.235   7.151   2.595
13577WAT     H140973   1.188   7.239   2.601
13577WAT     H240974   1.182   7.082   2.643
13578WAT      O40975   4.208   3.784   8.287
13578WAT     H140976   4.277   3.829   8.231
13578WAT     H240977   4.179   3.699   8.243
13579WAT      O40978   5.855   9.717   9.474
13579WAT     H140979   5.910   9.734   9.392
13579WAT     H240980   5.775   9.662   9.450
13580WAT      O40981   2.936   4.936   1.844
13580WAT     H140982   3.003   4.934   1.919
13580WAT     H240983   2.951   4.858   1.784
13581WAT      O40984   5.051   8.128   1.901
13581WAT     H140985   5.125   8.193   1.887
13581WAT     H240986   5.080   8.058   1.966
13582WAT      O40987   3.114   6.615   8.646
13582WAT     H140988   3.035   6.593   8.703
13582WAT     H240989   3.089   6.610   8.550
13583WAT      O40990   5.557   9.601   5.876
13583WAT     H140991   5.622   9.527   5.862
13583WAT     H240992   5.554   9.626   5.973
13584WAT      O40993   8.523   7.045   8.323
13584WAT     H140994   8.585   7.069   8.247
13584WAT     H240995   8.476   6.960   8.302
13585WAT      O40996   7.628   4.355   3.343
13585WAT     H140997   7.529   4.366   3.328
13585WAT     H240998   7.678   4.407   3.273
13586WAT      O40999   3.507   0.745   1.995
13586WAT     H141000   3.549   0.804   1.926
13586WAT     H241001   3.540   0.772   2.086
13587WAT      O41002   3.644   2.285   9.687
13587WAT     H141003   3.722   2.269   9.747
13587WAT     H241004   3.676   2.298   9.593
13588WAT      O41005   5.417   5.915   3.330
13588WAT     H141006   5.513   5.934   3.311
13588WAT     H241007   5.390   5.961   3.415
13589WAT      O41008   0.450   4.992   6.662
13589WAT     H141009   0.401   5.074   6.632
13589WAT     H241010   0.447   4.985   6.762
13590WAT      O41011   6.394   2.252   1.554
13590WAT     H141012   6.397   2.348   1.524
13590WAT     H241013   6.486   2.213   1.549
13591WAT      O41014   6.087   1.861   6.262
13591WAT     H141015   6.149   1.782   6.261
13591WAT     H241016   6.139   1.944   6.243
13592WAT      O41017   2.519   7.777   6.020
13592WAT     H141018   2.513   7.849   6.090
13592WAT     H241019   2.429   7.736   6.008
13593WAT      O41020   7.928   0.752   4.405
13593WAT     H141021   7.940   0.666   4.455
13593WAT     H241022   7.830   0.774   4.401
13594WAT      O41023   3.109   3.203   3.248
13594WAT     H141024   3.100   3.279   3.311
13594WAT     H241025   3.104   3.116   3.298
13595WAT      O41026   0.889   0.462   5.615
13595WAT     H141027   0.816   0.404   5.579
13595WAT     H241028   0.951   0.489   5.541
13596WAT      O41029   2.877   1.149   1.426
13596WAT     H141030   2.895   1.225   1.488
13596WAT     H241031   2.865   1.065   1.479
13597WAT      O41032   0.683   0.300   0.617
13597WAT     H141033   0.679   0.218   0.560
13597WAT     H241034   0.612   0.364   0.590
13598WAT      O41035   7.433   4.509   5.014
13598WAT     H141036   7.397   4.583   4.956
13598WAT     H241037   7.521   4.478   4.978
13599WAT      O41038   0.392   7.642   2.190
13599WAT     H141039   0.452   7.721   2.184
13599WAT     H241040   0.383   7.600   2.100
13600WAT      O41041   7.498   4.747   8.410
13600WAT     H141042   7.574   4.689   8.437
13600WAT     H241043   7.526   4.807   8.335
13601WAT      O41044   5.586   4.478   5.815
13601WAT     H141045   5.650   4.408   5.782
13601WAT     H241046   5.569   4.464   5.912
13602WAT      O41047   4.870   2.589   1.823
13602WAT     H141048   4.883   2.651   1.746
13602WAT     H241049   4.801   2.627   1.885
13603WAT      O41050   8.608   7.757   0.249
13603WAT     H141051   8.699   7.761   0.289
13603WAT     H241052   8.582   7.847   0.215
13604WAT      O41053   4.805   1.573   5.153
13604WAT     H141054   4.827   1.653   5.097
13604WAT     H241055   4.736   1.517   5.106
13605WAT      O41056   7.070   1.518   4.482
13605WAT     H141057   7.117   1.480   4.562
13605WAT     H241058   6.981   1.473   4.472
13606WAT      O41059   5.043   6.937   9.767
13606WAT     H141060   5.132   6.912   9.806
13606WAT     H241061   5.046   7.032   9.736
13607WAT      O41062   9.291   2.665   3.419
13607WAT     H141063   9.287   2.674   3.319
13607WAT     H241064   9.341   2.743   3.457
13608WAT      O41065   0.101   8.078   3.931
13608WAT     H141066   0.036   8.088   3.856
13608WAT     H241067   0.106   7.982   3.958
13609WAT      O41068   8.102   1.913   5.757
13609WAT     H141069   8.077   1.872   5.844
13609WAT     H241070   8.115   2.011   5.769
13610WAT      O41071   6.770   6.867   7.008
13610WAT     H141072   6.796   6.891   6.915
13610WAT     H241073   6.816   6.929   7.072
13611WAT      O41074   4.116   7.810   0.236
13611WAT     H141075   4.197   7.835   0.183
13611WAT     H241076   4.039   7.798   0.173
13612WAT      O41077   7.866   1.977   3.100
13612WAT     H141078   7.915   1.936   3.177
13612WAT     H241079   7.767   1.972   3.117
13613WAT      O41080   2.039   4.284   6.735
13613WAT     H141081   2.104   4.214   6.764
13613WAT     H241082   1.947   4.244   6.729
13614WAT      O41083   6.938   7.214   0.546
13614WAT     H141084   6.851   7.172   0.521
13614WAT     H241085   6.957   7.292   0.486
13615WAT      O41086   5.116   2.715   0.371
13615WAT     H141087   5.139   2.810   0.351
13615WAT     H241088   5.171   2.683   0.448
13616WAT      O41089   2.890   1.894   0.453
13616WAT     H141090   2.924   1.854   0.539
13616WAT     H241091   2.891   1.824   0.381
13617WAT      O41092   0.984   5.874   2.604
13617WAT     H141093   0.893   5.835   2.589
13617WAT     H241094   1.032   5.882   2.517
13618WAT      O41095   6.465   5.917   0.011
13618WAT     H141096   6.465   5.966   0.098
13618WAT     H241097   6.379   5.867   0.001
13619WAT      O41098   1.592   9.065   9.588
13619WAT     H141099   1.658   9.015   9.644
13619WAT     H241100   1.501   9.026   9.600
13620WAT      O41101   5.170   2.767   2.870
13620WAT     H141102   5.081   2.727   2.850
13620WAT     H241103   5.200   2.739   2.961
13621WAT      O41104   1.186   3.909   7.367
13621WAT     H141105   1.095   3.934   7.332
13621WAT     H241106   1.206   3.814   7.342
13622WAT      O41107  -0.005   2.064   7.636
13622WAT     H141108   0.073   2.126   7.638
13622WAT     H241109   0.012   1.987   7.698
13623WAT      O41110   6.540   3.899   7.672
13623WAT     H141111   6.553   3.994   7.643
13623WAT     H241112   6.563   3.837   7.597
13624WAT      O41113   7.874   6.424   9.243
13624WAT     H141114   7.910   6.514   9.266
13624WAT     H241115   7.949   6.360   9.231
13625WAT      O41116   6.945   2.739   1.353
13625WAT     H141117   6.953   2.736   1.254
13625WAT     H241118   6.988   2.823   1.387
13626WAT      O41119   7.927   7.042   0.400
13626WAT     H141120   7.869   7.059   0.320
13626WAT     H241121   7.913   6.949   0.432
13627WAT      O41122   2.754   1.149   1.195
13627WAT     H141123   2.808   1.157   1.279
13627WAT     H241124   2.716   1.057   1.188
13628WAT      O41125   7.477   1.283   9.412
13628WAT     H141126   7.412   1.307   9.485
13628WAT     H241127   7.504   1.188   9.422
13629WAT      O41128   6.707   3.609   9.601
13629WAT     H141129   6.777   3.602   9.672
13629WAT     H241130   6.749   3.590   9.512
13630WAT      O41131   1.823   5.102   8.641
13630WAT     H141132   1.835   5.146   8.552
13630WAT     H241133   1.789   5.009   8.628
13631WAT      O41134   8.396   3.718   7.300
13631WAT     H141135   8.403   3.801   7.356
13631WAT     H241136   8.458   3.726   7.222
13632WAT      O41137   8.858   2.512   7.015
13632WAT     H141138   8.811   2.564   7.087
13632WAT     H241139   8.953   2.543   7.009
13633WAT      O41140   8.326   3.073   4.833
13633WAT     H141141   8.399   3.006   4.842
13633WAT     H241142   8.313   3.120   4.920
13634WAT      O41143   7.343   1.801   4.397
13634WAT     H141144   7.340   1.734   4.470
13634WAT     H241145   7.298   1.886   4.427
13635WAT      O41146   6.807   2.890   9.659
13635WAT     H141147   6.798   2.866   9.562
13635WAT     H241148   6.751   2.828   9.714
13636WAT      O41149   2.515   9.031   6.116
13636WAT     H141150   2.584   9.053   6.047
13636WAT     H241151   2.503   9.110   6.176
13637WAT      O41152   6.402   5.888   4.760
13637WAT     H141153   6.400   5.976   4.714
13637WAT     H241154   6.353   5.894   4.847
13638WAT      O41155   4.083   3.507   5.939
13638WAT     H141156   4.109   3.413   5.921
13638WAT     H241157   4.066   3.554   5.852
13639WAT      O41158   8.065   0.766   0.843
13639WAT     H141159   8.030   0.702   0.776
13639WAT     H241160   8.001   0.774   0.919
13640WAT      O41161   6.970   5.887   6.087
13640WAT     H141162   7.000   5.822   6.156
13640WAT     H241163   7.045   5.948   6.063
13641WAT      O41164   4.431   4.217   1.005
13641WAT     H141165   4.334   4.237   0.991
13641WAT     H241166   4.461   4.255   1.093
13642WAT      O41167   0.536   9.627   9.095
13642WAT     H141168   0.569   9.609   9.188
13642WAT     H241169   0.497   9.719   9.092
13643WAT      O41170   8.804   4.430   0.889
13643WAT     H141171   8.755   4.516   0.876
13643WAT     H241172   8.816   4.386   0.800
13644WAT      O41173   0.625   7.232   5.324
13644WAT     H141174   0.566   7.174   5.381
13644WAT     H241175   0.608   7.213   5.228
13645WAT      O41176   4.843   4.817   7.704
13645WAT     H141177   4.799   4.749   7.646
13645WAT     H241178   4.816   4.801   7.799
13646WAT      O41179   1.772   0.600   7.080
13646WAT     H141180   1.732   0.659   7.010
13646WAT     H241181   1.712   0.597   7.160
13647WAT      O41182   1.275   9.748   0.028
13647WAT     H141183   1.363   9.753  -0.020
13647WAT     H241184   1.236   9.657   0.016
13648WAT      O41185   7.026   8.091   0.924
13648WAT     H141186   6.995   8.146   0.846
13648WAT     H241187   6.947   8.054   0.972
13649WAT      O41188   3.712   1.362   7.580
13649WAT     H141189   3.688   1.266   7.593
13649WAT     H241190   3.803   1.368   7.537
13650WAT      O41191   6.796   6.692   3.139
13650WAT     H141192   6.725   6.649   3.195
13650WAT     H241193   6.885   6.658   3.168
13651WAT      O41194   7.428   9.577   5.043
13651WAT     H141195   7.429   9.481   5.013
13651WAT     H241196   7.481   9.586   5.128
13652WAT      O41197   7.045   8.572   5.662
13652WAT     H141198   7.143   8.554   5.650
13652WAT     H241199   7.009   8.620   5.583
13653WAT      O41200   6.574   5.289   0.960
13653WAT     H141201   6.629   5.363   0.999
13653WAT     H241202   6.631   5.208   0.947
13654WAT      O41203   5.691   7.895   9.881
13654WAT     H141204   5.682   7.808   9.832
13654WAT     H241205   5.617   7.904   9.947
13655WAT      O41206   3.464   9.334   4.955
13655WAT     H141207   3.407   9.406   4.915
13655WAT     H241208   3.414   9.247   4.955
13656WAT      O41209   1.368   2.385   2.991
13656WAT     H141210   1.308   2.451   2.947
13656WAT     H241211   1.463   2.407   2.968
13657WAT      O41212   8.846   2.683   3.245
13657WAT     H141213   8.903   2.635   3.311
13657WAT     H241214   8.757   2.705   3.286
13658WAT      O41215   6.167   3.202   9.018
13658WAT     H141216   6.250   3.150   8.997
13658WAT     H241217   6.116   3.157   9.092
13659WAT      O41218   3.065   9.420   8.548
13659WAT     H141219   3.026   9.424   8.456
13659WAT     H241220   3.100   9.510   8.574
13660WAT      O41221   3.348   3.693   0.151
13660WAT     H141222   3.380   3.703   0.245
13660WAT     H241223   3.306   3.603   0.139
13661WAT      O41224   2.873   2.486   9.441
13661WAT     H141225   2.878   2.387   9.426
13661WAT     H241226   2.876   2.533   9.353
13662WAT      O41227   4.358   3.384   8.704
13662WAT     H141228   4.305   3.431   8.632
13662WAT     H241229   4.328   3.416   8.793
13663WAT      O41230   0.686   9.003   9.140
13663WAT     H141231   0.668   8.911   9.105
13663WAT     H241232   0.715   8.997   9.236
13664WAT      O41233   3.543   7.407   6.450
13664WAT     H141234   3.598   7.472   6.396
13664WAT     H241235   3.525   7.326   6.395
13665WAT      O41236   1.927   8.941   8.605
13665WAT     H141237   1.932   8.988   8.517
13665WAT     H241238   2.015   8.949   8.652
13666WAT      O41239   6.311   3.562   9.113
13666WAT     H141240   6.296   3.660   9.119
13666WAT     H241241   6.231   3.518   9.072
13667WAT      O41242   9.530   5.408   8.572
13667WAT     H141243   9.522   5.329   8.510
13667WAT     H241244   9.489   5.488   8.529
13668WAT      O41245   7.725   3.283   3.171
13668WAT     H141246   7.781   3.348   3.120
13668WAT     H241247   7.784   3.214   3.213
13669WAT      O41248   6.091   9.834   1.789
13669WAT     H141249   6.019   9.824   1.858
13669WAT     H241250   6.050   9.867   1.704
13670WAT      O41251   0.816   7.288   7.517
13670WAT     H141252   0.897   7.273   7.460
13670WAT     H241253   0.805   7.386   7.534
13671WAT      O41254   8.625   8.542   6.350
13671WAT     H141255   8.564   8.609   6.391
13671WAT     H241256   8.655   8.477   6.420
13672WAT      O41257   5.837   8.083   4.352
13672WAT     H141258   5.743   8.053   4.368
13672WAT     H241259   5.882   8.098   4.441
13673WAT      O41260   9.155   0.120   3.350
13673WAT     H141261   9.218   0.112   3.427
13673WAT     H241262   9.154   0.034   3.299
13674WAT      O41263   0.194   1.242   5.752
13674WAT     H141264   0.128   1.214   5.822
13674WAT     H241265   0.164   1.208   5.663
13675WAT      O41266   2.469   7.805   2.377
13675WAT     H141267   2.418   7.865   2.438
13675WAT     H241268   2.440   7.710   2.391
13676WAT      O41269   5.000   3.173   0.040
13676WAT     H141270   5.051   3.086   0.045
13676WAT     H241271   4.966   3.196   0.131
13677WAT      O41272   3.524   8.068   2.533
13677WAT     H141273   3.606   8.029   2.493
13677WAT     H241274   3.488   8.007   2.603
13678WAT      O41275   3.183   1.360   9.451
13678WAT     H141276   3.130   1.323   9.375
13678WAT     H241277   3.232   1.442   9.421
13679WAT      O41278   8.198   6.591   8.359
13679WAT     H141279   8.233   6.515   8.305
13679WAT     H241280   8.273   6.653   8.381
13680WAT      O41281   1.124   4.376   1.763
13680WAT     H141282   1.034   4.353   1.724
13680WAT     H241283   1.192   4.310   1.730
13681WAT      O41284   1.288   6.175   6.263
13681WAT     H141285   1.218   6.103   6.260
13681WAT     H241286   1.376   6.134   6.288
13682WAT      O41287   8.131   3.191   6.400
13682WAT     H141288   8.057   3.247   6.436
13682WAT     H241289   8.111   3.094   6.415
13683WAT      O41290   4.228   6.232   4.878
13683WAT     H141291   4.195   6.146   4.914
13683WAT     H241292   4.168   6.262   4.803
13684WAT      O41293   5.821   3.209   2.649
13684WAT     H141294   5.851   3.143   2.580
13684WAT     H241295   5.749   3.266   2.609
13685WAT      O41296   9.031   0.177   0.115
13685WAT     H141297   9.018   0.082   0.139
13685WAT     H241298   8.998   0.193   0.022
13686WAT      O41299   7.643   9.160   4.069
13686WAT     H141300   7.689   9.249   4.067
13686WAT     H241301   7.547   9.172   4.094
13687WAT      O41302   3.023   5.789   8.718
13687WAT     H141303   3.004   5.874   8.669
13687WAT     H241304   3.028   5.807   8.816
13688WAT      O41305   5.601   3.799   4.433
13688WAT     H141306   5.539   3.841   4.366
13688WAT     H241307   5.565   3.710   4.461
13689WAT      O41308   3.942   2.164   6.824
13689WAT     H141309   3.920   2.218   6.905
13689WAT     H241310   3.891   2.199   6.746
13690WAT      O41311   0.536   1.541   5.583
13690WAT     H141312   0.485   1.610   5.531
13690WAT     H241313   0.476   1.503   5.654
13691WAT      O41314   4.551   1.976   9.229
13691WAT     H141315   4.543   2.057   9.170
13691WAT     H241316   4.574   2.005   9.322
13692WAT      O41317   2.597   1.231   3.229
13692WAT     H141318   2.596   1.150   3.287
13692WAT     H241319   2.678   1.229   3.170
13693WAT      O41320   6.291   1.354   2.949
13693WAT     H141321   6.375   1.401   2.976
13693WAT     H241322   6.229   1.419   2.906
13694WAT      O41323   9.834   1.869   9.530
13694WAT     H141324   9.798   1.870   9.437
13694WAT     H241325   9.888   1.952   9.546
13695WAT      O41326   8.154   3.650   7.072
13695WAT     H141327   8.228   3.625   7.010
13695WAT     H241328   8.167   3.604   7.160
13696WAT      O41329   8.484   9.197   5.541
13696WAT     H141330   8.501   9.173   5.446
13696WAT     H241331   8.564   9.175   5.596
13697WAT      O41332   0.801   4.659   0.942
13697WAT     H141333   0.810   4.575   0.888
13697WAT     H241334   0.889   4.681   0.984
13698WAT      O41335   1.703   2.542   5.723
13698WAT     H141336   1.749   2.479   5.785
13698WAT     H241337   1.737   2.635   5.738
13699WAT      O41338   4.824   5.654   8.011
13699WAT     H141339   4.791   5.629   7.920
13699WAT     H241340   4.876   5.578   8.049
13700WAT      O41341   2.573   8.948   3.780
13700WAT     H141342   2.635   8.879   3.818
13700WAT     H241343   2.612   9.039   3.793
13701WAT      O41344   1.752   4.698   5.892
13701WAT     H141345   1.717   4.611   5.927
13701WAT     H241346   1.851   4.704   5.909
13702WAT      O41347   2.338   6.525   6.959
13702WAT     H141348   2.269   6.507   7.029
13702WAT     H241349   2.400   6.446   6.953
13703WAT      O41350   9.438   2.099   6.204
13703WAT     H141351   9.401   2.121   6.294
13703WAT     H241352   9.386   2.022   6.165
13704WAT      O41353   6.707   3.588   1.360
13704WAT     H141354   6.671   3.542   1.279
13704WAT     H241355   6.782   3.649   1.333
13705WAT      O41356   2.009   8.870   7.329
13705WAT     H141357   1.951   8.816   7.268
13705WAT     H241358   1.966   8.958   7.347
13706WAT      O41359   1.566   9.197   0.504
13706WAT     H141360   1.519   9.232   0.585
13706WAT     H241361   1.500   9.151   0.445
13707WAT      O41362   9.804   7.188   3.484
13707WAT     H141363   9.792   7.287   3.492
13707WAT     H241364   9.861   7.154   3.559
13708WAT      O41365   0.349   0.640   8.005
13708WAT     H141366   0.300   0.685   8.080
13708WAT     H241367   0.381   0.708   7.940
13709WAT      O41368   5.021   4.995   7.555
13709WAT     H141369   5.040   4.900   7.529
13709WAT     H241370   4.999   4.999   7.653
13710WAT      O41371   4.193   8.312   1.977
13710WAT     H141372   4.189   8.276   1.883
13710WAT     H241373   4.237   8.244   2.036
13711WAT      O41374   2.487   2.858   3.383
13711WAT     H141375   2.511   2.938   3.327
13711WAT     H241376   2.556   2.845   3.454
13712WAT      O41377   0.046   6.677   5.065
13712WAT     H141378  -0.003   6.759   5.093
13712WAT     H241379   0.072   6.685   4.969
13713WAT      O41380   5.832   2.819   2.170
13713WAT     H141381   5.832   2.905   2.221
13713WAT     H241382   5.821   2.742   2.234
13714WAT      O41383   6.056   0.507   0.306
13714WAT     H141384   5.979   0.538   0.362
13714WAT     H241385   6.075   0.576   0.235
13715WAT      O41386   7.613   9.079   6.108
13715WAT     H141387   7.611   9.044   6.202
13715WAT     H241388   7.519   9.085   6.073
13716WAT      O41389   3.313   2.674   8.348
13716WAT     H141390   3.362   2.761   8.340
13716WAT     H241391   3.367   2.602   8.303
13717WAT      O41392   1.154   7.557   7.640
13717WAT     H141393   1.158   7.486   7.709
13717WAT     H241394   1.204   7.638   7.672
13718WAT      O41395   8.279   1.226   0.778
13718WAT     H141396   8.329   1.255   0.697
13718WAT     H241397   8.233   1.139   0.759
13719WAT      O41398   0.260   4.486   8.364
13719WAT     H141399   0.253   4.583   8.344
13719WAT     H241400   0.340   4.468   8.421
13720WAT      O41401   4.735   9.345   2.214
13720WAT     H141402   4.729   9.296   2.127
13720WAT     H241403   4.814   9.311   2.266
13721WAT      O41404   0.883   0.328   9.437
13721WAT     H141405   0.913   0.233   9.438
13721WAT     H241406   0.962   0.388   9.422
13722WAT      O41407   5.273   0.110   8.845
13722WAT     H141408   5.307   0.057   8.767
13722WAT     H241409   5.343   0.112   8.917
13723WAT      O41410   5.335   8.902   1.460
13723WAT     H141411   5.389   8.826   1.495
13723WAT     H241412   5.336   8.902   1.360
13724WAT      O41413   5.437   2.060   0.489
13724WAT     H141414   5.421   1.984   0.552
13724WAT     H241415   5.525   2.102   0.508
13725WAT      O41416   7.542   0.222   3.784
13725WAT     H141417   7.524   0.316   3.812
13725WAT     H241418   7.460   0.166   3.799
13726WAT      O41419   1.302   6.420   9.675
13726WAT     H141420   1.358   6.344   9.705
13726WAT     H241421   1.272   6.473   9.755
13727WAT      O41422   5.989   3.085   8.389
13727WAT     H141423   6.056   3.052   8.455
13727WAT     H241424   5.986   3.185   8.392
13728WAT      O41425   1.835   9.353   8.337
13728WAT     H141426   1.774   9.425   8.303
13728WAT     H241427   1.919   9.352   8.283
13729WAT      O41428   8.988   2.046   0.589
13729WAT     H141429   8.976   2.037   0.687
13729WAT     H241430   9.016   1.958   0.550
13730WAT      O41431   7.607   7.118   4.569
13730WAT     H141432   7.617   7.218   4.569
13730WAT     H241433   7.566   7.088   4.484
13731WAT      O41434   8.044   0.536   8.972
13731WAT     H141435   8.039   0.457   8.911
13731WAT     H241436   7.953   0.559   9.005
13732WAT      O41437   0.946   9.439   9.244
13732WAT     H141438   0.963   9.537   9.258
13732WAT     H241439   0.901   9.424   9.156
13733WAT      O41440   6.487   6.197   1.834
13733WAT     H141441   6.390   6.176   1.843
13733WAT     H241442   6.527   6.208   1.925
13734WAT      O41443   2.933   9.521   6.960
13734WAT     H141444   2.957   9.537   6.865
13734WAT     H241445   2.899   9.607   7.001
13735WAT      O41446   3.735   0.289   1.091
13735WAT     H141447   3.731   0.203   1.143
13735WAT     H241448   3.733   0.268   0.993
13736WAT      O41449   0.782   9.119   4.452
13736WAT     H141450   0.844   9.122   4.373
13736WAT     H241451   0.827   9.161   4.531
13737WAT      O41452   7.769   3.685   6.826
13737WAT     H141453   7.840   3.728   6.770
13737WAT     H241454   7.684   3.738   6.818
13738WAT      O41455   0.250   7.525   6.233
13738WAT     H141456   0.212   7.445   6.186
13738WAT     H241457   0.196   7.542   6.316
13739WAT      O41458   7.340   3.670   4.126
13739WAT     H141459   7.312   3.594   4.185
13739WAT     H241460   7.267   3.689   4.060
13740WAT      O41461   4.497   1.340   6.761
13740WAT     H141462   4.502   1.398   6.842
13740WAT     H241463   4.582   1.287   6.752
13741WAT      O41464   4.093   5.221   3.620
13741WAT     H141465   4.003   5.196   3.585
13741WAT     H241466   4.157   5.145   3.608
13742WAT      O41467   8.714   8.737   2.887
13742WAT     H141468   8.617   8.742   2.863
13742WAT     H241469   8.726   8.678   2.966
13743WAT      O41470   8.450   0.075   7.781
13743WAT     H141471   8.401   0.044   7.863
13743WAT     H241472   8.527   0.014   7.764
13744WAT      O41473   8.059   6.044   4.266
13744WAT     H141474   8.025   6.038   4.172
13744WAT     H241475   7.985   6.074   4.326
13745WAT      O41476   3.866   6.392   7.485
13745WAT     H141477   3.948   6.446   7.504
13745WAT     H241478   3.803   6.399   7.562
13746WAT      O41479   6.864   0.798   0.159
13746WAT     H141480   6.862   0.748   0.246
13746WAT     H241481   6.954   0.786   0.116
13747WAT      O41482   1.879   8.387   1.613
13747WAT     H141483   1.821   8.460   1.577
13747WAT     H241484   1.891   8.399   1.712
13748WAT      O41485   5.175   4.428   9.288
13748WAT     H141486   5.270   4.426   9.256
13748WAT     H241487   5.126   4.350   9.249
13749WAT      O41488   5.880   0.546   4.586
13749WAT     H141489   5.860   0.484   4.662
13749WAT     H241490   5.973   0.582   4.595
13750WAT      O41491   7.322   2.465   5.840
13750WAT     H141492   7.293   2.376   5.876
13750WAT     H241493   7.421   2.465   5.827
13751WAT      O41494   9.630   3.806   4.744
13751WAT     H141495   9.634   3.708   4.727
13751WAT     H241496   9.694   3.854   4.684
13752WAT      O41497   1.742   8.209   4.291
13752WAT     H141498   1.798   8.184   4.370
13752WAT     H241499   1.786   8.176   4.207
13753WAT      O41500   9.571   5.593   8.918
13753WAT     H141501   9.570   5.654   8.838
13753WAT     H241502   9.617   5.640   8.994
13754WAT      O41503   0.559   2.702   6.754
13754WAT     H141504   0.598   2.697   6.845
13754WAT     H241505   0.563   2.611   6.711
13755WAT      O41506   1.364   4.254   3.731
13755WAT     H141507   1.291   4.311   3.769
13755WAT     H241508   1.415   4.306   3.662
13756WAT      O41509   0.170   1.837   3.181
13756WAT     H141510   0.237   1.843   3.254
13756WAT     H241511   0.206   1.782   3.106
13757WAT      O41512   3.283   8.077   9.354
13757WAT     H141513   3.285   8.162   9.301
13757WAT     H241514   3.189   8.045   9.362
13758WAT      O41515   4.213   1.499   6.581
13758WAT     H141516   4.128   1.471   6.626
13758WAT     H241517   4.263   1.562   6.640
13759WAT      O41518   0.127   0.712   8.729
13759WAT     H141519   0.165   0.784   8.671
13759WAT     H241520   0.048   0.748   8.778
13760WAT      O41521   7.480   3.735   8.651
13760WAT     H141522   7.492   3.647   8.698
13760WAT     H241523   7.395   3.778   8.681
13761WAT      O41524   7.106   9.489   0.827
13761WAT     H141525   7.081   9.536   0.742
13761WAT     H241526   7.182   9.426   0.809
13762WAT      O41527   0.880   4.288   1.685
13762WAT     H141528   0.913   4.195   1.673
13762WAT     H241529   0.807   4.307   1.619
13763WAT      O41530   6.764   0.199   4.523
13763WAT     H141531   6.683   0.196   4.463
13763WAT     H241532   6.785   0.295   4.544
13764WAT      O41533   0.913   5.511   2.029
13764WAT     H141534   0.969   5.481   2.106
13764WAT     H241535   0.952   5.594   1.990
13765WAT      O41536   0.265   0.932   8.603
13765WAT     H141537   0.182   0.944   8.548
13765WAT     H241538   0.343   0.972   8.555
13766WAT      O41539   2.199   9.487   0.334
13766WAT     H141540   2.145   9.456   0.256
13766WAT     H241541   2.296   9.485   0.310
13767WAT      O41542   0.871   5.810   2.043
13767WAT     H141543   0.886   5.811   1.944
13767WAT     H241544   0.826   5.894   2.071
13768WAT      O41545   8.695   1.623   8.689
13768WAT     H141546   8.642   1.541   8.669
13768WAT     H241547   8.641   1.686   8.745
13769WAT      O41548   8.560   0.613   6.446
13769WAT     H141549   8.564   0.709   6.474
13769WAT     H241550   8.616   0.558   6.507
13770WAT      O41551   6.379   7.161   2.523
13770WAT     H141552   6.428   7.091   2.470
13770WAT     H241553   6.346   7.231   2.460
13771WAT      O41554   8.187   4.750   5.395
13771WAT     H141555   8.094   4.720   5.373
13771WAT     H241556   8.184   4.843   5.433
13772WAT      O41557   2.584   7.924   2.162
13772WAT     H141558   2.546   7.875   2.241
13772WAT     H241559   2.511   7.943   2.097
13773WAT      O41560   9.039   0.323   8.287
13773WAT     H141561   9.124   0.358   8.248
13773WAT     H241562   8.997   0.393   8.345
13774WAT      O41563   2.197   6.504   2.154
13774WAT     H141564   2.185   6.459   2.065
13774WAT     H241565   2.131   6.467   2.219
13775WAT      O41566   4.986   9.169   2.260
13775WAT     H141567   5.082   9.167   2.287
13775WAT     H241568   4.972   9.108   2.183
13776WAT      O41569   5.563   3.732   7.811
13776WAT     H141570   5.493   3.714   7.880
13776WAT     H241571   5.545   3.821   7.768
13777WAT      O41572   1.114   5.862   9.855
13777WAT     H141573   1.136   5.862   9.952
13777WAT     H241574   1.028   5.814   9.840
13778WAT      O41575   9.389   8.296   3.111
13778WAT     H141576   9.354   8.349   3.034
13778WAT     H241577   9.447   8.222   3.078
13779WAT      O41578   6.485   1.860   5.110
13779WAT     H141579   6.583   1.863   5.091
13779WAT     H241580   6.436   1.906   5.037
13780WAT      O41581   5.304   6.578   7.760
13780WAT     H141582   5.270   6.656   7.708
13780WAT     H241583   5.372   6.609   7.826
13781WAT      O41584   0.365   3.722   1.072
13781WAT     H141585   0.458   3.708   1.105
13781WAT     H241586   0.358   3.690   0.977
13782WAT      O41587   2.430   8.469   1.642
13782WAT     H141588   2.414   8.549   1.584
13782WAT     H241589   2.355   8.460   1.708
13783WAT      O41590   3.441   1.920   9.454
13783WAT     H141591   3.439   1.993   9.523
13783WAT     H241592   3.373   1.850   9.477
13784WAT      O41593   7.215   0.353   4.731
13784WAT     H141594   7.281   0.305   4.788
13784WAT     H241595   7.144   0.289   4.701
13785WAT      O41596   4.035   5.917   0.521
13785WAT     H141597   4.057   6.015   0.516
13785WAT     H241598   4.038   5.878   0.429
13786WAT      O41599   2.133   9.800   7.769
13786WAT     H141600   2.167   9.712   7.735
13786WAT     H241601   2.209   9.864   7.779
13787WAT      O41602   8.960   7.770   3.280
13787WAT     H141603   8.862   7.764   3.294
13787WAT     H241604   9.007   7.777   3.368
13788WAT      O41605   3.522   8.482   8.729
13788WAT     H141606   3.504   8.489   8.827
13788WAT     H241607   3.449   8.529   8.678
13789WAT      O41608   4.657   8.487   7.608
13789WAT     H141609   4.688   8.480   7.703
13789WAT     H241610   4.657   8.396   7.566
13790WAT      O41611   4.484   5.671   3.943
13790WAT     H141612   4.413   5.698   4.008
13790WAT     H241613   4.493   5.571   3.942
13791WAT      O41614   5.536   7.820   4.773
13791WAT     H141615   5.605   7.828   4.701
13791WAT     H241616   5.554   7.739   4.829
13792WAT      O41617   9.245   6.326   8.507
13792WAT     H141618   9.282   6.359   8.595
13792WAT     H241619   9.273   6.389   8.434
13793WAT      O41620   9.155   8.726   5.991
13793WAT     H141621   9.071   8.725   6.045
13793WAT     H241622   9.133   8.737   5.894
13794WAT      O41623   0.550   2.936   9.853
13794WAT     H141624   0.625   2.913   9.791
13794WAT     H241625   0.587   2.963   9.941
13795WAT      O41626   1.322   1.277   7.194
13795WAT     H141627   1.236   1.318   7.164
13795WAT     H241628   1.398   1.322   7.148
13796WAT      O41629   0.093   9.285   7.757
13796WAT     H141630   0.188   9.264   7.734
13796WAT     H241631   0.086   9.382   7.783
13797WAT      O41632   9.223   5.610   1.177
13797WAT     H141633   9.139   5.617   1.124
13797WAT     H241634   9.202   5.586   1.272
13798WAT      O41635   7.850   7.388   1.692
13798WAT     H141636   7.886   7.457   1.630
13798WAT     H241637   7.819   7.432   1.777
13799WAT      O41638   7.454   7.349   4.126
13799WAT     H141639   7.390   7.273   4.116
13799WAT     H241640   7.511   7.356   4.044
13800WAT      O41641   8.804   8.821   6.644
13800WAT     H141642   8.737   8.860   6.580
13800WAT     H241643   8.874   8.772   6.593
13801WAT      O41644   7.651   7.632   5.376
13801WAT     H141645   7.665   7.725   5.341
13801WAT     H241646   7.565   7.596   5.340
13802WAT      O41647   2.679   7.796   8.104
13802WAT     H141648   2.664   7.894   8.115
13802WAT     H241649   2.642   7.747   8.183
13803WAT      O41650   4.661   7.879   2.950
13803WAT     H141651   4.689   7.864   2.856
13803WAT     H241652   4.613   7.967   2.957
13804WAT      O41653   6.405   7.914   6.150
13804WAT     H141654   6.428   7.850   6.076
13804WAT     H241655   6.400   7.864   6.236
13805WAT      O41656   0.438   8.561   8.757
13805WAT     H141657   0.399   8.486   8.703
13805WAT     H241658   0.480   8.525   8.840
13806WAT      O41659   0.817   8.781   8.529
13806WAT     H141660   0.867   8.747   8.450
13806WAT     H241661   0.718   8.774   8.512
13807WAT      O41662   6.007   4.657   5.158
13807WAT     H141663   6.055   4.744   5.150
13807WAT     H241664   5.950   4.658   5.240
13808WAT      O41665   1.012   7.917   5.071
13808WAT     H141666   1.106   7.899   5.042
13808WAT     H241667   0.988   7.856   5.146
13809WAT      O41668   2.347   7.709   8.991
13809WAT     H141669   2.337   7.668   8.900
13809WAT     H241670   2.306   7.648   9.059
13810WAT      O41671   6.914   9.605   1.752
13810WAT     H141672   6.899   9.687   1.807
13810WAT     H241673   7.005   9.610   1.710
13811WAT      O41674   6.354   4.239   4.222
13811WAT     H141675   6.287   4.277   4.159
13811WAT     H241676   6.399   4.160   4.180
13812WAT      O41677   2.952   4.400   6.844
13812WAT     H141678   2.864   4.425   6.883
13812WAT     H241679   3.019   4.386   6.917
13813WAT      O41680   3.893   6.265   0.877
13813WAT     H141681   3.892   6.215   0.963
13813WAT     H241682   3.867   6.203   0.802
13814WAT      O41683   8.519   6.330   9.564
13814WAT     H141684   8.601   6.281   9.535
13814WAT     H241685   8.514   6.331   9.664
13815WAT      O41686   4.979   1.431   8.135
13815WAT     H141687   4.985   1.523   8.173
13815WAT     H241688   4.949   1.367   8.206
13816WAT      O41689   2.206   1.605   0.094
13816WAT     H141690   2.227   1.512   0.124
13816WAT     H241691   2.116   1.606   0.051
13817WAT      O41692   5.334   6.082   3.516
13817WAT     H141693   5.327   6.179   3.492
13817WAT     H241694   5.262   6.058   3.581
13818WAT      O41695   9.530   3.340   7.590
13818WAT     H141696   9.504   3.282   7.513
13818WAT     H241697   9.473   3.422   7.590
13819WAT      O41698   8.025   3.532   9.232
13819WAT     H141699   8.050   3.440   9.263
13819WAT     H241700   8.106   3.591   9.237
13820WAT      O41701   0.312   9.460   7.352
13820WAT     H141702   0.407   9.467   7.382
13820WAT     H241703   0.306   9.396   7.275
13821WAT      O41704   3.570   1.892   2.313
13821WAT     H141705   3.597   1.988   2.299
13821WAT     H241706   3.637   1.832   2.269
13822WAT      O41707   9.884   5.173   0.770
13822WAT     H141708   9.888   5.271   0.752
13822WAT     H241709   9.976   5.134   0.762
13823WAT      O41710   8.761   2.771   9.344
13823WAT     H141711   8.788   2.676   9.330
13823WAT     H241712   8.671   2.774   9.388
13824WAT      O41713   9.030   5.430   6.511
13824WAT     H141714   9.028   5.529   6.492
13824WAT     H241715   8.979   5.412   6.595
13825WAT      O41716   7.783   5.031   6.948
13825WAT     H141717   7.811   5.115   6.995
13825WAT     H241718   7.863   4.991   6.903
13826WAT      O41719   6.519   8.219   5.986
13826WAT     H141720   6.601   8.275   5.973
13826WAT     H241721   6.496   8.214   6.083
13827WAT      O41722   2.284   0.743   5.739
13827WAT     H141723   2.248   0.837   5.745
13827WAT     H241724   2.248   0.689   5.814
13828WAT      O41725   1.501   2.975   6.255
13828WAT     H141726   1.547   2.960   6.342
13828WAT     H241727   1.402   2.971   6.268
13829WAT      O41728   5.500   4.793   9.799
13829WAT     H141729   5.467   4.805   9.705
13829WAT     H241730   5.421   4.789   9.861
13830WAT      O41731   8.420   6.818   2.326
13830WAT     H141732   8.453   6.737   2.278
13830WAT     H241733   8.429   6.898   2.265
13831WAT      O41734   3.349   2.798   1.816
13831WAT     H141735   3.311   2.752   1.895
13831WAT     H241736   3.340   2.739   1.735
13832WAT      O41737   1.427   9.468   9.459
13832WAT     H141738   1.337   9.428   9.475
13832WAT     H241739   1.428   9.563   9.492
13833WAT      O41740   9.540   5.226   9.295
13833WAT     H141741   9.603   5.153   9.269
13833WAT     H241742   9.543   5.240   9.394
13834WAT      O41743   6.279   1.999   4.928
13834WAT     H141744   6.232   2.077   4.886
13834WAT     H241745   6.221   1.918   4.920
13835WAT      O41746   2.437   5.128   2.115
13835WAT     H141747   2.422   5.115   2.017
13835WAT     H241748   2.364   5.082   2.166
13836WAT      O41749   4.085   7.853   5.537
13836WAT     H141750   4.145   7.795   5.592
13836WAT     H241751   3.992   7.850   5.575
13837WAT      O41752   4.987   3.868   6.810
13837WAT     H141753   5.083   3.855   6.832
13837WAT     H241754   4.950   3.785   6.767
13838WAT      O41755   2.879   2.499   8.391
13838WAT     H141756   2.856   2.575   8.329
13838WAT     H241757   2.957   2.525   8.447
13839WAT      O41758   9.500   1.287   2.060
13839WAT     H141759   9.520   1.385   2.059
13839WAT     H241760   9.576   1.238   2.016
13840WAT      O41761   7.742   5.284   3.132
13840WAT     H141762   7.644   5.272   3.122
13840WAT     H241763   7.783   5.307   3.044
13841WAT      O41764   0.728   8.966   4.902
13841WAT     H141765   0.666   8.998   4.830
13841WAT     H241766   0.818   9.010   4.890
13842WAT      O41767   3.267   0.973   5.585
13842WAT     H141768   3.311   0.889   5.616
13842WAT     H241769   3.280   1.045   5.653
13843WAT      O41770   8.029   9.749   2.137
13843WAT     H141771   8.035   9.705   2.047
13843WAT     H241772   8.093   9.826   2.141
13844WAT      O41773   6.141   6.881   4.603
13844WAT     H141774   6.070   6.881   4.673
13844WAT     H241775   6.175   6.974   4.589
13845WAT      O41776   5.871   2.729   0.668
13845WAT     H141777   5.875   2.829   0.678
13845WAT     H241778   5.821   2.706   0.584
13846WAT      O41779   2.053   1.695   7.593
13846WAT     H141780   2.050   1.676   7.691
13846WAT     H241781   2.087   1.788   7.578
13847WAT      O41782   7.650   8.525   6.692
13847WAT     H141783   7.614   8.618   6.688
13847WAT     H241784   7.743   8.523   6.656
13848WAT      O41785   4.884   8.576   9.613
13848WAT     H141786   4.808   8.632   9.579
13848WAT     H241787   4.862   8.542   9.704
13849WAT      O41788   6.027   9.679   0.200
13849WAT     H141789   5.948   9.679   0.139
13849WAT     H241790   5.996   9.668   0.294
13850WAT      O41791   4.203   0.196   2.013
13850WAT     H141792   4.111   0.229   2.038
13850WAT     H241793   4.207   0.183   1.914
13851WAT      O41794   2.466   2.721   5.876
13851WAT     H141795   2.373   2.689   5.854
13851WAT     H241796   2.524   2.643   5.897
13852WAT      O41797   2.805   8.574   6.275
13852WAT     H141798   2.738   8.596   6.204
13852WAT     H241799   2.865   8.653   6.290
13853WAT      O41800   0.929   4.527   3.716
13853WAT     H141801   0.939   4.623   3.744
13853WAT     H241802   0.900   4.523   3.621
13854WAT      O41803   8.596   6.781   6.544
13854WAT     H141804   8.555   6.868   6.574
13854WAT     H241805   8.580   6.711   6.614
13855WAT      O41806   3.202   1.767   7.471
13855WAT     H141807   3.222   1.753   7.568
13855WAT     H241808   3.231   1.858   7.444
13856WAT      O41809   4.303   3.888   3.555
13856WAT     H141810   4.399   3.894   3.528
13856WAT     H241811   4.248   3.859   3.477
13857WAT      O41812   7.434   3.314   3.816
13857WAT     H141813   7.454   3.228   3.863
13857WAT     H241814   7.340   3.312   3.782
13858WAT      O41815   7.299   9.005   1.289
13858WAT     H141816   7.351   9.032   1.369
13858WAT     H241817   7.238   8.929   1.312
13859WAT      O41818   3.362   6.290   2.791
13859WAT     H141819   3.346   6.331   2.881
13859WAT     H241820   3.294   6.219   2.774
13860WAT      O41821   1.254   1.812   3.026
13860WAT     H141822   1.331   1.875   3.026
13860WAT     H241823   1.287   1.718   3.018
13861WAT      O41824   3.852   2.713   2.862
13861WAT     H141825   3.848   2.734   2.764
13861WAT     H241826   3.759   2.705   2.898
13862WAT      O41827   7.666   6.786   0.189
13862WAT     H141828   7.671   6.687   0.201
13862WAT     H241829   7.573   6.811   0.161
13863WAT      O41830   8.885   0.263   1.555
13863WAT     H141831   8.916   0.348   1.513
13863WAT     H241832   8.813   0.222   1.499
13864WAT      O41833   5.976   2.579   0.881
13864WAT     H141834   6.006   2.490   0.848
13864WAT     H241835   5.955   2.638   0.802
13865WAT      O41836   9.120   9.036   8.704
13865WAT     H141837   9.158   9.029   8.612
13865WAT     H241838   9.095   9.132   8.722
13866WAT      O41839   3.358   5.822   0.046
13866WAT     H141840   3.357   5.851   0.142
13866WAT     H241841   3.277   5.768   0.026
13867WAT      O41842   5.038   4.043   5.522
13867WAT     H141843   5.066   3.985   5.445
13867WAT     H241844   4.941   4.066   5.513
13868WAT      O41845   5.773   3.982   8.206
13868WAT     H141846   5.805   4.066   8.250
13868WAT     H241847   5.705   4.005   8.136
13869WAT      O41848   8.328   3.760   8.807
13869WAT     H141849   8.364   3.680   8.856
13869WAT     H241850   8.345   3.843   8.862
13870WAT      O41851   6.159   1.103   7.592
13870WAT     H141852   6.247   1.145   7.567
13870WAT     H241853   6.102   1.096   7.510
13871WAT      O41854   1.222   3.954   9.300
13871WAT     H141855   1.270   3.902   9.370
13871WAT     H241856   1.243   4.051   9.310
13872WAT      O41857   4.543   0.571   5.512
13872WAT     H141858   4.586   0.490   5.472
13872WAT     H241859   4.467   0.543   5.570
13873WAT      O41860   2.117   9.750   4.059
13873WAT     H141861   2.108   9.717   4.153
13873WAT     H241862   2.212   9.772   4.040
13874WAT      O41863   0.218   2.821   3.801
13874WAT     H141864   0.135   2.766   3.809
13874WAT     H241865   0.233   2.872   3.886
13875WAT      O41866   6.480   7.940   6.566
13875WAT     H141867   6.509   8.022   6.516
13875WAT     H241868   6.466   7.963   6.662
13876WAT      O41869   8.046   7.534   0.186
13876WAT     H141870   8.092   7.515   0.273
13876WAT     H241871   8.000   7.452   0.154
13877WAT      O41872   9.395   3.713   4.492
13877WAT     H141873   9.385   3.704   4.592
13877WAT     H241874   9.399   3.810   4.468
13878WAT      O41875   8.548   0.229   7.251
13878WAT     H141876   8.619   0.291   7.282
13878WAT     H241877   8.515   0.259   7.161
13879WAT      O41878   2.900   2.256   8.508
13879WAT     H141879   2.910   2.345   8.464
13879WAT     H241880   2.985   2.233   8.556
13880WAT      O41881   8.989   9.840   2.357
13880WAT     H141882   9.038   9.883   2.280
13880WAT     H241883   8.891   9.849   2.343
13881WAT      O41884   0.850   4.517   8.230
13881WAT     H141885   0.782   4.445   8.217
13881WAT     H241886   0.939   4.485   8.197
13882WAT      O41887   8.444   7.046   6.615
13882WAT     H141888   8.486   7.129   6.578
13882WAT     H241889   8.365   7.022   6.558
13883WAT      O41890   8.007   4.763   1.600
13883WAT     H141891   7.991   4.808   1.512
13883WAT     H241892   7.928   4.777   1.659
13884WAT      O41893   6.464   2.033   3.461
13884WAT     H141894   6.546   2.042   3.517
13884WAT     H241895   6.426   1.942   3.472
13885WAT      O41896   1.766   6.420   7.904
13885WAT     H141897   1.807   6.500   7.948
13885WAT     H241898   1.828   6.343   7.910
13886WAT      O41899   4.185   1.079   9.395
13886WAT     H141900   4.278   1.080   9.431
13886WAT     H241901   4.189   1.071   9.295
13887WAT      O41902   7.946   2.160   1.530
13887WAT     H141903   7.898   2.194   1.611
13887WAT     H241904   7.910   2.205   1.449
13888WAT      O41905   1.352   1.349   3.875
13888WAT     H141906   1.288   1.278   3.846
13888WAT     H241907   1.349   1.425   3.810
13889WAT      O41908   5.627   9.391   0.125
13889WAT     H141909   5.565   9.319   0.095
13889WAT     H241910   5.720   9.355   0.134
13890WAT      O41911   0.070   4.102   5.344
13890WAT     H141912   0.091   4.111   5.442
13890WAT     H241913   0.149   4.064   5.297
13891WAT      O41914   6.581   4.774   4.329
13891WAT     H141915   6.491   4.811   4.354
13891WAT     H241916   6.652   4.817   4.385
13892WAT      O41917   3.448   1.855   6.347
13892WAT     H141918   3.490   1.944   6.329
13892WAT     H241919   3.378   1.836   6.278
13893WAT      O41920   0.002   7.887   3.589
13893WAT     H141921   0.083   7.881   3.532
13893WAT     H241922  -0.026   7.982   3.598
13894WAT      O41923   3.326   7.305   3.760
13894WAT     H141924   3.316   7.213   3.798
13894WAT     H241925   3.283   7.371   3.821
13895WAT      O41926   6.682   0.460   5.043
13895WAT     H141927   6.610   0.394   5.019
13895WAT     H241928   6.656   0.551   5.010
13896WAT      O41929   3.971   5.314   8.352
13896WAT     H141930   4.028   5.248   8.303
13896WAT     H241931   3.876   5.305   8.321
13897WAT      O41932   2.815   4.987   2.853
13897WAT     H141933   2.728   5.007   2.896
13897WAT     H241934   2.887   4.982   2.923
13898WAT      O41935   7.468   3.365   1.208
13898WAT     H141936   7.385   3.319   1.240
13898WAT     H241937   7.469   3.366   1.108
13899WAT      O41938   3.282   0.022   8.052
13899WAT     H141939   3.268  -0.071   8.086
13899WAT     H241940   3.321   0.078   8.126
13900WAT      O41941   0.628   9.254   9.211
13900WAT     H141942   0.557   9.260   9.281
13900WAT     H241943   0.636   9.159   9.180
13901WAT      O41944   5.554   0.076   1.312
13901WAT     H141945   5.561   0.081   1.213
13901WAT     H241946   5.495   0.149   1.345
13902WAT      O41947   1.029   6.348   1.973
13902WAT     H141948   1.068   6.384   2.058
13902WAT     H241949   1.045   6.249   1.969
13903WAT      O41950   8.248   2.692   6.497
13903WAT     H141951   8.306   2.677   6.577
13903WAT     H241952   8.239   2.791   6.482
13904WAT      O41953   0.948   2.964   3.770
13904WAT     H141954   0.916   2.959   3.865
13904WAT     H241955   0.891   2.905   3.713
13905WAT      O41956   9.486   0.572   9.131
13905WAT     H141957   9.428   0.552   9.210
13905WAT     H241958   9.457   0.658   9.089
13906WAT      O41959   0.237   0.912   1.220
13906WAT     H141960   0.177   0.871   1.289
13906WAT     H241961   0.299   0.842   1.184
13907WAT      O41962   8.876   8.003   5.324
13907WAT     H141963   8.864   7.970   5.418
13907WAT     H241964   8.866   7.926   5.260
13908WAT      O41965   6.695   3.002   4.778
13908WAT     H141966   6.756   3.073   4.813
13908WAT     H241967   6.612   2.999   4.833
13909WAT      O41968   7.228   5.651   8.198
13909WAT     H141969   7.179   5.737   8.210
13909WAT     H241970   7.236   5.629   8.101
13910WAT      O41971   0.578   3.815   9.513
13910WAT     H141972   0.484   3.782   9.516
13910WAT     H241973   0.604   3.833   9.418
13911WAT      O41974   3.208   8.555   0.645
13911WAT     H141975   3.139   8.601   0.701
13911WAT     H241976   3.182   8.559   0.549
13912WAT      O41977   6.050   3.373   2.427
13912WAT     H141978   6.063   3.295   2.488
13912WAT     H241979   6.101   3.451   2.460
13913WAT      O41980   2.985   1.723   3.353
13913WAT     H141981   2.898   1.768   3.334
13913WAT     H241982   3.061   1.778   3.317
13914WAT      O41983   5.176   7.338   7.090
13914WAT     H141984   5.174   7.280   7.172
13914WAT     H241985   5.092   7.392   7.085
13915WAT      O41986   0.301   0.670   3.284
13915WAT     H141987   0.331   0.721   3.365
13915WAT     H241988   0.205   0.644   3.294
13916WAT      O41989   4.725   6.361   6.889
13916WAT     H141990   4.698   6.267   6.867
13916WAT     H241991   4.777   6.399   6.812
13917WAT      O41992   6.758   1.686   5.442
13917WAT     H141993   6.729   1.590   5.443
13917WAT     H241994   6.682   1.743   5.412
13918WAT      O41995   5.524   9.073   6.854
13918WAT     H141996   5.524   9.121   6.766
13918WAT     H241997   5.454   9.113   6.914
13919WAT      O41998   2.731   0.543   7.205
13919WAT     H141999   2.762   0.515   7.296
13919WAT     H242000   2.786   0.496   7.136
13920WAT      O42001   9.459   7.950   4.309
13920WAT     H142002   9.362   7.947   4.285
13920WAT     H242003   9.469   7.977   4.405
13921WAT      O42004   9.638   0.908   8.632
13921WAT     H142005   9.576   0.976   8.670
13921WAT     H242006   9.588   0.822   8.617
13922WAT      O42007   8.887   0.078   8.231
13922WAT     H142008   8.953   0.154   8.235
13922WAT     H242009   8.837   0.072   8.316
13923WAT      O42010   7.781   1.612   7.500
13923WAT     H142011   7.727   1.693   7.523
13923WAT     H242012   7.848   1.595   7.571
13924WAT      O42013   1.772   8.751   5.506
13924WAT     H142014   1.831   8.689   5.454
13924WAT     H242015   1.827   8.824   5.546
13925WAT      O42016   7.181   9.612   0.349
13925WAT     H142017   7.254   9.673   0.316
13925WAT     H242018   7.102   9.667   0.377
13926WAT      O42019   7.659   4.747   2.770
13926WAT     H142020   7.607   4.686   2.829
13926WAT     H242021   7.746   4.769   2.814
13927WAT      O42022   9.069   3.915   7.045
13927WAT     H142023   9.011   3.937   6.967
13927WAT     H242024   9.165   3.919   7.018
13928WAT      O42025   8.305   8.822   4.419
13928WAT     H142026   8.388   8.794   4.371
13928WAT     H242027   8.227   8.771   4.384
13929WAT      O42028   0.801   4.400   6.686
13929WAT     H142029   0.763   4.308   6.694
13929WAT     H242030   0.799   4.429   6.591
13930WAT      O42031   2.387   8.172   0.726
13930WAT     H142032   2.324   8.247   0.705
13930WAT     H242033   2.354   8.088   0.683
13931WAT      O42034   2.076   0.847   9.849
13931WAT     H142035   2.042   0.911   9.918
13931WAT     H242036   2.163   0.809   9.880
13932WAT      O42037   8.176   2.550   6.885
13932WAT     H142038   8.214   2.561   6.977
13932WAT     H242039   8.223   2.611   6.821
13933WAT      O42040   7.000   1.781   5.116
13933WAT     H142041   6.968   1.814   5.205
13933WAT     H242042   7.087   1.824   5.094
13934WAT      O42043   8.007   5.892   3.482
13934WAT     H142044   7.974   5.893   3.388
13934WAT     H242045   7.963   5.818   3.533
13935WAT      O42046   8.595   3.361   7.083
13935WAT     H142047   8.600   3.340   7.181
13935WAT     H242048   8.636   3.287   7.030
13936WAT      O42049   0.079   6.018   6.414
13936WAT     H142050   0.134   5.935   6.405
13936WAT     H242051   0.101   6.064   6.500
13937WAT      O42052   5.892   7.172   5.571
13937WAT     H142053   5.848   7.096   5.522
13937WAT     H242054   5.860   7.259   5.533
13938WAT      O42055   6.746   6.931   1.324
13938WAT     H142056   6.663   6.889   1.289
13938WAT     H242057   6.750   6.921   1.423
13939WAT      O42058   6.938   9.699   2.615
13939WAT     H142059   6.840   9.717   2.626
13939WAT     H242060   6.988   9.736   2.693
13940WAT      O42061   6.204   2.288   9.223
13940WAT     H142062   6.170   2.370   9.175
13940WAT     H242063   6.297   2.304   9.254
13941WAT      O42064   5.958   4.222   4.906
13941WAT     H142065   5.945   4.126   4.879
13941WAT     H242066   6.055   4.239   4.922
13942WAT      O42067   5.668   1.111   4.531
13942WAT     H142068   5.570   1.092   4.525
13942WAT     H242069   5.682   1.210   4.542
13943WAT      O42070   6.803   6.868   9.392
13943WAT     H142071   6.828   6.784   9.344
13943WAT     H242072   6.737   6.920   9.338
13944WAT      O42073   5.506   7.523   9.632
13944WAT     H142074   5.415   7.541   9.669
13944WAT     H242075   5.505   7.537   9.533
13945WAT      O42076   7.166   3.131   2.927
13945WAT     H142077   7.185   3.196   2.853
13945WAT     H242078   7.247   3.122   2.984
13946WAT      O42079   7.151   6.357   0.333
13946WAT     H142080   7.161   6.456   0.339
13946WAT     H242081   7.174   6.326   0.240
13947WAT      O42082   2.728   8.714   5.813
13947WAT     H142083   2.665   8.710   5.735
13947WAT     H242084   2.818   8.744   5.780
13948WAT      O42085   8.040   6.730   7.927
13948WAT     H142086   8.080   6.707   7.838
13948WAT     H242087   7.965   6.794   7.914
13949WAT      O42088   1.644   2.067   8.052
13949WAT     H142089   1.741   2.090   8.059
13949WAT     H242090   1.588   2.150   8.061
13950WAT      O42091   9.325   6.037   6.890
13950WAT     H142092   9.421   6.043   6.864
13950WAT     H242093   9.315   5.972   6.966
13951WAT      O42094   3.621   1.004   1.892
13951WAT     H142095   3.550   1.016   1.822
13951WAT     H242096   3.678   0.925   1.869
13952WAT      O42097   1.806   9.817   4.882
13952WAT     H142098   1.753   9.899   4.902
13952WAT     H242099   1.899   9.844   4.854
13953WAT      O42100   4.372   6.496   5.433
13953WAT     H142101   4.417   6.561   5.494
13953WAT     H242102   4.333   6.545   5.355
13954WAT      O42103   6.719   7.959   5.012
13954WAT     H142104   6.720   8.036   4.948
13954WAT     H242105   6.643   7.970   5.076
13955WAT      O42106   1.938   0.915   8.501
13955WAT     H142107   1.942   0.917   8.601
13955WAT     H242108   2.012   0.971   8.464
13956WAT      O42109   2.733   0.396   7.898
13956WAT     H142110   2.797   0.368   7.826
13956WAT     H242111   2.642   0.361   7.875
13957WAT      O42112   4.934   7.884   2.303
13957WAT     H142113   4.962   7.829   2.382
13957WAT     H242114   4.840   7.861   2.278
13958WAT      O42115   3.237   7.031   7.593
13958WAT     H142116   3.272   7.075   7.675
13958WAT     H242117   3.312   7.018   7.527
13959WAT      O42118   9.339   3.860   7.306
13959WAT     H142119   9.438   3.876   7.313
13959WAT     H242120   9.293   3.947   7.286
13960WAT      O42121   2.653   3.578   0.607
13960WAT     H142122   2.579   3.631   0.647
13960WAT     H242123   2.677   3.503   0.669
13961WAT      O42124   9.340   9.484   1.105
13961WAT     H142125   9.306   9.393   1.082
13961WAT     H242126   9.366   9.486   1.202
13962WAT      O42127   0.675   9.189   3.852
13962WAT     H142128   0.716   9.281   3.854
13962WAT     H242129   0.644   9.164   3.944
13963WAT      O42130   2.130   9.410   4.280
13963WAT     H142131   2.152   9.376   4.371
13963WAT     H242132   2.167   9.502   4.268
13964WAT      O42133   2.129   1.471   3.638
13964WAT     H142134   2.040   1.447   3.598
13964WAT     H242135   2.128   1.567   3.666
13965WAT      O42136   7.153   7.500   1.450
13965WAT     H142137   7.068   7.551   1.435
13965WAT     H242138   7.231   7.561   1.442
13966WAT      O42139   1.469   6.162   5.066
13966WAT     H142140   1.436   6.256   5.077
13966WAT     H242141   1.409   6.100   5.116
13967WAT      O42142   2.498   0.026   7.496
13967WAT     H142143   2.448   0.028   7.583
13967WAT     H242144   2.439  -0.013   7.425
13968WAT      O42145   0.797   0.402   5.221
13968WAT     H142146   0.786   0.331   5.151
13968WAT     H242147   0.861   0.369   5.291
13969WAT      O42148   5.770   4.463   9.463
13969WAT     H142149   5.839   4.520   9.417
13969WAT     H242150   5.776   4.479   9.562
13970WAT      O42151   9.020   7.515   6.471
13970WAT     H142152   8.998   7.423   6.440
13970WAT     H242153   9.054   7.569   6.394
13971WAT      O42154   5.072   2.337   2.843
13971WAT     H142155   5.034   2.274   2.911
13971WAT     H242156   5.172   2.330   2.844
13972WAT      O42157   8.914   1.371   6.318
13972WAT     H142158   8.976   1.391   6.243
13972WAT     H242159   8.959   1.310   6.384
13973WAT      O42160   7.211   7.649   0.509
13973WAT     H142161   7.218   7.550   0.513
13973WAT     H242162   7.299   7.688   0.484
13974WAT      O42163   8.972   8.958   5.468
13974WAT     H142164   9.034   8.969   5.545
13974WAT     H242165   8.897   8.897   5.495
13975WAT      O42166   2.254   9.334   9.276
13975WAT     H142167   2.274   9.360   9.370
13975WAT     H242168   2.177   9.388   9.242
13976WAT      O42169   7.028   1.054   4.597
13976WAT     H142170   6.980   1.097   4.673
13976WAT     H242171   7.119   1.025   4.628
13977WAT      O42172   8.084   9.585   4.427
13977WAT     H142173   8.073   9.514   4.497
13977WAT     H242174   8.139   9.549   4.352
13978WAT      O42175   6.743   8.746   4.843
13978WAT     H142176   6.701   8.834   4.819
13978WAT     H242177   6.841   8.759   4.859
13979WAT      O42178   1.457   9.514   1.216
13979WAT     H142179   1.360   9.537   1.209
13979WAT     H242180   1.502   9.533   1.129
13980WAT      O42181   6.485   5.161   1.868
13980WAT     H142182   6.387   5.168   1.854
13980WAT     H242183   6.511   5.206   1.954
13981WAT      O42184   5.355   3.531   6.138
13981WAT     H142185   5.275   3.585   6.165
13981WAT     H242186   5.340   3.436   6.163
13982WAT      O42187   2.822   6.218   7.886
13982WAT     H142188   2.828   6.214   7.786
13982WAT     H242189   2.815   6.126   7.923
13983WAT      O42190   2.322   6.514   7.530
13983WAT     H142191   2.244   6.459   7.500
13983WAT     H242192   2.290   6.583   7.596
13984WAT      O42193   0.840   5.186   9.420
13984WAT     H142194   0.802   5.095   9.402
13984WAT     H242195   0.936   5.187   9.395
13985WAT      O42196   7.613   1.692   0.534
13985WAT     H142197   7.561   1.770   0.500
13985WAT     H242198   7.550   1.626   0.575
13986WAT      O42199   7.440   0.924   9.824
13986WAT     H142200   7.395   0.861   9.888
13986WAT     H242201   7.377   0.998   9.801
13987WAT      O42202   1.239   5.891   4.570
13987WAT     H142203   1.273   5.800   4.595
13987WAT     H242204   1.237   5.949   4.652
13988WAT      O42205   4.917   3.828   2.692
13988WAT     H142206   4.900   3.881   2.609
13988WAT     H242207   4.834   3.777   2.716
13989WAT      O42208   4.874   4.233   6.917
13989WAT     H142209   4.876   4.175   6.999
13989WAT     H242210   4.957   4.215   6.863
13990WAT      O42211   0.174   8.742   9.628
13990WAT     H142212   0.093   8.769   9.576
13990WAT     H242213   0.255   8.781   9.585
13991WAT      O42214   6.572   9.039   2.424
13991WAT     H142215   6.533   9.025   2.333
13991WAT     H242216   6.552   8.959   2.481
13992WAT      O42217   7.478   5.088   0.032
13992WAT     H142218   7.440   5.115  -0.056
13992WAT     H242219   7.523   4.999   0.024
13993WAT      O42220   4.539   1.790   6.679
13993WAT     H142221   4.549   1.884   6.647
13993WAT     H242222   4.579   1.782   6.770
13994WAT      O42223   5.561   7.611   2.572
13994WAT     H142224   5.552   7.673   2.494
13994WAT     H242225   5.654   7.573   2.573
13995WAT      O42226   9.335   2.950   3.797
13995WAT     H142227   9.308   2.929   3.703
13995WAT     H242228   9.378   2.869   3.838
13996WAT      O42229   6.474   4.648   8.863
13996WAT     H142230   6.447   4.672   8.956
13996WAT     H242231   6.475   4.730   8.806
13997WAT      O42232   1.078   9.078   2.364
13997WAT     H142233   1.006   9.147   2.369
13997WAT     H242234   1.137   9.084   2.444
13998WAT      O42235   6.966   6.658   8.489
13998WAT     H142236   6.920   6.734   8.443
13998WAT     H242237   7.062   6.681   8.502
13999WAT      O42238   6.549   7.547   9.138
13999WAT     H142239   6.543   7.541   9.237
13999WAT     H242240   6.478   7.609   9.104
14000WAT      O42241   8.173   7.685   3.868
14000WAT     H142242   8.148   7.590   3.887
14000WAT     H242243   8.260   7.688   3.818
14001WAT      O42244   2.266   4.209   2.462
14001WAT     H142245   2.184   4.158   2.489
14001WAT     H242246   2.276   4.205   2.363
14002WAT      O42247   6.134   6.440   1.627
14002WAT     H142248   6.121   6.476   1.719
14002WAT     H242249   6.046   6.409   1.590
14003WAT      O42250   5.150   5.447   3.454
14003WAT     H142251   5.061   5.423   3.415
14003WAT     H242252   5.139   5.468   3.551
14004WAT      O42253   9.229   0.918   8.285
14004WAT     H142254   9.304   0.954   8.340
14004WAT     H242255   9.146   0.911   8.341
14005WAT      O42256   9.194   1.476   6.899
14005WAT     H142257   9.174   1.561   6.849
14005WAT     H242258   9.281   1.485   6.947
14006WAT      O42259   1.549   6.028   0.354
14006WAT     H142260   1.558   5.956   0.422
14006WAT     H242261   1.566   6.117   0.396
14007WAT      O42262   0.410   8.311   8.570
14007WAT     H142263   0.393   8.277   8.663
14007WAT     H242264   0.501   8.281   8.540
14008WAT      O42265   7.396   0.230   6.786
14008WAT     H142266   7.367   0.175   6.708
14008WAT     H242267   7.474   0.287   6.760
14009WAT      O42268   3.480   1.824   9.037
14009WAT     H142269   3.525   1.749   9.086
14009WAT     H242270   3.494   1.909   9.087
14010WAT      O42271   5.026   4.483   8.343
14010WAT     H142272   5.020   4.477   8.443
14010WAT     H242273   5.023   4.579   8.315
14011WAT      O42274   6.792   1.375   2.548
14011WAT     H142275   6.704   1.381   2.595
14011WAT     H242276   6.833   1.286   2.566
14012WAT      O42277   7.083   5.743   0.451
14012WAT     H142278   7.030   5.817   0.410
14012WAT     H242279   7.096   5.670   0.383
14013WAT      O42280   3.741   3.509   0.129
14013WAT     H142281   3.685   3.588   0.109
14013WAT     H242282   3.829   3.517   0.082
14014WAT      O42283   8.861   0.333   8.721
14014WAT     H142284   8.912   0.392   8.658
14014WAT     H242285   8.831   0.387   8.800
14015WAT      O42286   3.703   3.146   4.594
14015WAT     H142287   3.793   3.189   4.594
14015WAT     H242288   3.713   3.048   4.609
14016WAT      O42289   6.370   8.785   6.163
14016WAT     H142290   6.407   8.697   6.136
14016WAT     H242291   6.375   8.794   6.263
14017WAT      O42292   7.773   7.723   3.907
14017WAT     H142293   7.804   7.659   3.978
14017WAT     H242294   7.780   7.816   3.942
14018WAT      O42295   8.177   3.933   2.362
14018WAT     H142296   8.135   3.987   2.290
14018WAT     H242297   8.221   3.993   2.428
14019WAT      O42298   3.088   9.542   6.446
14019WAT     H142299   3.186   9.544   6.467
14019WAT     H242300   3.071   9.593   6.362
14020WAT      O42301   9.383   2.457   9.600
14020WAT     H142302   9.375   2.540   9.545
14020WAT     H242303   9.313   2.391   9.572
14021WAT      O42304   3.478   6.926   3.471
14021WAT     H142305   3.443   6.882   3.554
14021WAT     H242306   3.495   7.023   3.491
14022WAT      O42307   8.882   7.268   7.927
14022WAT     H142308   8.853   7.269   7.831
14022WAT     H242309   8.805   7.244   7.985
14023WAT      O42310   1.728   7.079   5.662
14023WAT     H142311   1.775   7.048   5.580
14023WAT     H242312   1.736   7.009   5.733
14024WAT      O42313   9.289   5.807   4.557
14024WAT     H142314   9.376   5.853   4.541
14024WAT     H242315   9.222   5.873   4.590
14025WAT      O42316   1.497   2.257   9.043
14025WAT     H142317   1.548   2.186   9.090
14025WAT     H242318   1.489   2.337   9.103
14026WAT      O42319   3.005   4.202   8.590
14026WAT     H142320   3.042   4.290   8.620
14026WAT     H242321   3.080   4.138   8.575
14027WAT      O42322   6.069   6.245   5.776
14027WAT     H142323   6.054   6.323   5.715
14027WAT     H242324   6.164   6.244   5.807
14028WAT      O42325   7.909   8.973   7.498
14028WAT     H142326   7.894   9.051   7.557
14028WAT     H242327   8.007   8.952   7.495
14029WAT      O42328   8.968   7.258   1.797
14029WAT     H142329   8.911   7.283   1.875
14029WAT     H242330   8.982   7.338   1.739
14030WAT      O42331   1.584   5.695   7.088
14030WAT     H142332   1.683   5.679   7.081
14030WAT     H242333   1.566   5.758   7.163
14031WAT      O42334   1.736   4.184   0.045
14031WAT     H142335   1.721   4.213   0.140
14031WAT     H242336   1.651   4.192  -0.006
14032WAT      O42337   5.066   0.208   7.961
14032WAT     H142338   5.098   0.301   7.977
14032WAT     H242339   4.973   0.210   7.925
14033WAT      O42340   9.873   9.232   2.817
14033WAT     H142341   9.855   9.197   2.724
14033WAT     H242342   9.911   9.324   2.811
14034WAT      O42343   0.665   8.104   2.906
14034WAT     H142344   0.676   8.023   2.849
14034WAT     H242345   0.576   8.100   2.951
14035WAT      O42346   7.065   1.931   1.781
14035WAT     H142347   7.118   1.996   1.726
14035WAT     H242348   7.128   1.871   1.832
14036WAT      O42349   1.024   4.667   1.673
14036WAT     H142350   0.955   4.663   1.745
14036WAT     H242351   1.111   4.630   1.707
14037WAT      O42352   7.779   1.127   5.643
14037WAT     H142353   7.814   1.124   5.549
14037WAT     H242354   7.754   1.035   5.672
14038WAT      O42355   8.565   3.631   0.180
14038WAT     H142356   8.548   3.694   0.256
14038WAT     H242357   8.480   3.584   0.157
14039WAT      O42358   1.597   2.010   4.608
14039WAT     H142359   1.620   2.089   4.665
14039WAT     H242360   1.676   1.983   4.554
14040WAT      O42361   3.216   5.685   0.954
14040WAT     H142362   3.240   5.677   1.050
14040WAT     H242363   3.138   5.747   0.944
14041WAT      O42364   8.000   1.902   4.431
14041WAT     H142365   7.977   1.941   4.520
14041WAT     H242366   8.091   1.933   4.404
14042WAT      O42367   2.891   5.951   9.307
14042WAT     H142368   2.971   5.982   9.256
14042WAT     H242369   2.905   5.857   9.338
14043WAT      O42370   7.280   5.311   5.865
14043WAT     H142371   7.353   5.345   5.924
14043WAT     H242372   7.317   5.242   5.803
14044WAT      O42373   5.766   4.426   4.802
14044WAT     H142374   5.698   4.379   4.746
14044WAT     H242375   5.845   4.367   4.816
14045WAT      O42376   0.682   5.762   6.021
14045WAT     H142377   0.712   5.744   6.114
14045WAT     H242378   0.589   5.729   6.008
14046WAT      O42379   4.697   0.032   6.437
14046WAT     H142380   4.685   0.015   6.535
14046WAT     H242381   4.633  -0.024   6.385
14047WAT      O42382   2.884   1.395   0.334
14047WAT     H142383   2.854   1.416   0.427
14047WAT     H242384   2.969   1.343   0.337
14048WAT      O42385   0.790   2.812   2.544
14048WAT     H142386   0.829   2.859   2.623
14048WAT     H242387   0.822   2.717   2.542
14049WAT      O42388   5.242   5.653   2.111
14049WAT     H142389   5.305   5.730   2.111
14049WAT     H242390   5.215   5.632   2.018
14050WAT      O42391   2.027   9.231   4.136
14050WAT     H142392   2.074   9.310   4.176
14050WAT     H242393   2.065   9.147   4.173
14051WAT      O42394   8.715   9.797   0.740
14051WAT     H142395   8.788   9.847   0.693
14051WAT     H242396   8.720   9.814   0.838
14052WAT      O42397   2.457   7.251   0.021
14052WAT     H142398   2.372   7.206  -0.008
14052WAT     H242399   2.533   7.219  -0.036
14053WAT      O42400   7.543   8.763   6.701
14053WAT     H142401   7.454   8.806   6.687
14053WAT     H242402   7.614   8.833   6.708
14054WAT      O42403   7.565   6.618   9.683
14054WAT     H142404   7.474   6.605   9.722
14054WAT     H242405   7.605   6.703   9.720
14055WAT      O42406   7.028   3.793   9.216
14055WAT     H142407   6.974   3.789   9.300
14055WAT     H242408   7.033   3.887   9.183
14056WAT      O42409   9.254   1.096   2.001
14056WAT     H142410   9.209   1.151   1.931
14056WAT     H242411   9.339   1.140   2.029
14057WAT      O42412   6.720   8.523   4.394
14057WAT     H142413   6.735   8.608   4.345
14057WAT     H242414   6.809   8.484   4.421
14058WAT      O42415   0.078   1.206   2.167
14058WAT     H142416   0.156   1.257   2.201
14058WAT     H242417   0.106   1.111   2.149
14059WAT      O42418   7.589   0.785   8.437
14059WAT     H142419   7.614   0.790   8.534
14059WAT     H242420   7.490   0.797   8.429
14060WAT      O42421   9.824   9.241   9.396
14060WAT     H142422   9.776   9.316   9.351
14060WAT     H242423   9.831   9.163   9.334
14061WAT      O42424   9.645   7.886   5.650
14061WAT     H142425   9.726   7.895   5.707
14061WAT     H242426   9.576   7.832   5.698
14062WAT      O42427   5.539   8.770   4.119
14062WAT     H142428   5.586   8.858   4.106
14062WAT     H242429   5.584   8.719   4.193
14063WAT      O42430   3.148   9.810   9.808
14063WAT     H142431   3.226   9.838   9.752
14063WAT     H242432   3.112   9.890   9.857
14064WAT      O42433   1.467   5.247   8.310
14064WAT     H142434   1.407   5.319   8.277
14064WAT     H242435   1.563   5.273   8.295
14065WAT      O42436   4.508   2.321   0.863
14065WAT     H142437   4.533   2.332   0.767
14065WAT     H242438   4.534   2.230   0.894
14066WAT      O42439   4.184   9.396   7.572
14066WAT     H142440   4.161   9.446   7.488
14066WAT     H242441   4.192   9.461   7.648
14067WAT      O42442   1.208   7.428   7.870
14067WAT     H142443   1.212   7.329   7.853
14067WAT     H242444   1.160   7.445   7.956
14068WAT      O42445   7.805   3.870   5.880
14068WAT     H142446   7.855   3.786   5.857
14068WAT     H242447   7.815   3.889   5.978
14069WAT      O42448   9.419   3.500   2.822
14069WAT     H142449   9.388   3.591   2.794
14069WAT     H242450   9.472   3.459   2.748
14070WAT      O42451   3.892   7.193   1.232
14070WAT     H142452   3.945   7.167   1.312
14070WAT     H242453   3.821   7.258   1.258
14071WAT      O42454   7.648   1.710   2.158
14071WAT     H142455   7.649   1.779   2.230
14071WAT     H242456   7.736   1.710   2.110
14072WAT      O42457   6.188   8.190   8.554
14072WAT     H142458   6.151   8.195   8.647
14072WAT     H242459   6.179   8.097   8.519
14073WAT      O42460   8.742   5.017   8.071
14073WAT     H142461   8.791   5.057   7.993
14073WAT     H242462   8.787   4.931   8.097
14074WAT      O42463   3.492   2.478   5.096
14074WAT     H142464   3.440   2.540   5.154
14074WAT     H242465   3.439   2.456   5.014
14075WAT      O42466   2.591   6.870   5.758
14075WAT     H142467   2.550   6.868   5.849
14075WAT     H242468   2.671   6.930   5.759
14076WAT      O42469   0.912   8.674   6.551
14076WAT     H142470   0.818   8.686   6.583
14076WAT     H242471   0.961   8.760   6.559
14077WAT      O42472   3.144   0.059   4.335
14077WAT     H142473   3.128  -0.018   4.273
14077WAT     H242474   3.123   0.145   4.288
14078WAT      O42475   2.444   7.478   2.703
14078WAT     H142476   2.363   7.471   2.761
14078WAT     H242477   2.516   7.418   2.740
14079WAT      O42478   0.658   7.498   3.354
14079WAT     H142479   0.627   7.490   3.259
14079WAT     H242480   0.758   7.498   3.357
14080WAT      O42481   1.566   8.967   5.958
14080WAT     H142482   1.607   9.059   5.963
14080WAT     H242483   1.639   8.899   5.947
14081WAT      O42484   5.242   4.222   9.020
14081WAT     H142485   5.285   4.164   8.950
14081WAT     H242486   5.286   4.311   9.021
14082WAT      O42487   3.400   8.929   6.848
14082WAT     H142488   3.363   8.855   6.903
14082WAT     H242489   3.483   8.965   6.890
14083WAT      O42490   9.356   9.736   8.811
14083WAT     H142491   9.370   9.652   8.758
14083WAT     H242492   9.261   9.742   8.840
14084WAT      O42493   7.255   6.255   0.715
14084WAT     H142494   7.230   6.158   0.725
14084WAT     H242495   7.301   6.268   0.628
14085WAT      O42496   4.456   0.197   5.733
14085WAT     H142497   4.544   0.243   5.727
14085WAT     H242498   4.458   0.131   5.808
14086WAT      O42499   1.616   7.194   2.107
14086WAT     H142500   1.672   7.202   2.190
14086WAT     H242501   1.585   7.100   2.096
14087WAT      O42502   9.390   3.643   0.284
14087WAT     H142503   9.457   3.599   0.224
14087WAT     H242504   9.301   3.645   0.238
14088WAT      O42505   2.791   6.322   9.602
14088WAT     H142506   2.749   6.238   9.638
14088WAT     H242507   2.795   6.390   9.674
14089WAT      O42508   5.834   6.915   1.638
14089WAT     H142509   5.768   6.874   1.701
14089WAT     H242510   5.801   6.903   1.544
14090WAT      O42511   6.408   1.976   7.878
14090WAT     H142512   6.452   2.053   7.833
14090WAT     H242513   6.473   1.899   7.882
14091WAT      O42514   4.568   8.770   1.876
14091WAT     H142515   4.609   8.745   1.964
14091WAT     H242516   4.496   8.704   1.853
14092WAT      O42517   1.776   2.239   3.075
14092WAT     H142518   1.864   2.192   3.071
14092WAT     H242519   1.718   2.193   3.142
14093WAT      O42520   7.147   8.700   3.657
14093WAT     H142521   7.187   8.651   3.735
14093WAT     H242522   7.136   8.797   3.681
14094WAT      O42523   0.749   3.115   6.394
14094WAT     H142524   0.767   3.049   6.467
14094WAT     H242525   0.706   3.068   6.317
14095WAT      O42526   1.970   7.535   1.480
14095WAT     H142527   2.045   7.562   1.541
14095WAT     H242528   1.980   7.438   1.457
14096WAT      O42529   8.676   5.304   2.156
14096WAT     H142530   8.713   5.357   2.080
14096WAT     H242531   8.582   5.333   2.175
14097WAT      O42532   6.285   0.564   6.308
14097WAT     H142533   6.302   0.518   6.395
14097WAT     H242534   6.186   0.579   6.297
14098WAT      O42535   0.849   6.665   4.907
14098WAT     H142536   0.919   6.733   4.885
14098WAT     H242537   0.758   6.706   4.894
14099WAT      O42538   1.517   6.935   2.095
14099WAT     H142539   1.599   6.905   2.048
14099WAT     H242540   1.436   6.907   2.043
14100WAT      O42541   5.105   7.470   3.570
14100WAT     H142542   5.081   7.373   3.568
14100WAT     H242543   5.195   7.482   3.612
14101WAT      O42544   0.100   2.166   8.940
14101WAT     H142545   0.001   2.153   8.950
14101WAT     H242546   0.118   2.219   8.857
14102WAT      O42547   1.453   0.373   0.825
14102WAT     H142548   1.497   0.303   0.769
14102WAT     H242549   1.399   0.434   0.767
14103WAT      O42550   9.168   8.422   8.020
14103WAT     H142551   9.223   8.411   8.103
14103WAT     H242552   9.086   8.365   8.026
14104WAT      O42553   8.473   0.961   8.383
14104WAT     H142554   8.450   0.876   8.337
14104WAT     H242555   8.545   1.008   8.332
14105WAT      O42556   8.074   8.023   8.420
14105WAT     H142557   8.050   7.965   8.343
14105WAT     H242558   7.998   8.084   8.442
14106WAT      O42559   3.925   2.971   2.019
14106WAT     H142560   4.024   2.973   2.032
14106WAT     H242561   3.900   3.034   1.946
14107WAT      O42562   7.334   9.147   4.798
14107WAT     H142563   7.343   9.090   4.717
14107WAT     H242564   7.243   9.137   4.837
14108WAT      O42565   8.756   3.808   6.374
14108WAT     H142566   8.766   3.895   6.325
14108WAT     H242567   8.684   3.754   6.331
14109WAT      O42568   7.841   7.899   3.165
14109WAT     H142569   7.791   7.850   3.237
14109WAT     H242570   7.898   7.970   3.207
14110WAT      O42571   4.237   1.524   7.902
14110WAT     H142572   4.243   1.616   7.862
14110WAT     H242573   4.256   1.530   8.000
14111WAT      O42574   2.479   0.123   6.180
14111WAT     H142575   2.547   0.088   6.245
14111WAT     H242576   2.399   0.157   6.230
14112WAT      O42577   3.784   1.340   4.151
14112WAT     H142578   3.785   1.376   4.245
14112WAT     H242579   3.877   1.319   4.122
14113WAT      O42580   8.514   1.715   2.142
14113WAT     H142581   8.476   1.661   2.067
14113WAT     H242582   8.499   1.812   2.124
14114WAT      O42583   0.029   7.878   0.877
14114WAT     H142584   0.032   7.951   0.808
14114WAT     H242585  -0.028   7.803   0.844
14115WAT      O42586   7.278   8.871   7.980
14115WAT     H142587   7.241   8.791   8.027
14115WAT     H242588   7.360   8.903   8.028
14116WAT      O42589   5.265   7.287   4.664
14116WAT     H142590   5.210   7.324   4.589
14116WAT     H242591   5.237   7.193   4.681
14117WAT      O42592   3.375   7.667   7.518
14117WAT     H142593   3.418   7.720   7.445
14117WAT     H242594   3.331   7.586   7.478
14118WAT      O42595   4.279   4.188   5.675
14118WAT     H142596   4.332   4.246   5.614
14118WAT     H242597   4.249   4.106   5.625
14119WAT      O42598   7.662   5.737   3.092
14119WAT     H142599   7.723   5.700   3.162
14119WAT     H242600   7.687   5.832   3.073
14120WAT      O42601   2.073   6.885   0.745
14120WAT     H142602   2.088   6.884   0.646
14120WAT     H242603   2.041   6.976   0.772
14121WAT      O42604   4.598   9.629   6.954
14121WAT     H142605   4.673   9.622   6.888
14121WAT     H242606   4.633   9.613   7.046
14122WAT      O42607   9.486   7.070   1.631
14122WAT     H142608   9.464   7.108   1.541
14122WAT     H242609   9.419   7.000   1.655
14123WAT      O42610   6.346   2.466   2.515
14123WAT     H142611   6.317   2.372   2.502
14123WAT     H242612   6.370   2.507   2.427
14124WAT      O42613   0.375   7.508   3.846
14124WAT     H142614   0.293   7.457   3.820
14124WAT     H242615   0.383   7.589   3.788
14125WAT      O42616   7.746   3.889   0.224
14125WAT     H142617   7.691   3.935   0.293
14125WAT     H242618   7.711   3.911   0.133
14126WAT      O42619   5.980   0.906   8.951
14126WAT     H142620   5.912   0.851   9.001
14126WAT     H242621   6.037   0.955   9.016
14127WAT      O42622   5.485   3.768   8.629
14127WAT     H142623   5.528   3.680   8.645
14127WAT     H242624   5.555   3.839   8.625
14128WAT      O42625   1.591   0.875   4.987
14128WAT     H142626   1.538   0.792   5.007
14128WAT     H242627   1.548   0.924   4.911
14129WAT      O42628   3.194   6.228   9.388
14129WAT     H142629   3.152   6.198   9.474
14129WAT     H242630   3.139   6.301   9.348
14130WAT      O42631   2.352   5.554   1.641
14130WAT     H142632   2.254   5.571   1.635
14130WAT     H242633   2.388   5.537   1.549
14131WAT      O42634   9.474   2.462   3.082
14131WAT     H142635   9.477   2.491   2.987
14131WAT     H242636   9.504   2.367   3.089
14132WAT      O42637   2.283   2.993   5.039
14132WAT     H142638   2.199   2.997   5.093
14132WAT     H242639   2.272   2.927   4.965
14133WAT      O42640   1.732   8.838   8.778
14133WAT     H142641   1.792   8.846   8.697
14133WAT     H242642   1.788   8.839   8.861
14134WAT      O42643   3.711   1.748   8.339
14134WAT     H142644   3.763   1.663   8.338
14134WAT     H242645   3.719   1.794   8.251
14135WAT      O42646   6.017   4.393   2.842
14135WAT     H142647   5.946   4.449   2.884
14135WAT     H242648   5.994   4.297   2.852
14136WAT      O42649   4.782   8.442   9.824
14136WAT     H142650   4.796   8.347   9.852
14136WAT     H242651   4.748   8.495   9.901
14137WAT      O42652   3.168   4.373   7.285
14137WAT     H142653   3.248   4.404   7.336
14137WAT     H242654   3.085   4.402   7.333
14138WAT      O42655   0.099   5.995   2.840
14138WAT     H142656   0.181   5.957   2.796
14138WAT     H242657   0.071   6.078   2.792
14139WAT      O42658   1.855   0.231   1.463
14139WAT     H142659   1.782   0.266   1.523
14139WAT     H242660   1.816   0.206   1.374
14140WAT      O42661   1.815   7.815   4.898
14140WAT     H142662   1.725   7.797   4.858
14140WAT     H242663   1.883   7.819   4.825
14141WAT      O42664   8.642   3.183   7.559
14141WAT     H142665   8.561   3.149   7.511
14141WAT     H242666   8.614   3.251   7.627
14142WAT      O42667   3.619   5.320   1.013
14142WAT     H142668   3.658   5.242   0.965
14142WAT     H242669   3.584   5.291   1.102
14143WAT      O42670   5.971   0.015   3.201
14143WAT     H142671   5.936   0.028   3.108
14143WAT     H242672   6.065   0.048   3.206
14144WAT      O42673   4.669   1.706   3.443
14144WAT     H142674   4.595   1.681   3.505
14144WAT     H242675   4.636   1.776   3.379
14145WAT      O42676   1.053   7.743   3.352
14145WAT     H142677   0.981   7.810   3.368
14145WAT     H242678   1.141   7.781   3.377
14146WAT      O42679   3.809   5.466   3.893
14146WAT     H142680   3.739   5.435   3.828
14146WAT     H242681   3.782   5.441   3.986
14147WAT      O42682   8.035   6.092   9.023
14147WAT     H142683   7.972   6.024   9.062
14147WAT     H242684   8.114   6.044   8.983
14148WAT      O42685   4.648   8.121   1.009
14148WAT     H142686   4.590   8.050   0.969
14148WAT     H242687   4.698   8.167   0.936
14149WAT      O42688   7.287   1.271   5.073
14149WAT     H142689   7.230   1.352   5.069
14149WAT     H242690   7.360   1.285   5.140
14150WAT      O42691   5.795   8.866   5.890
14150WAT     H142692   5.884   8.838   5.855
14150WAT     H242693   5.745   8.785   5.920
14151WAT      O42694   7.185   9.429   9.790
14151WAT     H142695   7.106   9.488   9.778
14151WAT     H242696   7.162   9.355   9.854
14152WAT      O42697   5.912   3.546   7.810
14152WAT     H142698   5.853   3.570   7.887
14152WAT     H242699   5.859   3.492   7.744
14153WAT      O42700   7.677   8.697   1.799
14153WAT     H142701   7.721   8.755   1.730
14153WAT     H242702   7.643   8.754   1.873
14154WAT      O42703   9.189   9.574   4.124
14154WAT     H142704   9.267   9.576   4.062
14154WAT     H242705   9.211   9.629   4.206
14155WAT      O42706   9.519   9.714   9.100
14155WAT     H142707   9.488   9.673   9.014
14155WAT     H242708   9.617   9.700   9.110
14156WAT      O42709   2.618   0.406   5.417
14156WAT     H142710   2.692   0.452   5.368
14156WAT     H242711   2.531   0.447   5.391
14157WAT      O42712   9.135   3.589   2.489
14157WAT     H142713   9.218   3.641   2.467
14157WAT     H242714   9.150   3.492   2.472
14158WAT      O42715   0.559   3.429   6.979
14158WAT     H142716   0.646   3.456   6.938
14158WAT     H242717   0.490   3.418   6.907
14159WAT      O42718   2.691   2.827   3.562
14159WAT     H142719   2.783   2.867   3.574
14159WAT     H242720   2.642   2.831   3.649
14160WAT      O42721   3.789   4.881   0.990
14160WAT     H142722   3.733   4.858   0.910
14160WAT     H242723   3.877   4.833   0.984
14161WAT      O42724   5.834   9.455   4.610
14161WAT     H142725   5.870   9.395   4.682
14161WAT     H242726   5.900   9.460   4.534
14162WAT      O42727   8.161   6.926   8.778
14162WAT     H142728   8.155   6.998   8.709
14162WAT     H242729   8.207   6.846   8.738
14163WAT      O42730   6.399   2.970   1.084
14163WAT     H142731   6.421   2.938   1.176
14163WAT     H242732   6.304   2.945   1.062
14164WAT      O42733   4.779   6.383   7.723
14164WAT     H142734   4.812   6.404   7.815
14164WAT     H242735   4.825   6.442   7.657
14165WAT      O42736   9.474   2.169   1.753
14165WAT     H142737   9.557   2.223   1.768
14165WAT     H242738   9.401   2.229   1.723
14166WAT      O42739   2.370   9.230   2.055
14166WAT     H142740   2.282   9.218   2.102
14166WAT     H242741   2.438   9.170   2.097
14167WAT      O42742   1.758   8.238   8.615
14167WAT     H142743   1.748   8.217   8.518
14167WAT     H242744   1.692   8.310   8.640
14168WAT      O42745   3.245   4.440   9.152
14168WAT     H142746   3.147   4.458   9.152
14168WAT     H242747   3.295   4.526   9.157
14169WAT      O42748   4.076   5.538   9.022
14169WAT     H142749   3.984   5.565   8.994
14169WAT     H242750   4.141   5.563   8.951
14170WAT      O42751   7.785   0.382   5.711
14170WAT     H142752   7.716   0.338   5.769
14170WAT     H242753   7.871   0.331   5.718
14171WAT      O42754   2.276   5.202   1.744
14171WAT     H142755   2.359   5.149   1.763
14171WAT     H242756   2.222   5.154   1.675
14172WAT      O42757   6.431   9.624   6.043
14172WAT     H142758   6.432   9.547   5.980
14172WAT     H242759   6.440   9.709   5.991
14173WAT      O42760   0.235   1.232   4.696
14173WAT     H142761   0.234   1.301   4.769
14173WAT     H242762   0.326   1.189   4.692
14174WAT      O42763   5.471   1.249   9.341
14174WAT     H142764   5.429   1.189   9.272
14174WAT     H242765   5.418   1.334   9.347
14175WAT      O42766   4.243   3.879   4.378
14175WAT     H142767   4.306   3.931   4.436
14175WAT     H242768   4.288   3.856   4.292
14176WAT      O42769   6.824   0.808   6.609
14176WAT     H142770   6.727   0.787   6.623
14176WAT     H242771   6.843   0.901   6.642
14177WAT      O42772   1.193   3.257   8.148
14177WAT     H142773   1.180   3.254   8.049
14177WAT     H242774   1.291   3.261   8.168
14178WAT      O42775   0.456   5.300   6.232
14178WAT     H142776   0.476   5.204   6.253
14178WAT     H242777   0.375   5.305   6.174
14179WAT      O42778   2.317   3.952   2.995
14179WAT     H142779   2.383   3.910   2.933
14179WAT     H242780   2.333   4.051   3.000
14180WAT      O42781   9.530   8.882   6.775
14180WAT     H142782   9.586   8.861   6.855
14180WAT     H242783   9.566   8.834   6.696
14181WAT      O42784   3.814   9.038   4.676
14181WAT     H142785   3.805   9.138   4.668
14181WAT     H242786   3.842   9.014   4.768
14182WAT      O42787   0.558   8.331   3.639
14182WAT     H142788   0.589   8.314   3.732
14182WAT     H242789   0.588   8.423   3.610
14183WAT      O42790   8.026   4.896   1.123
14183WAT     H142791   8.114   4.880   1.079
14183WAT     H242792   7.963   4.823   1.098
14184WAT      O42793   9.780   7.736   9.475
14184WAT     H142794   9.769   7.830   9.507
14184WAT     H242795   9.830   7.735   9.388
14185WAT      O42796   0.278   4.745   0.243
14185WAT     H142797   0.285   4.832   0.292
14185WAT     H242798   0.369   4.707   0.228
14186WAT      O42799   3.439   3.890   1.990
14186WAT     H142800   3.370   3.876   2.061
14186WAT     H242801   3.429   3.821   1.919
14187WAT      O42802   1.582   3.947   5.998
14187WAT     H142803   1.540   3.885   5.932
14187WAT     H242804   1.675   3.917   6.018
14188WAT      O42805   5.373   2.731   5.041
14188WAT     H142806   5.400   2.640   5.010
14188WAT     H242807   5.387   2.797   4.967
14189WAT      O42808   4.021   3.431   0.085
14189WAT     H142809   3.957   3.402   0.013
14189WAT     H242810   4.115   3.421   0.052
14190WAT      O42811   8.774   9.732   1.767
14190WAT     H142812   8.694   9.673   1.756
14190WAT     H242813   8.745   9.820   1.806
14191WAT      O42814   8.783   2.326   8.725
14191WAT     H142815   8.686   2.347   8.715
14191WAT     H242816   8.793   2.240   8.776
14192WAT      O42817   0.795   7.484   5.815
14192WAT     H142818   0.702   7.451   5.830
14192WAT     H242819   0.793   7.581   5.790
14193WAT      O42820   6.222   6.674   6.452
14193WAT     H142821   6.206   6.728   6.370
14193WAT     H242822   6.186   6.723   6.532
14194WAT      O42823   7.076   5.173   3.449
14194WAT     H142824   7.056   5.269   3.429
14194WAT     H242825   7.153   5.167   3.513
14195WAT      O42826   6.348   7.689   0.172
14195WAT     H142827   6.258   7.660   0.138
14195WAT     H242828   6.406   7.715   0.095
14196WAT      O42829   1.037   8.018   1.018
14196WAT     H142830   1.058   8.067   0.933
14196WAT     H242831   0.939   8.025   1.036
14197WAT      O42832   7.615   3.751   4.182
14197WAT     H142833   7.524   3.732   4.144
14197WAT     H242834   7.619   3.721   4.277
14198WAT      O42835   8.327   6.732   9.394
14198WAT     H142836   8.339   6.831   9.404
14198WAT     H242837   8.246   6.714   9.337
14199WAT      O42838   1.377   7.353   8.632
14199WAT     H142839   1.464   7.338   8.677
14199WAT     H242840   1.391   7.360   8.533
14200WAT      O42841   8.820   2.298   1.617
14200WAT     H142842   8.845   2.395   1.624
14200WAT     H242843   8.832   2.254   1.706
14201WAT      O42844   4.336   0.285   4.836
14201WAT     H142845   4.303   0.193   4.813
14201WAT     H242846   4.436   0.287   4.828
14202WAT      O42847   1.202   2.335   5.016
14202WAT     H142848   1.110   2.374   5.024
14202WAT     H242849   1.208   2.281   4.933
14203WAT      O42850   5.399   3.742   3.517
14203WAT     H142851   5.352   3.698   3.440
14203WAT     H242852   5.497   3.741   3.500
14204WAT      O42853   8.281   6.460   3.698
14204WAT     H142854   8.254   6.555   3.682
14204WAT     H242855   8.209   6.413   3.750
14205WAT      O42856   6.195   6.183   1.771
14205WAT     H142857   6.181   6.097   1.722
14205WAT     H242858   6.201   6.259   1.706
14206WAT      O42859   6.818   2.028   8.228
14206WAT     H142860   6.745   2.091   8.254
14206WAT     H242861   6.821   1.951   8.291
14207WAT      O42862   9.152   4.963   2.213
14207WAT     H142863   9.141   4.884   2.153
14207WAT     H242864   9.149   5.047   2.159
14208WAT      O42865   5.618   6.645   2.296
14208WAT     H142866   5.576   6.558   2.272
14208WAT     H242867   5.564   6.720   2.258
14209WAT      O42868   0.960   1.064   0.633
14209WAT     H142869   1.038   1.127   0.635
14209WAT     H242870   0.919   1.059   0.723
14210WAT      O42871   8.020   4.068   2.163
14210WAT     H142872   7.966   4.017   2.097
14210WAT     H242873   8.023   4.164   2.136
14211WAT      O42874   3.358   9.001   8.385
14211WAT     H142875   3.426   9.048   8.328
14211WAT     H242876   3.405   8.947   8.455
14212WAT      O42877   8.588   5.175   7.794
14212WAT     H142878   8.685   5.148   7.800
14212WAT     H242879   8.547   5.133   7.713
14213WAT      O42880   6.593   0.265   2.057
14213WAT     H142881   6.580   0.168   2.076
14213WAT     H242882   6.577   0.318   2.140
14214WAT      O42883   1.839   0.387   5.199
14214WAT     H142884   1.802   0.373   5.291
14214WAT     H242885   1.917   0.326   5.185
14215WAT      O42886   2.088   5.627   4.753
14215WAT     H142887   2.013   5.653   4.814
14215WAT     H242888   2.157   5.700   4.752
14216WAT      O42889   1.129   1.858   2.672
14216WAT     H142890   1.057   1.866   2.602
14216WAT     H242891   1.090   1.878   2.762
14217WAT      O42892   4.578   8.321   4.294
14217WAT     H142893   4.608   8.320   4.199
14217WAT     H242894   4.481   8.296   4.298
14218WAT      O42895   2.587   0.183   2.691
14218WAT     H142896   2.542   0.114   2.748
14218WAT     H242897   2.580   0.272   2.735
14219WAT      O42898   7.495   9.759   5.667
14219WAT     H142899   7.515   9.686   5.602
14219WAT     H242900   7.575   9.775   5.725
14220WAT      O42901   7.341   7.996   9.095
14220WAT     H142902   7.287   8.063   9.044
14220WAT     H242903   7.400   7.945   9.032
14221WAT      O42904   3.519   4.484   6.531
14221WAT     H142905   3.537   4.525   6.442
14221WAT     H242906   3.421   4.487   6.551
14222WAT      O42907   6.090   3.577   5.535
14222WAT     H142908   6.110   3.674   5.523
14222WAT     H242909   6.031   3.546   5.460
14223WAT      O42910   4.740   3.321   8.334
14223WAT     H142911   4.770   3.412   8.363
14223WAT     H242912   4.741   3.259   8.412
14224WAT      O42913   2.173   5.673   7.875
14224WAT     H142914   2.212   5.763   7.894
14224WAT     H242915   2.221   5.632   7.797
14225WAT      O42916   7.400   7.685   5.169
14225WAT     H142917   7.312   7.731   5.177
14225WAT     H242918   7.470   7.751   5.143
14226WAT      O42919   3.609   0.871   1.458
14226WAT     H142920   3.673   0.927   1.405
14226WAT     H242921   3.567   0.927   1.529
14227WAT      O42922   6.488   8.486   0.895
14227WAT     H142923   6.462   8.451   0.806
14227WAT     H242924   6.539   8.417   0.946
14228WAT      O42925   5.035   0.335   5.523
14228WAT     H142926   5.085   0.422   5.519
14228WAT     H242927   4.963   0.336   5.454
14229WAT      O42928   7.433   4.344   4.763
14229WAT     H142929   7.351   4.400   4.752
14229WAT     H242930   7.419   4.279   4.837
14230WAT      O42931   8.685   3.968   9.829
14230WAT     H142932   8.607   4.002   9.777
14230WAT     H242933   8.727   4.045   9.878
14231WAT      O42934   8.139   0.336   7.422
14231WAT     H142935   8.233   0.328   7.456
14231WAT     H242936   8.112   0.249   7.380
14232WAT      O42937   8.110   0.833   7.896
14232WAT     H142938   8.053   0.847   7.978
14232WAT     H242939   8.205   0.822   7.923
14233WAT      O42940   2.705   7.694   2.044
14233WAT     H142941   2.669   7.784   2.070
14233WAT     H242942   2.802   7.690   2.070
14234WAT      O42943   1.180   9.289   7.582
14234WAT     H142944   1.120   9.219   7.620
14234WAT     H242945   1.135   9.378   7.587
14235WAT      O42946   5.151   3.883   3.196
14235WAT     H142947   5.235   3.831   3.212
14235WAT     H242948   5.087   3.828   3.143
14236WAT      O42949   1.487   2.099   4.357
14236WAT     H142950   1.496   2.046   4.442
14236WAT     H242951   1.454   2.039   4.284
14237WAT      O42952   0.724   2.821   9.681
14237WAT     H142953   0.757   2.848   9.591
14237WAT     H242954   0.795   2.768   9.728
14238WAT      O42955   2.713   5.272   5.131
14238WAT     H142956   2.746   5.346   5.073
14238WAT     H242957   2.620   5.294   5.163
14239WAT      O42958   1.875   3.218   4.966
14239WAT     H142959   1.840   3.129   4.937
14239WAT     H242960   1.799   3.274   5.000
14240WAT      O42961   5.016   3.214   3.592
14240WAT     H142962   4.943   3.150   3.617
14240WAT     H242963   4.982   3.308   3.601
14241WAT      O42964   7.524   7.998   0.262
14241WAT     H142965   7.592   7.993   0.335
14241WAT     H242966   7.555   7.943   0.184
14242WAT      O42967   1.963   4.728   6.914
14242WAT     H142968   2.012   4.785   6.980
14242WAT     H242969   1.998   4.635   6.918
14243WAT      O42970   1.582   4.255   8.449
14243WAT     H142971   1.590   4.157   8.432
14243WAT     H242972   1.485   4.280   8.457
14244WAT      O42973   7.655   1.226   0.029
14244WAT     H142974   7.738   1.279   0.045
14244WAT     H242975   7.677   1.145  -0.025
14245WAT      O42976   8.641   5.983   4.986
14245WAT     H142977   8.707   6.054   4.960
14245WAT     H242978   8.591   5.953   4.905
14246WAT      O42979   9.846   6.517   6.428
14246WAT     H142980   9.774   6.448   6.426
14246WAT     H242981   9.928   6.477   6.470
14247WAT      O42982   1.544   7.077   9.192
14247WAT     H142983   1.454   7.048   9.159
14247WAT     H242984   1.545   7.077   9.292
14248WAT      O42985   8.624   5.764   7.854
14248WAT     H142986   8.670   5.676   7.867
14248WAT     H242987   8.612   5.808   7.943
14249WAT      O42988   8.673   5.500   0.977
14249WAT     H142989   8.659   5.556   1.059
14249WAT     H242990   8.739   5.546   0.917
14250WAT      O42991   3.802   3.044   9.861
14250WAT     H142992   3.863   3.062   9.938
14250WAT     H242993   3.709   3.029   9.896
14251WAT      O42994   3.561   6.652   6.569
14251WAT     H142995   3.513   6.576   6.613
14251WAT     H242996   3.659   6.635   6.573
14252WAT      O42997   3.249   5.108   8.534
14252WAT     H142998   3.263   5.190   8.590
14252WAT     H242999   3.285   5.028   8.583
14253WAT      O43000   9.802   8.550   3.966
14253WAT     H143001   9.784   8.457   3.996
14253WAT     H243002   9.821   8.608   4.045
14254WAT      O43003   3.044   8.578   3.065
14254WAT     H143004   3.002   8.490   3.041
14254WAT     H243005   2.985   8.626   3.130
14255WAT      O43006   4.371   8.749   4.079
14255WAT     H143007   4.447   8.696   4.116
14255WAT     H243008   4.341   8.710   3.992
14256WAT      O43009   5.352   3.150   1.154
14256WAT     H143010   5.311   3.215   1.090
14256WAT     H243011   5.337   3.057   1.120
14257WAT      O43012   5.086   3.756   6.354
14257WAT     H143013   4.989   3.764   6.378
14257WAT     H243014   5.096   3.688   6.281
14258WAT      O43015   7.833   1.955   4.895
14258WAT     H143016   7.870   1.957   4.802
14258WAT     H243017   7.747   1.904   4.896
14259WAT      O43018   5.979   5.508   8.110
14259WAT     H143019   6.063   5.470   8.071
14259WAT     H243020   5.981   5.496   8.209
14260WAT      O43021   4.902   2.748   3.116
14260WAT     H143022   4.930   2.659   3.152
14260WAT     H243023   4.842   2.735   3.038
14261WAT      O43024   9.164   0.652   1.503
14261WAT     H143025   9.190   0.666   1.408
14261WAT     H243026   9.064   0.640   1.509
14262WAT      O43027   9.594   5.672   2.406
14262WAT     H143028   9.637   5.605   2.466
14262WAT     H243029   9.595   5.638   2.312
14263WAT      O43030   0.746   7.331   1.525
14263WAT     H143031   0.689   7.305   1.448
14263WAT     H243032   0.730   7.427   1.548
14264WAT      O43033   2.647   2.257   0.507
14264WAT     H143034   2.634   2.167   0.464
14264WAT     H243035   2.668   2.245   0.604
14265WAT      O43036   2.627   5.061   8.697
14265WAT     H143037   2.723   5.040   8.679
14265WAT     H243038   2.572   5.040   8.616
14266WAT      O43039   8.503   1.359   2.133
14266WAT     H143040   8.596   1.352   2.098
14266WAT     H243041   8.504   1.354   2.233
14267WAT      O43042   6.333   3.115   5.849
14267WAT     H143043   6.363   3.066   5.767
14267WAT     H243044   6.309   3.049   5.920
14268WAT      O43045   0.010   9.670   6.069
14268WAT     H143046  -0.075   9.722   6.076
14268WAT     H243047   0.075   9.705   6.137
14269WAT      O43048   6.096   7.971   5.645
14269WAT     H143049   6.192   7.942   5.638
14269WAT     H243050   6.092   8.071   5.644
14270WAT      O43051   1.701   4.656   8.025
14270WAT     H143052   1.616   4.709   8.017
14270WAT     H243053   1.756   4.693   8.100
14271WAT      O43054   1.731   0.945   9.852
14271WAT     H143055   1.633   0.931   9.838
14271WAT     H243056   1.780   0.929   9.766
14272WAT      O43057   2.463   9.179   1.206
14272WAT     H143058   2.394   9.128   1.154
14272WAT     H243059   2.443   9.277   1.200
14273WAT      O43060   7.995   1.051   9.004
14273WAT     H143061   8.043   0.972   9.040
14273WAT     H243062   7.912   1.021   8.957
14274WAT      O43063   3.285   6.731   7.279
14274WAT     H143064   3.292   6.817   7.229
14274WAT     H243065   3.255   6.658   7.216
14275WAT      O43066   4.030   3.808   0.899
14275WAT     H143067   4.087   3.808   0.817
14275WAT     H243068   4.001   3.901   0.919
14276WAT      O43069   0.610   1.976   3.117
14276WAT     H143070   0.601   1.977   3.017
14276WAT     H243071   0.537   2.032   3.157
14277WAT      O43072   3.549   4.311   0.921
14277WAT     H143073   3.576   4.404   0.900
14277WAT     H243074   3.583   4.249   0.850
14278WAT      O43075   7.135   4.098   1.403
14278WAT     H143076   7.212   4.038   1.381
14278WAT     H243077   7.165   4.193   1.398
14279WAT      O43078   5.624   1.026   5.585
14279WAT     H143079   5.546   1.088   5.583
14279WAT     H243080   5.654   1.012   5.680
14280WAT      O43081   2.344   2.271   9.148
14280WAT     H143082   2.273   2.211   9.187
14280WAT     H243083   2.428   2.219   9.135
14281WAT      O43084   6.251   7.581   7.069
14281WAT     H143085   6.303   7.527   7.004
14281WAT     H243086   6.214   7.522   7.141
14282WAT      O43087   2.607   5.255   7.512
14282WAT     H143088   2.641   5.178   7.565
14282WAT     H243089   2.584   5.225   7.420
14283WAT      O43090   3.131   6.122   2.743
14283WAT     H143091   3.140   6.102   2.840
14283WAT     H243092   3.044   6.087   2.709
14284WAT      O43093   2.507   5.361   4.560
14284WAT     H143094   2.458   5.435   4.607
14284WAT     H243095   2.598   5.391   4.533
14285WAT      O43096   2.067   3.538   6.103
14285WAT     H143097   2.148   3.479   6.112
14285WAT     H243098   2.003   3.497   6.038
14286WAT      O43099   8.911   7.684   7.514
14286WAT     H143100   8.988   7.737   7.479
14286WAT     H243101   8.880   7.620   7.443
14287WAT      O43102   5.762   6.749   7.392
14287WAT     H143103   5.853   6.754   7.434
14287WAT     H243104   5.771   6.721   7.297
14288WAT      O43105   5.168   1.470   8.996
14288WAT     H143106   5.073   1.502   8.991
14288WAT     H243107   5.230   1.548   8.989
14289WAT      O43108   7.864   6.261   3.087
14289WAT     H143109   7.806   6.226   3.161
14289WAT     H243110   7.917   6.185   3.048
14290WAT      O43111   1.800   0.429   4.212
14290WAT     H143112   1.717   0.479   4.187
14290WAT     H243113   1.805   0.422   4.312
14291WAT      O43114   4.535   6.164   7.807
14291WAT     H143115   4.529   6.170   7.907
14291WAT     H243116   4.601   6.092   7.782
14292WAT      O43117   9.100   5.383   0.798
14292WAT     H143118   9.119   5.348   0.890
14292WAT     H243119   9.130   5.316   0.730
14293WAT      O43120   0.927   6.286   7.340
14293WAT     H143121   0.901   6.369   7.388
14293WAT     H243122   0.847   6.245   7.297
14294WAT      O43123   2.356   1.892   1.857
14294WAT     H143124   2.409   1.913   1.939
14294WAT     H243125   2.318   1.977   1.820
14295WAT      O43126   9.702   7.364   9.382
14295WAT     H143127   9.764   7.430   9.340
14295WAT     H243128   9.750   7.278   9.398
14296WAT      O43129   1.858   0.238   3.773
14296WAT     H143130   1.934   0.297   3.746
14296WAT     H243131   1.894   0.150   3.806
14297WAT      O43132   6.200   8.146   2.167
14297WAT     H143133   6.233   8.237   2.143
14297WAT     H243134   6.219   8.082   2.093
14298WAT      O43135   3.671   1.147   4.435
14298WAT     H143136   3.690   1.244   4.448
14298WAT     H243137   3.585   1.137   4.386
14299WAT      O43138   7.617   5.234   2.357
14299WAT     H143139   7.640   5.329   2.340
14299WAT     H243140   7.568   5.196   2.278
14300WAT      O43141   8.301   1.859   3.688
14300WAT     H143142   8.212   1.893   3.718
14300WAT     H243143   8.295   1.760   3.673
14301WAT      O43144   2.888   5.058   0.815
14301WAT     H143145   2.816   4.990   0.823
14301WAT     H243146   2.941   5.042   0.732
14302WAT      O43147   2.545   2.098   9.426
14302WAT     H143148   2.512   2.025   9.365
14302WAT     H243149   2.506   2.086   9.517
14303WAT      O43150   2.845   0.534   5.268
14303WAT     H143151   2.776   0.532   5.195
14303WAT     H243152   2.872   0.629   5.285
14304WAT      O43153   9.762   9.449   1.688
14304WAT     H143154   9.687   9.392   1.724
14304WAT     H243155   9.817   9.483   1.764
14305WAT      O43156   2.697   1.918   4.772
14305WAT     H143157   2.726   2.000   4.822
14305WAT     H243158   2.734   1.837   4.818
14306WAT      O43159   9.711   1.640   9.162
14306WAT     H143160   9.691   1.555   9.211
14306WAT     H243161   9.783   1.624   9.095
14307WAT      O43162   9.474   7.246   8.560
14307WAT     H143163   9.380   7.238   8.592
14307WAT     H243164   9.484   7.331   8.507
14308WAT      O43165   3.628   6.518   9.729
14308WAT     H143166   3.573   6.471   9.798
14308WAT     H243167   3.658   6.606   9.764
14309WAT      O43168   5.049   9.694   4.665
14309WAT     H143169   5.100   9.687   4.751
14309WAT     H243170   5.108   9.732   4.594
14310WAT      O43171   2.346   9.405   6.476
14310WAT     H143172   2.379   9.495   6.503
14310WAT     H243173   2.333   9.348   6.558
14311WAT      O43174   7.145   1.243   7.179
14311WAT     H143175   7.128   1.306   7.254
14311WAT     H243176   7.103   1.278   7.095
14312WAT      O43177   6.416   6.937   8.643
14312WAT     H143178   6.335   6.884   8.670
14312WAT     H243179   6.436   6.919   8.547
14313WAT      O43180   0.818   9.238   0.965
14313WAT     H143181   0.811   9.149   1.012
14313WAT     H243182   0.830   9.310   1.033
14314WAT      O43183   7.395   4.139   4.978
14314WAT     H143184   7.424   4.190   5.059
14314WAT     H243185   7.438   4.048   4.980
14315WAT      O43186   5.152   7.985   5.619
14315WAT     H143187   5.089   7.943   5.685
14315WAT     H243188   5.245   7.955   5.638
14316WAT      O43189   0.002   5.529   6.579
14316WAT     H143190  -0.009   5.493   6.672
14316WAT     H243191   0.063   5.608   6.581
14317WAT      O43192   4.236   0.888   7.895
14317WAT     H143193   4.276   0.834   7.969
14317WAT     H243194   4.203   0.827   7.823
14318WAT      O43195   3.701   9.035   2.501
14318WAT     H143196   3.609   8.997   2.498
14318WAT     H243197   3.744   9.012   2.588
14319WAT      O43198   0.063   4.447   1.900
14319WAT     H143199   0.127   4.522   1.880
14319WAT     H243200  -0.007   4.444   1.829
14320WAT      O43201   1.614   8.434   7.989
14320WAT     H143202   1.638   8.421   8.086
14320WAT     H243203   1.661   8.365   7.934
14321WAT      O43204   5.433   0.338   7.652
14321WAT     H143205   5.505   0.407   7.641
14321WAT     H243206   5.346   0.383   7.669
14322WAT      O43207   4.815   0.245   4.197
14322WAT     H143208   4.838   0.176   4.266
14322WAT     H243209   4.776   0.325   4.242
14323WAT      O43210   0.868   2.208   7.787
14323WAT     H143211   0.836   2.139   7.853
14323WAT     H243212   0.869   2.168   7.695
14324WAT      O43213   3.302   6.153   6.457
14324WAT     H143214   3.338   6.222   6.520
14324WAT     H243215   3.233   6.194   6.398
14325WAT      O43216   3.998   2.504   7.552
14325WAT     H143217   3.936   2.524   7.476
14325WAT     H243218   3.963   2.426   7.604
14326WAT      O43219   8.740   7.626   9.170
14326WAT     H143220   8.793   7.605   9.088
14326WAT     H243221   8.668   7.558   9.183
14327WAT      O43222   9.325   0.139   0.086
14327WAT     H143223   9.229   0.114   0.074
14327WAT     H243224   9.365   0.165  -0.002
14328WAT      O43225   9.560   6.931   2.686
14328WAT     H143226   9.461   6.927   2.699
14328WAT     H243227   9.588   6.859   2.622
14329WAT      O43228   4.212   0.728   0.763
14329WAT     H143229   4.189   0.634   0.737
14329WAT     H243230   4.128   0.781   0.775
14330WAT      O43231   0.725   4.250   7.636
14330WAT     H143232   0.630   4.278   7.619
14330WAT     H243233   0.746   4.262   7.733
14331WAT      O43234   3.827   3.818   5.234
14331WAT     H143235   3.790   3.844   5.145
14331WAT     H243236   3.924   3.842   5.238
14332WAT      O43237   9.621   8.138   4.220
14332WAT     H143238   9.542   8.080   4.243
14332WAT     H243239   9.649   8.119   4.126
14333WAT      O43240   1.813   7.893   8.523
14333WAT     H143241   1.730   7.881   8.469
14333WAT     H243242   1.800   7.967   8.589
14334WAT      O43243   2.925   6.330   1.891
14334WAT     H143244   2.917   6.416   1.942
14334WAT     H243245   2.889   6.255   1.946
14335WAT      O43246   9.856   4.881   1.128
14335WAT     H143247   9.811   4.963   1.094
14335WAT     H243248   9.803   4.800   1.101
14336WAT      O43249   7.563   1.011   2.411
14336WAT     H143250   7.577   0.918   2.446
14336WAT     H243251   7.609   1.076   2.471
14337WAT      O43252   3.089   0.347   4.155
14337WAT     H143253   3.075   0.351   4.056
14337WAT     H243254   3.114   0.438   4.189
14338WAT      O43255   8.261   4.920   7.875
14338WAT     H143256   8.322   4.851   7.914
14338WAT     H243257   8.227   4.980   7.947
14339WAT      O43258   3.795   1.928   0.119
14339WAT     H143259   3.891   1.946   0.101
14339WAT     H243260   3.766   1.846   0.068
14340WAT      O43261   5.904   5.003   4.564
14340WAT     H143262   5.947   4.927   4.515
14340WAT     H243263   5.807   4.981   4.581
14341WAT      O43264   2.327   2.349   5.398
14341WAT     H143265   2.400   2.283   5.381
14341WAT     H243266   2.365   2.441   5.397
14342WAT      O43267   7.098   7.767   7.166
14342WAT     H143268   7.077   7.774   7.068
14342WAT     H243269   7.108   7.670   7.190
14343WAT      O43270   5.089   6.282   4.491
14343WAT     H143271   5.112   6.209   4.426
14343WAT     H243272   5.173   6.319   4.530
14344WAT      O43273   8.292   0.063   4.926
14344WAT     H143274   8.208   0.102   4.964
14344WAT     H243275   8.279   0.045   4.829
14345WAT      O43276   9.430   3.169   6.233
14345WAT     H143277   9.424   3.234   6.157
14345WAT     H243278   9.388   3.082   6.205
14346WAT      O43279   4.867   3.720   9.379
14346WAT     H143280   4.878   3.624   9.403
14346WAT     H243281   4.801   3.763   9.440
14347WAT      O43282   0.062   4.055   7.788
14347WAT     H143283  -0.027   4.049   7.834
14347WAT     H243284   0.068   4.141   7.738
14348WAT      O43285   0.254   7.665   1.597
14348WAT     H143286   0.270   7.750   1.648
14348WAT     H243287   0.157   7.656   1.577
14349WAT      O43288   1.286   8.949   8.922
14349WAT     H143289   1.379   8.963   8.886
14349WAT     H243290   1.292   8.907   9.013
14350WAT      O43291   8.151   4.547   7.753
14350WAT     H143292   8.165   4.533   7.655
14350WAT     H243293   8.107   4.466   7.792
14351WAT      O43294   4.946   4.524   3.982
14351WAT     H143295   5.042   4.508   3.959
14351WAT     H243296   4.888   4.487   3.910
14352WAT      O43297   1.599   2.295   0.349
14352WAT     H143298   1.563   2.386   0.328
14352WAT     H243299   1.688   2.304   0.393
14353WAT      O43300   1.966   9.256   5.331
14353WAT     H143301   1.938   9.336   5.276
14353WAT     H243302   1.897   9.185   5.323
14354WAT      O43303   5.197   9.640   3.742
14354WAT     H143304   5.205   9.607   3.648
14354WAT     H243305   5.242   9.575   3.804
14355WAT      O43306   1.408   5.243   7.949
14355WAT     H143307   1.371   5.194   8.028
14355WAT     H243308   1.357   5.328   7.935
14356WAT      O43309   8.493   1.808   5.719
14356WAT     H143310   8.501   1.791   5.621
14356WAT     H243311   8.468   1.904   5.734
14357WAT      O43312   6.707   7.039   4.539
14357WAT     H143313   6.789   7.065   4.589
14357WAT     H243314   6.645   7.117   4.533
14358WAT      O43315   5.726   2.065   5.193
14358WAT     H143316   5.782   2.142   5.222
14358WAT     H243317   5.634   2.075   5.230
14359WAT      O43318   7.131   2.072   4.846
14359WAT     H143319   7.051   2.023   4.810
14359WAT     H243320   7.107   2.167   4.863
14360WAT      O43321   2.367   2.947   8.367
14360WAT     H143322   2.276   2.921   8.398
14360WAT     H243323   2.434   2.924   8.438
14361WAT      O43324   3.432   4.039   5.052
14361WAT     H143325   3.363   4.076   5.114
14361WAT     H243326   3.428   3.940   5.051
14362WAT      O43327   7.048   7.000   8.758
14362WAT     H143328   6.960   7.047   8.764
14362WAT     H243329   7.119   7.065   8.733
14363WAT      O43330   0.503   2.495   5.894
14363WAT     H143331   0.582   2.545   5.929
14363WAT     H243332   0.444   2.469   5.971
14364WAT      O43333   3.689   8.902   0.294
14364WAT     H143334   3.776   8.879   0.251
14364WAT     H243335   3.636   8.819   0.310
14365WAT      O43336   4.929   0.528   3.092
14365WAT     H143337   5.007   0.472   3.120
14365WAT     H243338   4.856   0.468   3.058
14366WAT      O43339   3.314   2.539   5.371
14366WAT     H143340   3.334   2.601   5.294
14366WAT     H243341   3.218   2.546   5.396
14367WAT      O43342   0.327   0.207   6.887
14367WAT     H143343   0.373   0.120   6.903
14367WAT     H243344   0.393   0.274   6.852
14368WAT      O43345   0.060   1.916   9.877
14368WAT     H143346   0.065   2.013   9.851
14368WAT     H243347   0.152   1.882   9.894
14369WAT      O43348   3.888   4.762   0.243
14369WAT     H143349   3.801   4.737   0.285
14369WAT     H243350   3.874   4.839   0.181
14370WAT      O43351   5.904   7.724   8.991
14370WAT     H143352   5.908   7.649   8.925
14370WAT     H243353   5.822   7.714   9.047
14371WAT      O43354   5.776   2.717   3.454
14371WAT     H143355   5.810   2.769   3.375
14371WAT     H243356   5.822   2.750   3.537
14372WAT      O43357   7.166   8.389   7.277
14372WAT     H143358   7.173   8.294   7.308
14372WAT     H243359   7.175   8.450   7.355
14373WAT      O43360   0.008   6.475   2.703
14373WAT     H143361  -0.054   6.496   2.778
14373WAT     H243362  -0.045   6.451   2.621
14374WAT      O43363   8.982   9.724   5.412
14374WAT     H143364   8.961   9.645   5.469
14374WAT     H243365   9.046   9.698   5.340
14375WAT      O43366   3.010   5.475   7.696
14375WAT     H143367   3.033   5.407   7.766
14375WAT     H243368   3.094   5.516   7.661
14376WAT      O43369   7.476   4.879   2.490
14376WAT     H143370   7.478   4.816   2.413
14376WAT     H243371   7.569   4.888   2.528
14377WAT      O43372   1.467   1.954   5.677
14377WAT     H143373   1.542   1.911   5.629
14377WAT     H243374   1.388   1.893   5.678
14378WAT      O43375   2.002   2.394   8.903
14378WAT     H143376   1.938   2.334   8.951
14378WAT     H243377   2.033   2.466   8.966
14379WAT      O43378   2.123   8.860   2.597
14379WAT     H143379   2.026   8.849   2.615
14379WAT     H243380   2.144   8.828   2.505
14380WAT      O43381   9.785   1.532   5.607
14380WAT     H143382   9.741   1.509   5.694
14380WAT     H243383   9.769   1.458   5.541
14381WAT      O43384   5.949   8.437   7.908
14381WAT     H143385   6.042   8.446   7.944
14381WAT     H243386   5.896   8.518   7.932
14382WAT      O43387   4.876   2.845   9.095
14382WAT     H143388   4.859   2.886   9.185
14382WAT     H243389   4.886   2.917   9.027
14383WAT      O43390   2.161   2.181   5.561
14383WAT     H143391   2.065   2.196   5.584
14383WAT     H243392   2.195   2.257   5.506
14384WAT      O43393   7.562   0.502   0.462
14384WAT     H143394   7.476   0.451   0.469
14384WAT     H243395   7.577   0.528   0.366
14385WAT      O43396   8.559   4.753   1.073
14385WAT     H143397   8.633   4.693   1.103
14385WAT     H243398   8.590   4.810   0.997
14386WAT      O43399   5.931   5.655   0.637
14386WAT     H143400   5.915   5.679   0.732
14386WAT     H243401   6.020   5.611   0.627
14387WAT      O43402   1.813   0.013   7.877
14387WAT     H143403   1.817   0.092   7.939
14387WAT     H243404   1.898  -0.038   7.885
14388WAT      O43405   3.057   9.352   4.685
14388WAT     H143406   3.034   9.265   4.728
14388WAT     H243407   3.037   9.427   4.749
14389WAT      O43408   2.191   8.678   1.121
14389WAT     H143409   2.260   8.619   1.163
14389WAT     H243410   2.214   8.773   1.140
14390WAT      O43411   0.923   0.132   3.438
14390WAT     H143412   0.859   0.093   3.372
14390WAT     H243413   0.938   0.067   3.512
14391WAT      O43414   5.646   3.388   4.878
14391WAT     H143415   5.687   3.427   4.795
14391WAT     H243416   5.643   3.459   4.949
14392WAT      O43417   2.255   9.209   0.720
14392WAT     H143418   2.353   9.222   0.712
14392WAT     H243419   2.208   9.271   0.657
14393WAT      O43420   5.852   0.082   2.631
14393WAT     H143421   5.787   0.026   2.581
14393WAT     H243422   5.819   0.177   2.634
14394WAT      O43423   9.698   4.436   2.803
14394WAT     H143424   9.669   4.410   2.711
14394WAT     H243425   9.786   4.483   2.798
14395WAT      O43426   8.425   5.925   5.162
14395WAT     H143427   8.521   5.926   5.133
14395WAT     H243428   8.370   5.978   5.098
14396WAT      O43429   3.477   1.421   8.626
14396WAT     H143430   3.404   1.450   8.688
14396WAT     H243431   3.471   1.474   8.542
14397WAT      O43432   8.306   2.135   8.226
14397WAT     H143433   8.275   2.061   8.166
14397WAT     H243434   8.404   2.148   8.214
14398WAT      O43435   0.783   3.832   8.093
14398WAT     H143436   0.689   3.860   8.074
14398WAT     H243437   0.802   3.845   8.191
14399WAT      O43438   8.808   8.139   6.352
14399WAT     H143439   8.905   8.118   6.344
14399WAT     H243440   8.795   8.238   6.349
14400WAT      O43441   4.351   0.110   2.714
14400WAT     H143442   4.331   0.020   2.676
14400WAT     H243443   4.292   0.178   2.670
14401WAT      O43444   5.978   3.827   3.914
14401WAT     H143445   6.043   3.816   3.989
14401WAT     H243446   5.966   3.740   3.867
14402WAT      O43447   2.929   4.455   5.176
14402WAT     H143448   2.969   4.388   5.115
14402WAT     H243449   2.841   4.486   5.139
14403WAT      O43450   1.625   5.408   0.284
14403WAT     H143451   1.644   5.437   0.190
14403WAT     H243452   1.711   5.403   0.336
14404WAT      O43453   7.510   5.800   4.973
14404WAT     H143454   7.518   5.731   4.901
14404WAT     H243455   7.601   5.822   5.009
14405WAT      O43456   3.046   5.799   8.990
14405WAT     H143457   3.047   5.829   9.085
14405WAT     H243458   3.084   5.706   8.984
14406WAT      O43459   5.147   2.020   9.404
14406WAT     H143460   5.201   1.936   9.409
14406WAT     H243461   5.209   2.099   9.402
14407WAT      O43462   9.430   8.917   3.045
14407WAT     H143463   9.352   8.902   2.985
14407WAT     H243464   9.422   9.008   3.087
14408WAT      O43465   9.334   2.153   4.726
14408WAT     H143466   9.256   2.215   4.721
14408WAT     H243467   9.415   2.204   4.754
14409WAT      O43468   3.375   3.580   0.585
14409WAT     H143469   3.312   3.656   0.602
14409WAT     H243470   3.334   3.518   0.518
14410WAT      O43471   8.594   0.317   0.285
14410WAT     H143472   8.614   0.228   0.325
14410WAT     H243473   8.588   0.386   0.358
14411WAT      O43474   7.310   3.436   7.306
14411WAT     H143475   7.273   3.529   7.308
14411WAT     H243476   7.316   3.405   7.211
14412WAT      O43477   4.972   0.265   2.458
14412WAT     H143478   5.016   0.235   2.542
14412WAT     H243479   4.998   0.205   2.383
14413WAT      O43480   4.246   6.848   8.063
14413WAT     H143481   4.309   6.804   7.999
14413WAT     H243482   4.250   6.802   8.152
14414WAT      O43483   4.872   4.509   1.979
14414WAT     H143484   4.790   4.456   1.955
14414WAT     H243485   4.931   4.454   2.038
14415WAT      O43486   6.542   0.731   8.055
14415WAT     H143487   6.582   0.668   8.122
14415WAT     H243488   6.499   0.807   8.103
14416WAT      O43489   8.189   4.122   4.679
14416WAT     H143490   8.159   4.123   4.774
14416WAT     H243491   8.232   4.209   4.656
14417WAT      O43492   5.659   7.916   1.043
14417WAT     H143493   5.641   7.822   1.072
14417WAT     H243494   5.757   7.933   1.043
14418WAT      O43495   5.499   2.257   4.907
14418WAT     H143496   5.453   2.171   4.931
14418WAT     H243497   5.598   2.242   4.905
14419WAT      O43498   6.991   7.160   8.238
14419WAT     H143499   7.036   7.114   8.162
14419WAT     H243500   7.059   7.181   8.309
14420WAT      O43501   1.472   4.995   8.607
14420WAT     H143502   1.406   4.921   8.596
14420WAT     H243503   1.424   5.083   8.605
14421WAT      O43504   3.375   8.198   4.466
14421WAT     H143505   3.371   8.237   4.374
14421WAT     H243506   3.366   8.271   4.534
14422WAT      O43507   0.890   5.204   9.089
14422WAT     H143508   0.953   5.129   9.106
14422WAT     H243509   0.930   5.289   9.123
14423WAT      O43510   4.191   6.263   0.699
14423WAT     H143511   4.138   6.245   0.616
14423WAT     H243512   4.147   6.218   0.777
14424WAT      O43513   6.906   3.237   1.796
14424WAT     H143514   6.810   3.264   1.803
14424WAT     H243515   6.964   3.310   1.833
14425WAT      O43516   1.692   1.726   4.988
14425WAT     H143517   1.765   1.761   4.929
14425WAT     H243518   1.607   1.722   4.936
14426WAT      O43519   1.351   9.060   7.975
14426WAT     H143520   1.448   9.067   7.999
14426WAT     H243521   1.333   9.115   7.894
14427WAT      O43522   5.187   4.144   9.729
14427WAT     H143523   5.196   4.072   9.798
14427WAT     H243524   5.246   4.123   9.651
14428WAT      O43525   4.819   2.072   2.894
14428WAT     H143526   4.736   2.038   2.938
14428WAT     H243527   4.893   2.076   2.961
14429WAT      O43528   4.709   5.137   2.384
14429WAT     H143529   4.644   5.090   2.445
14429WAT     H243530   4.665   5.217   2.345
14430WAT      O43531   1.890   1.624   4.684
14430WAT     H143532   1.907   1.710   4.733
14430WAT     H243533   1.957   1.556   4.713
14431WAT      O43534   5.259   4.383   9.836
14431WAT     H143535   5.172   4.416   9.873
14431WAT     H243536   5.243   4.303   9.778
14432WAT      O43537   3.819   1.840   7.764
14432WAT     H143538   3.825   1.740   7.763
14432WAT     H243539   3.855   1.876   7.678
14433WAT      O43540   5.127   4.502   1.534
14433WAT     H143541   5.191   4.562   1.485
14433WAT     H243542   5.052   4.478   1.473
14434WAT      O43543   0.477   3.921   3.356
14434WAT     H143544   0.548   3.914   3.426
14434WAT     H243545   0.508   3.874   3.273
14435WAT      O43546   8.563   1.858   0.219
14435WAT     H143547   8.629   1.803   0.168
14435WAT     H243548   8.595   1.953   0.223
14436WAT      O43549   9.259   4.924   0.968
14436WAT     H143550   9.226   4.905   1.061
14436WAT     H243551   9.183   4.921   0.904
14437WAT      O43552   3.766   0.539   4.206
14437WAT     H143553   3.707   0.535   4.125
14437WAT     H243554   3.835   0.467   4.201
14438WAT      O43555   3.735   6.484   1.007
14438WAT     H143556   3.818   6.453   0.961
14438WAT     H243557   3.759   6.544   1.083
14439WAT      O43558   1.347   5.229   8.922
14439WAT     H143559   1.432   5.191   8.885
14439WAT     H243560   1.284   5.249   8.847
14440WAT      O43561   3.313   0.756   1.062
14440WAT     H143562   3.221   0.767   1.026
14440WAT     H243563   3.353   0.671   1.028
14441WAT      O43564   2.915   2.193   5.088
14441WAT     H143565   2.869   2.160   5.005
14441WAT     H243566   2.913   2.121   5.158
14442WAT      O43567   3.380   2.704   1.041
14442WAT     H143568   3.472   2.683   1.074
14442WAT     H243569   3.378   2.697   0.941
14443WAT      O43570   3.038   4.042   1.419
14443WAT     H143571   2.950   4.062   1.463
14443WAT     H243572   3.024   3.979   1.343
14444WAT      O43573   8.530   3.657   5.951
14444WAT     H143574   8.553   3.597   5.875
14444WAT     H243575   8.457   3.720   5.922
14445WAT      O43576   0.494   5.128   0.274
14445WAT     H143577   0.459   5.206   0.222
14445WAT     H243578   0.587   5.108   0.245
14446WAT      O43579   9.195   5.686   0.055
14446WAT     H143580   9.183   5.669  -0.042
14446WAT     H243581   9.210   5.599   0.102
14447WAT      O43582   1.330   3.688   5.455
14447WAT     H143583   1.318   3.632   5.373
14447WAT     H243584   1.263   3.762   5.456
14448WAT      O43585   8.789   3.768   2.205
14448WAT     H143586   8.863   3.761   2.271
14448WAT     H243587   8.755   3.862   2.203
14449WAT      O43588   9.833   7.082   9.083
14449WAT     H143589   9.835   7.071   9.182
14449WAT     H243590   9.925   7.071   9.046
14450WAT      O43591   8.855   0.491   6.363
14450WAT     H143592   8.832   0.423   6.293
14450WAT     H243593   8.800   0.474   6.445
14451WAT      O43594   6.957   1.269   3.552
14451WAT     H143595   6.899   1.266   3.471
14451WAT     H243596   7.052   1.252   3.526
14452WAT      O43597   4.701   8.608   8.408
14452WAT     H143598   4.713   8.640   8.502
14452WAT     H243599   4.611   8.567   8.398
14453WAT      O43600   0.710   2.197   3.388
14453WAT     H143601   0.765   2.275   3.360
14453WAT     H243602   0.630   2.190   3.329
14454WAT      O43603   2.570   7.658   3.952
14454WAT     H143604   2.634   7.735   3.943
14454WAT     H243605   2.512   7.653   3.870
14455WAT      O43606   2.989   6.648   6.204
14455WAT     H143607   2.977   6.741   6.167
14455WAT     H243608   3.057   6.599   6.149
14456WAT      O43609   0.095   5.087   3.751
14456WAT     H143610   0.191   5.115   3.750
14456WAT     H243611   0.085   5.003   3.697
14457WAT      O43612   6.090   0.830   4.094
14457WAT     H143613   5.998   0.848   4.129
14457WAT     H243614   6.084   0.801   3.998
14458WAT      O43615   5.681   9.612   4.034
14458WAT     H143616   5.641   9.671   4.104
14458WAT     H243617   5.635   9.628   3.947
14459WAT      O43618   8.145   5.784   5.113
14459WAT     H143619   8.121   5.852   5.182
14459WAT     H243620   8.244   5.769   5.115
14460WAT      O43621   5.785   7.531   0.753
14460WAT     H143622   5.820   7.614   0.798
14460WAT     H243623   5.767   7.461   0.822
14461WAT      O43624   9.257   4.917   8.739
14461WAT     H143625   9.159   4.895   8.736
14461WAT     H243626   9.272   5.008   8.700
14462WAT      O43627   5.236   3.033   3.831
14462WAT     H143628   5.270   2.975   3.757
14462WAT     H243629   5.246   3.129   3.805
14463WAT      O43630   1.650   7.112   2.396
14463WAT     H143631   1.563   7.067   2.376
14463WAT     H243632   1.718   7.043   2.419
14464WAT      O43633   6.987   2.451   5.422
14464WAT     H143634   7.031   2.430   5.510
14464WAT     H243635   7.046   2.513   5.370
14465WAT      O43636   8.153   6.622   5.811
14465WAT     H143637   8.131   6.682   5.735
14465WAT     H243638   8.118   6.530   5.792
14466WAT      O43639   8.194   9.784   0.977
14466WAT     H143640   8.200   9.869   0.926
14466WAT     H243641   8.102   9.775   1.016
14467WAT      O43642   0.341   2.861   2.040
14467WAT     H143643   0.316   2.767   2.014
14467WAT     H243644   0.258   2.916   2.048
14468WAT      O43645   9.684   7.778   7.841
14468WAT     H143646   9.771   7.805   7.882
14468WAT     H243647   9.628   7.732   7.910
14469WAT      O43648   8.726   0.901   8.946
14469WAT     H143649   8.714   0.865   9.039
14469WAT     H243650   8.692   0.995   8.942
14470WAT      O43651   0.570   1.069   0.424
14470WAT     H143652   0.488   1.080   0.480
14470WAT     H243653   0.584   0.971   0.406
14471WAT      O43654   6.878   8.887   7.303
14471WAT     H143655   6.934   8.886   7.221
14471WAT     H243656   6.805   8.819   7.294
14472WAT      O43657   4.389   0.843   9.630
14472WAT     H143658   4.384   0.932   9.585
14472WAT     H243659   4.336   0.845   9.715
14473WAT      O43660   9.383   8.683   6.114
14473WAT     H143661   9.391   8.779   6.141
14473WAT     H243662   9.296   8.669   6.066
14474WAT      O43663   1.100   5.976   6.206
14474WAT     H143664   1.023   5.984   6.143
14474WAT     H243665   1.066   5.957   6.298
14475WAT      O43666   8.050   4.040   7.607
14475WAT     H143667   8.073   4.044   7.510
14475WAT     H243668   7.964   4.089   7.624
14476WAT      O43669   2.462   6.475   3.068
14476WAT     H143670   2.382   6.536   3.061
14476WAT     H243671   2.470   6.442   3.162
14477WAT      O43672   1.100   1.274   8.756
14477WAT     H143673   1.085   1.280   8.657
14477WAT     H243674   1.029   1.216   8.797
14478WAT      O43675   2.266   2.677   4.034
14478WAT     H143676   2.243   2.717   3.945
14478WAT     H243677   2.201   2.709   4.103
14479WAT      O43678   9.687   5.712   1.667
14479WAT     H143679   9.695   5.767   1.584
14479WAT     H243680   9.683   5.772   1.746
14480WAT      O43681   6.129   1.523   5.307
14480WAT     H143682   6.164   1.430   5.312
14480WAT     H243683   6.087   1.539   5.218
14481WAT      O43684   0.081   2.204   6.997
14481WAT     H143685   0.146   2.277   6.976
14481WAT     H243686  -0.010   2.231   6.967
14482WAT      O43687   1.374   3.900   4.671
14482WAT     H143688   1.278   3.921   4.653
14482WAT     H243689   1.380   3.812   4.719
14483WAT      O43690   8.144   0.286   3.420
14483WAT     H143691   8.142   0.204   3.363
14483WAT     H243692   8.202   0.355   3.376
14484WAT      O43693   3.746   0.155   5.749
14484WAT     H143694   3.730   0.244   5.707
14484WAT     H243695   3.741   0.163   5.848
14485WAT      O43696   5.381   0.449   3.264
14485WAT     H143697   5.445   0.372   3.256
14485WAT     H243698   5.431   0.535   3.258
14486WAT      O43699   7.447   9.280   5.303
14486WAT     H143700   7.356   9.287   5.343
14486WAT     H243701   7.516   9.306   5.370
14487WAT      O43702   4.746   1.639   3.059
14487WAT     H143703   4.746   1.737   3.078
14487WAT     H243704   4.652   1.607   3.044
14488WAT      O43705   7.709   5.433   0.931
14488WAT     H143706   7.728   5.444   0.834
14488WAT     H243707   7.756   5.351   0.966
14489WAT      O43708   2.240   6.525   0.916
14489WAT     H143709   2.237   6.622   0.893
14489WAT     H243710   2.330   6.501   0.951
14490WAT      O43711   1.092   7.856   8.555
14490WAT     H143712   1.153   7.785   8.518
14490WAT     H243713   1.072   7.923   8.484
14491WAT      O43714   3.281   9.518   9.647
14491WAT     H143715   3.262   9.429   9.606
14491WAT     H243716   3.308   9.506   9.742
14492WAT      O43717   1.356   6.244   9.068
14492WAT     H143718   1.302   6.326   9.049
14492WAT     H243719   1.295   6.165   9.079
14493WAT      O43720   9.627   7.410   4.489
14493WAT     H143721   9.706   7.350   4.497
14493WAT     H243722   9.603   7.420   4.393
14494WAT      O43723   0.112   4.961   7.949
14494WAT     H143724   0.134   4.974   7.853
14494WAT     H243725   0.110   4.863   7.970
14495WAT      O43726   2.525   5.366   7.818
14495WAT     H143727   2.548   5.333   7.727
14495WAT     H243728   2.440   5.418   7.814
14496WAT      O43729   7.169   8.114   2.033
14496WAT     H143730   7.173   8.145   1.938
14496WAT     H243731   7.189   8.016   2.036
14497WAT      O43732   9.622   5.581   7.657
14497WAT     H143733   9.542   5.554   7.604
14497WAT     H243734   9.595   5.651   7.723
14498WAT      O43735   0.727   1.524   9.598
14498WAT     H143736   0.653   1.510   9.532
14498WAT     H243737   0.691   1.514   9.691
14499WAT      O43738   1.523   8.472   2.534
14499WAT     H143739   1.592   8.473   2.461
14499WAT     H243740   1.454   8.542   2.516
14500WAT      O43741   5.483   5.845   3.982
14500WAT     H143742   5.429   5.853   4.066
14500WAT     H243743   5.464   5.923   3.923
14501WAT      O43744   3.656   7.123   8.403
14501WAT     H143745   3.604   7.066   8.466
14501WAT     H243746   3.753   7.120   8.425
14502WAT      O43747   5.056   7.196   7.687
14502WAT     H143748   4.989   7.134   7.646
14502WAT     H243749   5.143   7.149   7.698
14503WAT      O43750   3.218   5.601   1.714
14503WAT     H143751   3.302   5.547   1.721
14503WAT     H243752   3.144   5.543   1.680
14504WAT      O43753   3.131   2.261   2.764
14504WAT     H143754   3.041   2.217   2.770
14504WAT     H243755   3.198   2.194   2.733
14505WAT      O43756   8.267   0.968   1.387
14505WAT     H143757   8.284   0.896   1.319
14505WAT     H243758   8.303   1.055   1.353
14506WAT      O43759   5.083   2.025   5.467
14506WAT     H143760   5.088   1.948   5.403
14506WAT     H243761   5.031   1.997   5.548
14507WAT      O43762   8.434   1.214   3.980
14507WAT     H143763   8.418   1.260   4.068
14507WAT     H243764   8.476   1.279   3.916
14508WAT      O43765   9.612   6.976   1.355
14508WAT     H143766   9.537   7.040   1.341
14508WAT     H243767   9.594   6.920   1.437
14509WAT      O43768   4.182   4.083   7.056
14509WAT     H143769   4.185   3.997   7.108
14509WAT     H243770   4.133   4.152   7.110
14510WAT      O43771   7.848   1.765   9.783
14510WAT     H143772   7.803   1.679   9.755
14510WAT     H243773   7.791   1.842   9.755
14511WAT      O43774   9.751   2.605   5.766
14511WAT     H143775   9.764   2.531   5.700
14511WAT     H243776   9.748   2.692   5.719
14512WAT      O43777   8.236   9.449   4.242
14512WAT     H143778   8.202   9.358   4.215
14512WAT     H243779   8.280   9.492   4.163
14513WAT      O43780   1.053   0.648   1.809
14513WAT     H143781   1.064   0.597   1.723
14513WAT     H243782   1.059   0.746   1.789
14514WAT      O43783   3.496   5.704   0.876
14514WAT     H143784   3.522   5.800   0.861
14514WAT     H243785   3.396   5.696   0.876
14515WAT      O43786   5.978   3.695   5.922
14515WAT     H143787   5.920   3.660   5.848
14515WAT     H243788   6.049   3.629   5.943
14516WAT      O43789   6.589   5.465   2.580
14516WAT     H143790   6.680   5.469   2.540
14516WAT     H243791   6.596   5.433   2.675
14517WAT      O43792   6.159   8.992   1.776
14517WAT     H143793   6.172   9.036   1.865
14517WAT     H243794   6.164   9.061   1.704
14518WAT      O43795   0.531   5.542   8.381
14518WAT     H143796   0.496   5.491   8.302
14518WAT     H243797   0.568   5.630   8.349
14519WAT      O43798   3.189   0.399   9.340
14519WAT     H143799   3.181   0.478   9.279
14519WAT     H243800   3.099   0.376   9.377
14520WAT      O43801   0.787   1.406   8.764
14520WAT     H143802   0.828   1.329   8.813
14520WAT     H243803   0.750   1.374   8.677
14521WAT      O43804   2.784   3.149   8.080
14521WAT     H143805   2.821   3.180   7.992
14521WAT     H243806   2.689   3.179   8.087
14522WAT      O43807   2.950   8.825   9.071
14522WAT     H143808   2.996   8.760   9.012
14522WAT     H243809   2.879   8.779   9.124
14523WAT      O43810   9.263   5.289   3.199
14523WAT     H143811   9.349   5.340   3.198
14523WAT     H243812   9.209   5.315   3.279
14524WAT      O43813   2.546   6.803   8.414
14524WAT     H143814   2.474   6.855   8.369
14524WAT     H243815   2.519   6.707   8.421
14525WAT      O43816   3.858   9.620   8.926
14525WAT     H143817   3.849   9.638   9.024
14525WAT     H243818   3.798   9.545   8.900
14526WAT      O43819   7.986   2.712   5.343
14526WAT     H143820   8.048   2.703   5.265
14526WAT     H243821   8.035   2.752   5.420
14527WAT      O43822   2.164   2.178   3.878
14527WAT     H143823   2.104   2.143   3.950
14527WAT     H243824   2.230   2.242   3.917
14528WAT      O43825   1.720   3.026   1.834
14528WAT     H143826   1.753   3.100   1.893
14528WAT     H243827   1.690   3.063   1.747
14529WAT      O43828   5.231   5.901   9.603
14529WAT     H143829   5.277   5.989   9.612
14529WAT     H243830   5.151   5.899   9.664
14530WAT      O43831   1.116   3.382   0.059
14530WAT     H143832   1.091   3.450   0.127
14530WAT     H243833   1.037   3.326   0.036
14531WAT      O43834   9.005   8.676   2.448
14531WAT     H143835   8.937   8.705   2.515
14531WAT     H243836   9.093   8.663   2.493
14532WAT      O43837   4.407   6.955   9.805
14532WAT     H143838   4.366   6.878   9.853
14532WAT     H243839   4.345   6.987   9.734
14533WAT      O43840   5.145   2.806   6.979
14533WAT     H143841   5.088   2.788   6.898
14533WAT     H243842   5.165   2.904   6.984
14534WAT      O43843   2.617   0.408   2.857
14534WAT     H143844   2.691   0.363   2.907
14534WAT     H243845   2.656   0.470   2.789
14535WAT      O43846   3.325   8.344   3.262
14535WAT     H143847   3.294   8.432   3.226
14535WAT     H243848   3.249   8.298   3.307
14536WAT      O43849   4.658   0.443   6.918
14536WAT     H143850   4.668   0.380   6.994
14536WAT     H243851   4.579   0.417   6.863
14537WAT      O43852   5.257   4.764   1.467
14537WAT     H143853   5.290   4.770   1.372
14537WAT     H243854   5.159   4.782   1.468
14538WAT      O43855   8.734   1.031   3.726
14538WAT     H143856   8.788   1.009   3.807
14538WAT     H243857   8.661   0.964   3.715
14539WAT      O43858   3.457   8.501   8.078
14539WAT     H143859   3.469   8.589   8.124
14539WAT     H243860   3.404   8.513   7.994
14540WAT      O43861   0.127   1.402   5.310
14540WAT     H143862   0.120   1.486   5.364
14540WAT     H243863   0.036   1.366   5.291
14541WAT      O43864   2.196   8.131   5.779
14541WAT     H143865   2.143   8.151   5.696
14541WAT     H243866   2.167   8.044   5.817
14542WAT      O43867   5.771   0.286   3.984
14542WAT     H143868   5.799   0.198   3.945
14542WAT     H243869   5.692   0.322   3.933
14543WAT      O43870   5.595   8.789   0.921
14543WAT     H143871   5.631   8.817   0.832
14543WAT     H243872   5.496   8.773   0.913
14544WAT      O43873   9.318   9.379   0.515
14544WAT     H143874   9.391   9.319   0.485
14544WAT     H243875   9.355   9.470   0.533
14545WAT      O43876   8.302   5.671   2.131
14545WAT     H143877   8.363   5.736   2.177
14545WAT     H243878   8.215   5.715   2.111
14546WAT      O43879   9.357   2.892   5.149
14546WAT     H143880   9.342   2.933   5.059
14546WAT     H243881   9.269   2.862   5.187
14547WAT      O43882   2.795   9.667   6.435
14547WAT     H143883   2.815   9.659   6.337
14547WAT     H243884   2.742   9.587   6.465
14548WAT      O43885   4.880   3.076   6.953
14548WAT     H143886   4.788   3.063   6.918
14548WAT     H243887   4.877   3.124   7.041
14549WAT      O43888   4.759   8.097   4.335
14549WAT     H143889   4.700   8.170   4.300
14549WAT     H243890   4.703   8.032   4.387
14550WAT      O43891   3.385   1.767   2.692
14550WAT     H143892   3.399   1.817   2.778
14550WAT     H243893   3.295   1.789   2.655
14551WAT      O43894   8.635   8.722   0.211
14551WAT     H143895   8.688   8.734   0.127
14551WAT     H243896   8.602   8.628   0.216
14552WAT      O43897   1.457   1.093   8.285
14552WAT     H143898   1.444   1.097   8.186
14552WAT     H243899   1.371   1.118   8.330
14553WAT      O43900   0.615   5.199   0.529
14553WAT     H143901   0.714   5.189   0.524
14553WAT     H243902   0.575   5.177   0.440
14554WAT      O43903   1.953   5.937   3.456
14554WAT     H143904   1.918   6.019   3.412
14554WAT     H243905   1.880   5.892   3.507
14555WAT      O43906   8.883   7.797   6.705
14555WAT     H143907   8.828   7.847   6.638
14555WAT     H243908   8.854   7.702   6.708
14556WAT      O43909   4.509   6.764   8.018
14556WAT     H143910   4.494   6.844   8.076
14556WAT     H243911   4.607   6.746   8.011
14557WAT      O43912   5.241   4.494   3.895
14557WAT     H143913   5.315   4.552   3.929
14557WAT     H243914   5.268   4.455   3.807
14558WAT      O43915   2.565   8.265   9.341
14558WAT     H143916   2.659   8.231   9.332
14558WAT     H243917   2.567   8.365   9.347
14559WAT      O43918   9.075   2.441   2.433
14559WAT     H143919   9.030   2.528   2.450
14559WAT     H243920   9.140   2.451   2.357
14560WAT      O43921   0.873   4.298   3.831
14560WAT     H143922   0.783   4.270   3.799
14560WAT     H243923   0.897   4.386   3.789
14561WAT      O43924   8.130   5.530   2.573
14561WAT     H143925   8.223   5.501   2.550
14561WAT     H243926   8.134   5.618   2.621
14562WAT      O43927   4.332   0.671   1.412
14562WAT     H143928   4.331   0.583   1.363
14562WAT     H243929   4.420   0.683   1.457
14563WAT      O43930   9.708   0.855   7.365
14563WAT     H143931   9.696   0.954   7.375
14563WAT     H243932   9.619   0.812   7.351
14564WAT      O43933   7.440   6.600   5.659
14564WAT     H143934   7.460   6.630   5.566
14564WAT     H243935   7.356   6.546   5.659
14565WAT      O43936   3.389   2.695   0.062
14565WAT     H143937   3.448   2.729  -0.012
14565WAT     H243938   3.441   2.692   0.147
14566WAT      O43939   0.553   5.822   8.492
14566WAT     H143940   0.635   5.837   8.436
14566WAT     H243941   0.575   5.840   8.588
14567WAT      O43942   1.381   1.194   1.873
14567WAT     H143943   1.425   1.179   1.784
14567WAT     H243944   1.384   1.292   1.895
14568WAT      O43945   8.159   3.387   5.625
14568WAT     H143946   8.142   3.426   5.535
14568WAT     H243947   8.165   3.461   5.693
14569WAT      O43948   8.805   3.601   1.135
14569WAT     H143949   8.885   3.542   1.128
14569WAT     H243950   8.733   3.567   1.073
14570WAT      O43951   9.577   2.985   7.183
14570WAT     H143952   9.525   2.900   7.194
14570WAT     H243953   9.514   3.058   7.158
14571WAT      O43954   3.094   0.769   0.923
14571WAT     H143955   3.038   0.846   0.894
14571WAT     H243956   3.090   0.697   0.855
14572WAT      O43957   0.608   7.398   8.192
14572WAT     H143958   0.606   7.368   8.288
14572WAT     H243959   0.530   7.359   8.144
14573WAT      O43960   6.165   6.822   6.242
14573WAT     H143961   6.072   6.804   6.208
14573WAT     H243962   6.199   6.907   6.203
14574WAT      O43963   6.821   1.953   1.654
14574WAT     H143964   6.795   1.861   1.626
14574WAT     H243965   6.913   1.952   1.693
14575WAT      O43966   9.820   7.765   2.343
14575WAT     H143967   9.905   7.768   2.290
14575WAT     H243968   9.828   7.696   2.415
14576WAT      O43969   0.939   5.083   2.252
14576WAT     H143970   0.944   4.984   2.240
14576WAT     H243971   1.015   5.127   2.203
14577WAT      O43972   0.433   1.824   4.558
14577WAT     H143973   0.482   1.800   4.642
14577WAT     H243974   0.396   1.741   4.517
14578WAT      O43975   2.335   9.632   2.740
14578WAT     H143976   2.359   9.548   2.789
14578WAT     H243977   2.405   9.701   2.757
14579WAT      O43978   2.203   9.780   2.947
14579WAT     H143979   2.161   9.731   3.023
14579WAT     H243980   2.221   9.717   2.872
14580WAT      O43981   5.685   3.627   9.249
14580WAT     H143982   5.591   3.624   9.212
14580WAT     H243983   5.727   3.714   9.223
14581WAT      O43984   6.703   8.278   7.653
14581WAT     H143985   6.680   8.202   7.593
14581WAT     H243986   6.703   8.363   7.601
14582WAT      O43987   8.632   0.358   9.387
14582WAT     H143988   8.705   0.292   9.403
14582WAT     H243989   8.549   0.328   9.433
14583WAT      O43990   6.479   7.657   0.423
14583WAT     H143991   6.440   7.668   0.332
14583WAT     H243992   6.484   7.746   0.468
14584WAT      O43993   9.426   7.527   3.102
14584WAT     H143994   9.521   7.511   3.127
14584WAT     H243995   9.367   7.489   3.174
14585WAT      O43996   5.064   9.211   9.197
14585WAT     H143997   5.053   9.199   9.099
14585WAT     H243998   5.109   9.298   9.216
14586WAT      O43999   9.028   7.394   9.448
14586WAT     H144000   9.037   7.408   9.547
14586WAT     H244001   9.009   7.482   9.404
14587WAT      O44002   4.848   5.178   1.965
14587WAT     H144003   4.833   5.132   1.877
14587WAT     H244004   4.852   5.110   2.038
14588WAT      O44005   6.387   1.585   5.393
14588WAT     H144006   6.388   1.677   5.355
14588WAT     H244007   6.313   1.532   5.351
14589WAT      O44008   6.778   2.304   6.507
14589WAT     H144009   6.701   2.350   6.551
14589WAT     H244010   6.824   2.368   6.445
14590WAT      O44011   5.335   6.036   4.655
14590WAT     H144012   5.336   6.115   4.716
14590WAT     H244013   5.388   5.961   4.696
14591WAT      O44014   3.265   4.373   8.552
14591WAT     H144015   3.339   4.363   8.486
14591WAT     H244016   3.236   4.469   8.555
14592WAT      O44017   8.677   3.422   8.983
14592WAT     H144018   8.665   3.410   9.082
14592WAT     H244019   8.669   3.333   8.938
14593WAT      O44020   8.364   3.474   6.988
14593WAT     H144021   8.312   3.391   7.010
14593WAT     H244022   8.455   3.467   7.030
14594WAT      O44023   6.453   5.567   9.566
14594WAT     H144024   6.452   5.467   9.557
14594WAT     H244025   6.548   5.598   9.574
14595WAT      O44026   8.975   3.372   2.891
14595WAT     H144027   9.001   3.463   2.923
14595WAT     H244028   8.913   3.330   2.957
14596WAT      O44029   5.693   2.456   1.313
14596WAT     H144030   5.696   2.375   1.255
14596WAT     H244031   5.647   2.530   1.265
14597WAT      O44032   0.293   7.272   4.033
14597WAT     H144033   0.381   7.252   3.991
14597WAT     H244034   0.228   7.302   3.962
14598WAT      O44035   6.122   2.630   9.761
14598WAT     H144036   6.120   2.643   9.662
14598WAT     H244037   6.210   2.591   9.788
14599WAT      O44038   9.734   7.887   0.261
14599WAT     H144039   9.796   7.943   0.206
14599WAT     H244040   9.785   7.810   0.300
14600WAT      O44041   6.424   8.086   4.188
14600WAT     H144042   6.507   8.029   4.182
14600WAT     H244043   6.390   8.105   4.096
14601WAT      O44044   8.290   3.381   6.008
14601WAT     H144045   8.387   3.405   6.015
14601WAT     H244046   8.256   3.355   6.098
14602WAT      O44047   7.850   4.956   0.464
14602WAT     H144048   7.924   4.890   0.470
14602WAT     H244049   7.822   4.984   0.556
14603WAT      O44050   7.497   8.778   3.721
14603WAT     H144051   7.546   8.763   3.635
14603WAT     H244052   7.555   8.754   3.798
14604WAT      O44053   7.898   2.940   6.054
14604WAT     H144054   7.842   2.866   6.090
14604WAT     H244055   7.917   3.006   6.126
14605WAT      O44056   6.890   0.019   9.518
14605WAT     H144057   6.933   0.074   9.446
14605WAT     H244058   6.956   0.003   9.592
14606WAT      O44059   6.073   0.500   8.764
14606WAT     H144060   6.027   0.544   8.687
14606WAT     H244061   6.126   0.421   8.730
14607WAT      O44062   8.148   5.119   3.202
14607WAT     H144063   8.241   5.147   3.175
14607WAT     H244064   8.095   5.200   3.225
14608WAT      O44065   9.056   6.298   0.167
14608WAT     H144066   8.996   6.219   0.153
14608WAT     H244067   9.069   6.314   0.264
14609WAT      O44068   0.318   6.468   9.481
14609WAT     H144069   0.326   6.425   9.391
14609WAT     H244070   0.392   6.436   9.540
14610WAT      O44071   4.010   1.599   7.522
14610WAT     H144072   3.977   1.574   7.613
14610WAT     H244073   4.109   1.612   7.525
14611WAT      O44074   9.218   9.378   9.826
14611WAT     H144075   9.157   9.335   9.760
14611WAT     H244076   9.305   9.399   9.782
14612WAT      O44077   1.735   7.341   5.606
14612WAT     H144078   1.799   7.380   5.672
14612WAT     H244079   1.723   7.243   5.625
14613WAT      O44080   8.485   4.933   4.600
14613WAT     H144081   8.574   4.907   4.638
14613WAT     H244082   8.415   4.867   4.628
14614WAT      O44083   8.501   6.945   1.405
14614WAT     H144084   8.454   7.034   1.402
14614WAT     H244085   8.501   6.911   1.499
14615WAT      O44086   1.303   0.652   8.555
14615WAT     H144087   1.278   0.740   8.514
14615WAT     H244088   1.329   0.588   8.482
14616WAT      O44089   5.014   9.640   3.299
14616WAT     H144090   5.041   9.731   3.266
14616WAT     H244091   4.951   9.598   3.234
14617WAT      O44092   3.245   8.312   1.396
14617WAT     H144093   3.211   8.346   1.484
14617WAT     H244094   3.263   8.390   1.336
14618WAT      O44095   2.537   3.712   6.352
14618WAT     H144096   2.622   3.760   6.330
14618WAT     H244097   2.511   3.732   6.447
14619WAT      O44098   2.980   1.697   5.164
14619WAT     H144099   2.962   1.694   5.262
14619WAT     H244100   3.072   1.661   5.147
14620WAT      O44101   6.520   7.631   7.536
14620WAT     H144102   6.615   7.611   7.510
14620WAT     H244103   6.520   7.706   7.603
14621WAT      O44104   0.049   1.621   2.313
14621WAT     H144105   0.007   1.704   2.349
14621WAT     H244106  -0.020   1.548   2.310
14622WAT      O44107   8.305   1.627   8.962
14622WAT     H144108   8.373   1.699   8.952
14622WAT     H244109   8.324   1.553   8.897
14623WAT      O44110   4.908   5.141   2.580
14623WAT     H144111   4.833   5.118   2.518
14623WAT     H244112   4.985   5.078   2.564
14624WAT      O44113   1.002   3.633   1.776
14624WAT     H144114   1.031   3.576   1.853
14624WAT     H244115   0.946   3.708   1.809
14625WAT      O44116   8.969   0.855   0.574
14625WAT     H144117   8.916   0.936   0.549
14625WAT     H244118   8.992   0.803   0.492
14626WAT      O44119   6.612   9.269   0.911
14626WAT     H144120   6.702   9.311   0.898
14626WAT     H244121   6.612   9.217   0.996
14627WAT      O44122   0.825   1.808   6.394
14627WAT     H144123   0.782   1.897   6.410
14627WAT     H244124   0.801   1.776   6.302
14628WAT      O44125   7.056   9.731   6.648
14628WAT     H144126   7.046   9.633   6.665
14628WAT     H244127   7.107   9.745   6.564
14629WAT      O44128   4.421   1.537   8.102
14629WAT     H144129   4.437   1.635   8.090
14629WAT     H244130   4.441   1.512   8.197
14630WAT      O44131   4.039   1.061   2.705
14630WAT     H144132   4.105   0.986   2.698
14630WAT     H244133   4.054   1.110   2.791
14631WAT      O44134   8.246   7.232   4.684
14631WAT     H144135   8.184   7.172   4.634
14631WAT     H244136   8.258   7.318   4.634
14632WAT      O44137   7.493   3.957   8.265
14632WAT     H144138   7.521   3.870   8.307
14632WAT     H244139   7.550   3.975   8.185
14633WAT      O44140   7.386   1.245   6.162
14633WAT     H144141   7.427   1.333   6.185
14633WAT     H244142   7.297   1.259   6.120
14634WAT      O44143   8.248   2.356   1.208
14634WAT     H144144   8.319   2.294   1.173
14634WAT     H244145   8.160   2.332   1.168
14635WAT      O44146   5.245   1.116   7.844
14635WAT     H144147   5.289   1.199   7.879
14635WAT     H244148   5.158   1.140   7.801
14636WAT      O44149   0.712   2.466   2.611
14636WAT     H144150   0.751   2.374   2.602
14636WAT     H244151   0.629   2.473   2.556
14637WAT      O44152   3.305   0.007   9.121
14637WAT     H144153   3.370  -0.050   9.071
14637WAT     H244154   3.344   0.098   9.135
14638WAT      O44155   4.446   2.509   7.443
14638WAT     H144156   4.464   2.418   7.405
14638WAT     H244157   4.450   2.505   7.543
14639WAT      O44158   0.472   7.382   4.695
14639WAT     H144159   0.505   7.476   4.701
14639WAT     H244160   0.386   7.373   4.746
14640WAT      O44161   9.586   7.443   2.517
14640WAT     H144162   9.581   7.521   2.454
14640WAT     H244163   9.524   7.458   2.594
14641WAT      O44164   0.322   2.328   6.054
14641WAT     H144165   0.345   2.264   6.128
14641WAT     H244166   0.247   2.291   6.000
14642WAT      O44167   0.533   7.963   5.670
14642WAT     H144168   0.446   7.998   5.636
14642WAT     H244169   0.573   7.901   5.603
14643WAT      O44170   2.489   0.198   9.460
14643WAT     H144171   2.537   0.203   9.548
14643WAT     H244172   2.425   0.274   9.453
14644WAT      O44173   1.477   5.989   3.101
14644WAT     H144174   1.522   6.038   3.027
14644WAT     H244175   1.534   5.993   3.183
14645WAT      O44176   0.550   8.964   4.650
14645WAT     H144177   0.471   8.912   4.682
14645WAT     H244178   0.587   8.922   4.568
14646WAT      O44179   2.202   5.216   2.887
14646WAT     H144180   2.140   5.294   2.887
14646WAT     H244181   2.150   5.131   2.881
14647WAT      O44182   1.687   1.815   5.580
14647WAT     H144183   1.757   1.835   5.648
14647WAT     H244184   1.638   1.732   5.606
14648WAT      O44185   7.359   5.110   6.791
14648WAT     H144186   7.319   5.025   6.757
14648WAT     H244187   7.291   5.160   6.845
14649WAT      O44188   4.418   9.222   4.485
14649WAT     H144189   4.335   9.184   4.527
14649WAT     H244190   4.477   9.147   4.456
14650WAT      O44191   5.077   5.468   4.961
14650WAT     H144192   5.068   5.560   5.000
14650WAT     H244193   5.159   5.463   4.906
14651WAT      O44194   7.451   0.023   8.966
14651WAT     H144195   7.359   0.005   8.999
14651WAT     H244196   7.511   0.044   9.043
14652WAT      O44197   3.578   3.966   3.197
14652WAT     H144198   3.658   4.023   3.177
14652WAT     H244199   3.600   3.900   3.268
14653WAT      O44200   3.307   1.580   9.324
14653WAT     H144201   3.398   1.613   9.348
14653WAT     H244202   3.247   1.657   9.305
14654WAT      O44203   5.746   8.864   6.295
14654WAT     H144204   5.766   8.946   6.243
14654WAT     H244205   5.831   8.824   6.329
14655WAT      O44206   3.846   3.398   3.474
14655WAT     H144207   3.855   3.300   3.457
14655WAT     H244208   3.880   3.448   3.394
14656WAT      O44209   4.394   7.304   4.098
14656WAT     H144210   4.362   7.249   4.021
14656WAT     H244211   4.493   7.318   4.090
14657WAT      O44212   0.739   3.365   7.161
14657WAT     H144213   0.671   3.406   7.099
14657WAT     H244214   0.724   3.400   7.253
14658WAT      O44215   9.029   7.078   5.592
14658WAT     H144216   9.016   7.133   5.674
14658WAT     H244217   9.060   7.137   5.517
14659WAT      O44218   0.638   1.930   4.421
14659WAT     H144219   0.550   1.895   4.455
14659WAT     H244220   0.628   1.955   4.325
14660WAT      O44221   5.376   7.199   4.274
14660WAT     H144222   5.432   7.209   4.192
14660WAT     H244223   5.368   7.287   4.320
14661WAT      O44224   3.924   6.738   1.358
14661WAT     H144225   3.953   6.645   1.382
14661WAT     H244226   4.005   6.792   1.332
14662WAT      O44227   4.399   6.814   6.490
14662WAT     H144228   4.375   6.912   6.491
14662WAT     H244229   4.423   6.785   6.582
14663WAT      O44230   5.685   8.747   3.710
14663WAT     H144231   5.688   8.653   3.678
14663WAT     H244232   5.591   8.772   3.732
14664WAT      O44233   1.297   2.874   0.546
14664WAT     H144234   1.239   2.793   0.534
14664WAT     H244235   1.265   2.947   0.485
14665WAT      O44236   7.387   5.741   3.780
14665WAT     H144237   7.486   5.745   3.788
14665WAT     H244238   7.357   5.646   3.783
14666WAT      O44239   5.326   5.882   4.195
14666WAT     H144240   5.290   5.975   4.195
14666WAT     H244241   5.306   5.838   4.282
14667WAT      O44242   6.929   3.924   1.444
14667WAT     H144243   6.995   3.992   1.411
14667WAT     H244244   6.897   3.948   1.535
14668WAT      O44245   9.281   9.011   8.919
14668WAT     H144246   9.265   9.056   9.007
14668WAT     H244247   9.204   9.029   8.858
14669WAT      O44248   4.749   9.412   5.499
14669WAT     H144249   4.790   9.487   5.551
14669WAT     H244250   4.717   9.447   5.411
14670WAT      O44251   7.249   1.573   7.548
14670WAT     H144252   7.180   1.626   7.599
14670WAT     H244253   7.286   1.501   7.607
14671WAT      O44254   8.922   8.497   4.102
14671WAT     H144255   8.866   8.557   4.044
14671WAT     H244256   8.862   8.434   4.151
14672WAT      O44257   2.181   1.237   1.134
14672WAT     H144258   2.213   1.235   1.039
14672WAT     H244259   2.259   1.252   1.195
14673WAT      O44260   5.599   9.806   8.172
14673WAT     H144261   5.638   9.897   8.181
14673WAT     H244262   5.672   9.739   8.160
14674WAT      O44263   7.100   8.984   3.784
14674WAT     H144264   7.062   9.020   3.869
14674WAT     H244265   7.199   8.993   3.785
14675WAT      O44266   3.451   7.082   0.744
14675WAT     H144267   3.372   7.021   0.754
14675WAT     H244268   3.532   7.038   0.781
14676WAT      O44269   1.107   2.849   1.286
14676WAT     H144270   1.113   2.777   1.217
14676WAT     H244271   1.169   2.828   1.362
14677WAT      O44272   4.937   4.792   7.240
14677WAT     H144273   4.880   4.712   7.228
14677WAT     H244274   4.960   4.804   7.337
14678WAT      O44275   9.811   6.121   1.055
14678WAT     H144276   9.791   6.136   1.152
14678WAT     H244277   9.749   6.176   0.999
14679WAT      O44278   0.404   2.239   2.017
14679WAT     H144279   0.362   2.239   2.107
14679WAT     H244280   0.425   2.145   1.990
14680WAT      O44281   9.151   4.381   5.997
14680WAT     H144282   9.234   4.339   6.035
14680WAT     H244283   9.129   4.337   5.910
14681WAT      O44284   7.627   6.511   8.841
14681WAT     H144285   7.619   6.442   8.912
14681WAT     H244286   7.553   6.578   8.851
14682WAT      O44287   2.000   6.137   2.976
14682WAT     H144288   1.915   6.189   2.964
14682WAT     H244289   1.999   6.092   3.065
14683WAT      O44290   1.466   7.434   5.694
14683WAT     H144291   1.416   7.455   5.609
14683WAT     H244292   1.556   7.397   5.672
14684WAT      O44293   8.097   0.071   7.919
14684WAT     H144294   8.122   0.046   7.825
14684WAT     H244295   8.134   0.003   7.982
14685WAT      O44296   5.131   6.216   8.289
14685WAT     H144297   5.053   6.158   8.313
14685WAT     H244298   5.208   6.159   8.261
14686WAT      O44299   0.004   2.938   0.583
14686WAT     H144300   0.104   2.943   0.591
14686WAT     H244301  -0.022   2.944   0.487
14687WAT      O44302   8.166   8.997   7.648
14687WAT     H144303   8.114   8.919   7.683
14687WAT     H244304   8.259   8.994   7.683
14688WAT      O44305   7.581   0.807   1.429
14688WAT     H144306   7.502   0.796   1.369
14688WAT     H244307   7.629   0.719   1.436
14689WAT      O44308   5.976   2.515   9.413
14689WAT     H144309   5.934   2.429   9.383
14689WAT     H244310   5.938   2.591   9.360
14690WAT      O44311   1.015   4.139   5.329
14690WAT     H144312   1.063   4.072   5.274
14690WAT     H244313   1.066   4.225   5.330
14691WAT      O44314   4.546   4.585   6.477
14691WAT     H144315   4.603   4.638   6.415
14691WAT     H244316   4.530   4.637   6.561
14692WAT      O44317   4.166   5.611   1.003
14692WAT     H144318   4.223   5.535   1.033
14692WAT     H244319   4.086   5.577   0.954
14693WAT      O44320   6.902   4.643   8.135
14693WAT     H144321   6.910   4.726   8.189
14693WAT     H244322   6.958   4.571   8.176
14694WAT      O44323   3.963   7.710   5.965
14694WAT     H144324   3.939   7.773   5.892
14694WAT     H244325   4.023   7.638   5.929
14695WAT      O44326   1.106   5.948   3.412
14695WAT     H144327   1.107   5.848   3.421
14695WAT     H244328   1.013   5.981   3.425
14696WAT      O44329   6.809   7.725   7.441
14696WAT     H144330   6.809   7.787   7.362
14696WAT     H244331   6.836   7.775   7.523
14697WAT      O44332   9.333   8.117   4.913
14697WAT     H144333   9.361   8.048   4.847
14697WAT     H244334   9.337   8.078   5.005
14698WAT      O44335   0.873   5.841   9.530
14698WAT     H144336   0.838   5.874   9.618
14698WAT     H244337   0.970   5.822   9.537
14699WAT      O44338   5.244   7.359   5.679
14699WAT     H144339   5.298   7.324   5.603
14699WAT     H244340   5.191   7.284   5.719
14700WAT      O44341   0.021   6.123   5.153
14700WAT     H144342   0.035   6.197   5.088
14700WAT     H244343  -0.073   6.126   5.187
14701WAT      O44344   2.897   4.088   5.733
14701WAT     H144345   2.829   4.019   5.758
14701WAT     H244346   2.985   4.062   5.771
14702WAT      O44347   1.156   3.144   0.923
14702WAT     H144348   1.065   3.179   0.948
14702WAT     H244349   1.210   3.130   1.006
14703WAT      O44350   6.848   9.318   3.146
14703WAT     H144351   6.908   9.399   3.140
14703WAT     H244352   6.811   9.298   3.056
14704WAT      O44353   3.064   9.634   2.840
14704WAT     H144354   3.072   9.551   2.895
14704WAT     H244355   3.130   9.632   2.765
14705WAT      O44356   0.406   2.941   3.404
14705WAT     H144357   0.435   3.014   3.465
14705WAT     H244358   0.309   2.952   3.382
14706WAT      O44359   1.090   4.405   4.167
14706WAT     H144360   1.190   4.401   4.166
14706WAT     H244361   1.058   4.425   4.260
14707WAT      O44362   5.266   3.583   2.374
14707WAT     H144363   5.232   3.667   2.332
14707WAT     H244364   5.267   3.510   2.306
14708WAT      O44365   2.095   1.378   7.189
14708WAT     H144366   2.164   1.370   7.117
14708WAT     H244367   2.041   1.461   7.175
14709WAT      O44368   8.211   9.020   0.089
14709WAT     H144369   8.162   9.053   0.169
14709WAT     H244370   8.287   8.962   0.117
14710WAT      O44371   0.775   9.405   5.686
14710WAT     H144372   0.717   9.415   5.606
14710WAT     H244373   0.807   9.310   5.693
14711WAT      O44374   3.338   4.982   0.478
14711WAT     H144375   3.404   4.935   0.419
14711WAT     H244376   3.384   5.058   0.525
14712WAT      O44377   0.482   7.901   0.005
14712WAT     H144378   0.539   7.982  -0.007
14712WAT     H244379   0.408   7.922   0.069
14713WAT      O44380   7.669   1.162   2.617
14713WAT     H144381   7.740   1.225   2.587
14713WAT     H244382   7.590   1.214   2.651
14714WAT      O44383   1.810   3.543   3.843
14714WAT     H144384   1.729   3.504   3.888
14714WAT     H244385   1.833   3.489   3.762
14715WAT      O44386   0.350   0.680   3.925
14715WAT     H144387   0.361   0.733   4.009
14715WAT     H244388   0.330   0.741   3.849
14716WAT      O44389   3.138   6.845   4.262
14716WAT     H144390   3.162   6.833   4.358
14716WAT     H244391   3.218   6.826   4.205
14717WAT      O44392   9.506   5.973   9.374
14717WAT     H144393   9.452   5.896   9.342
14717WAT     H244394   9.458   6.058   9.354
14718WAT      O44395   2.064   3.116   0.790
14718WAT     H144396   2.026   3.147   0.877
14718WAT     H244397   2.144   3.058   0.807
14719WAT      O44398   8.730   8.842   6.269
14719WAT     H144399   8.744   8.932   6.310
14719WAT     H244400   8.719   8.773   6.340
14720WAT      O44401   4.657   6.411   0.553
14720WAT     H144402   4.691   6.421   0.459
14720WAT     H244403   4.580   6.348   0.553
14721WAT      O44404   6.456   2.328   5.683
14721WAT     H144405   6.363   2.363   5.671
14721WAT     H244406   6.519   2.379   5.624
14722WAT      O44407   2.529   8.341   3.324
14722WAT     H144408   2.594   8.418   3.325
14722WAT     H244409   2.503   8.321   3.230
14723WAT      O44410   5.189   2.406   1.194
14723WAT     H144411   5.126   2.480   1.218
14723WAT     H244412   5.148   2.349   1.122
14724WAT      O44413   8.934   6.789   8.008
14724WAT     H144414   8.907   6.874   8.053
14724WAT     H244415   8.917   6.712   8.070
14725WAT      O44416   0.572   1.070   3.801
14725WAT     H144417   0.500   1.136   3.780
14725WAT     H244418   0.619   1.043   3.717
14726WAT      O44419   2.562   4.581   6.457
14726WAT     H144420   2.610   4.523   6.524
14726WAT     H244421   2.611   4.667   6.446
14727WAT      O44422   9.512   8.570   5.911
14727WAT     H144423   9.485   8.621   5.993
14727WAT     H244424   9.498   8.627   5.830
14728WAT      O44425   3.007   1.015   0.826
14728WAT     H144426   3.090   1.048   0.781
14728WAT     H244427   2.929   1.024   0.763
14729WAT      O44428   8.311   4.341   2.492
14729WAT     H144429   8.237   4.375   2.434
14729WAT     H244430   8.399   4.374   2.458
14730WAT      O44431   9.659   1.319   8.338
14730WAT     H144432   9.562   1.296   8.350
14730WAT     H244433   9.681   1.317   8.240
14731WAT      O44434   3.200   6.021   3.743
14731WAT     H144435   3.140   6.083   3.793
14731WAT     H244436   3.263   5.976   3.807
14732WAT      O44437   3.358   7.138   4.102
14732WAT     H144438   3.393   7.106   4.190
14732WAT     H244439   3.424   7.199   4.060
14733WAT      O44440   6.936   5.034   3.258
14733WAT     H144441   6.996   5.089   3.317
14733WAT     H244442   6.892   5.093   3.191
14734WAT      O44443   8.027   9.543   0.587
14734WAT     H144444   8.084   9.589   0.519
14734WAT     H244445   8.049   9.446   0.590
14735WAT      O44446   8.884   6.191   4.901
14735WAT     H144447   8.972   6.189   4.853
14735WAT     H244448   8.893   6.143   4.989
14736WAT      O44449   8.655   1.107   4.592
14736WAT     H144450   8.728   1.047   4.559
14736WAT     H244451   8.693   1.175   4.654
14737WAT      O44452   9.875   0.767   1.981
14737WAT     H144453   9.925   0.680   1.987
14737WAT     H244454   9.783   0.749   1.945
14738WAT      O44455   2.292   5.477   5.099
14738WAT     H144456   2.207   5.437   5.065
14738WAT     H244457   2.358   5.484   5.024
14739WAT      O44458   7.394   2.808   1.719
14739WAT     H144459   7.399   2.887   1.658
14739WAT     H244460   7.401   2.839   1.814
14740WAT      O44461   3.184   1.365   0.278
14740WAT     H144462   3.274   1.407   0.293
14740WAT     H244463   3.133   1.418   0.211
14741WAT      O44464   8.849   3.870   8.451
14741WAT     H144465   8.792   3.947   8.478
14741WAT     H244466   8.916   3.901   8.383
14742WAT      O44467   7.431   1.728   8.304
14742WAT     H144468   7.498   1.803   8.297
14742WAT     H244469   7.424   1.699   8.399
14743WAT      O44470   5.983   4.204   2.441
14743WAT     H144471   6.050   4.153   2.495
14743WAT     H244472   5.893   4.197   2.483
14744WAT      O44473   3.357   0.027   2.532
14744WAT     H144474   3.449   0.032   2.569
14744WAT     H244475   3.351   0.086   2.451
14745WAT      O44476   9.423   8.088   0.539
14745WAT     H144477   9.519   8.116   0.537
14745WAT     H244478   9.366   8.162   0.502
14746WAT      O44479   3.140   8.402   4.571
14746WAT     H144480   3.112   8.455   4.491
14746WAT     H244481   3.109   8.447   4.654
14747WAT      O44482   0.874   7.868   1.348
14747WAT     H144483   0.898   7.774   1.372
14747WAT     H244484   0.958   7.921   1.331
14748WAT      O44485   8.624   7.216   5.760
14748WAT     H144486   8.537   7.216   5.808
14748WAT     H244487   8.634   7.130   5.709
14749WAT      O44488   5.994   8.055   2.322
14749WAT     H144489   5.957   8.131   2.376
14749WAT     H244490   6.073   8.086   2.269
14750WAT      O44491   1.866   8.245   5.258
14750WAT     H144492   1.774   8.209   5.274
14750WAT     H244493   1.867   8.295   5.171
14751WAT      O44494   7.242   8.875   9.692
14751WAT     H144495   7.305   8.832   9.628
14751WAT     H244496   7.181   8.805   9.731
14752WAT      O44497   6.651   6.152   2.399
14752WAT     H144498   6.573   6.206   2.432
14752WAT     H244499   6.666   6.171   2.302
14753WAT      O44500   9.272   4.214   5.326
14753WAT     H144501   9.343   4.147   5.349
14753WAT     H244502   9.290   4.251   5.234
14754WAT      O44503   2.072   6.617   3.228
14754WAT     H144504   2.036   6.581   3.142
14754WAT     H244505   2.000   6.619   3.297
14755WAT      O44506   7.736   4.679   3.731
14755WAT     H144507   7.702   4.704   3.640
14755WAT     H244508   7.793   4.752   3.767
14756WAT      O44509   0.049   9.032   2.979
14756WAT     H144510   0.009   9.116   2.943
14756WAT     H244511   0.047   9.035   3.079
14757WAT      O44512   1.317   9.343   6.903
14757WAT     H144513   1.220   9.352   6.881
14757WAT     H244514   1.355   9.264   6.855
14758WAT      O44515   7.635   8.302   1.570
14758WAT     H144516   7.687   8.351   1.639
14758WAT     H244517   7.678   8.315   1.480
14759WAT      O44518   8.448   8.330   4.562
14759WAT     H144519   8.399   8.332   4.475
14759WAT     H244520   8.545   8.350   4.547
14760WAT      O44521   3.290   2.816   7.594
14760WAT     H144522   3.256   2.817   7.688
14760WAT     H244523   3.388   2.838   7.593
14761WAT      O44524   1.123   6.804   1.639
14761WAT     H144525   1.135   6.893   1.682
14761WAT     H244526   1.213   6.764   1.619
14762WAT      O44527   1.636   3.313   9.615
14762WAT     H144528   1.597   3.299   9.524
14762WAT     H244529   1.671   3.407   9.622
14763WAT      O44530   5.219   5.765   8.635
14763WAT     H144531   5.120   5.760   8.622
14763WAT     H244532   5.257   5.674   8.647
14764WAT      O44533   1.689   8.103   2.732
14764WAT     H144534   1.593   8.101   2.705
14764WAT     H244535   1.712   8.193   2.768
14765WAT      O44536   3.635   0.317   3.638
14765WAT     H144537   3.731   0.339   3.655
14765WAT     H244538   3.610   0.342   3.545
14766WAT      O44539   4.573   0.486   2.777
14766WAT     H144540   4.592   0.390   2.796
14766WAT     H244541   4.480   0.508   2.806
14767WAT      O44542   1.458   7.025   0.614
14767WAT     H144543   1.446   7.091   0.539
14767WAT     H244544   1.384   6.959   0.612
14768WAT      O44545   2.829   3.554   4.862
14768WAT     H144546   2.811   3.595   4.951
14768WAT     H244547   2.787   3.610   4.790
14769WAT      O44548   6.074   8.729   6.069
14769WAT     H144549   6.168   8.725   6.103
14769WAT     H244550   6.032   8.815   6.097
14770WAT      O44551   1.036   6.184   0.412
14770WAT     H144552   0.943   6.223   0.414
14770WAT     H244553   1.057   6.155   0.319
14771WAT      O44554   2.256   1.068   9.197
14771WAT     H144555   2.302   1.035   9.115
14771WAT     H244556   2.207   1.152   9.176
14772WAT      O44557   4.674   7.131   5.067
14772WAT     H144558   4.730   7.129   4.984
14772WAT     H244559   4.578   7.143   5.043
14773WAT      O44560   4.510   1.701   5.318
14773WAT     H144561   4.581   1.767   5.343
14773WAT     H244562   4.428   1.750   5.289
14774WAT      O44563   8.980   2.444   0.942
14774WAT     H144564   8.998   2.347   0.957
14774WAT     H244565   8.935   2.456   0.853
14775WAT      O44566   7.817   1.704   7.855
14775WAT     H144567   7.739   1.646   7.879
14775WAT     H244568   7.873   1.720   7.936
14776WAT      O44569   7.221   5.232   0.904
14776WAT     H144570   7.125   5.248   0.879
14776WAT     H244571   7.278   5.303   0.863
14777WAT      O44572   8.655   4.075   0.356
14777WAT     H144573   8.726   4.078   0.427
14777WAT     H244574   8.698   4.079   0.266
14778WAT      O44575   8.338   8.304   0.040
14778WAT     H144576   8.326   8.205   0.047
14778WAT     H244577   8.310   8.335  -0.051
14779WAT      O44578   1.830   2.069   9.725
14779WAT     H144579   1.785   2.148   9.765
14779WAT     H244580   1.768   1.990   9.729
14780WAT      O44581   7.059   5.374   6.224
14780WAT     H144582   7.026   5.432   6.149
14780WAT     H244583   7.156   5.355   6.212
14781WAT      O44584   4.677   6.043   3.610
14781WAT     H144585   4.599   6.083   3.562
14781WAT     H244586   4.646   5.987   3.686
14782WAT      O44587   9.500   1.747   1.505
14782WAT     H144588   9.453   1.834   1.517
14782WAT     H244589   9.475   1.707   1.417
14783WAT      O44590   4.696   2.870   4.854
14783WAT     H144591   4.707   2.815   4.772
14783WAT     H244592   4.721   2.965   4.835
14784WAT      O44593   5.440   3.834   1.423
14784WAT     H144594   5.450   3.765   1.351
14784WAT     H244595   5.343   3.844   1.446
14785WAT      O44596   3.004   6.046   5.117
14785WAT     H144597   3.099   6.075   5.102
14785WAT     H244598   2.943   6.120   5.089
14786WAT      O44599   2.591   6.517   4.339
14786WAT     H144600   2.564   6.503   4.244
14786WAT     H244601   2.656   6.445   4.366
14787WAT      O44602   8.283   2.823   1.117
14787WAT     H144603   8.287   2.920   1.142
14787WAT     H244604   8.200   2.782   1.155
14788WAT      O44605   9.840   2.718   3.763
14788WAT     H144606   9.890   2.729   3.677
14788WAT     H244607   9.800   2.626   3.767
14789WAT      O44608   4.785   6.603   1.010
14789WAT     H144609   4.806   6.615   0.913
14789WAT     H244610   4.774   6.505   1.030
14790WAT      O44611   5.571   7.541   6.004
14790WAT     H144612   5.481   7.521   6.042
14790WAT     H244613   5.599   7.465   5.945
14791WAT      O44614   2.964   7.991   4.228
14791WAT     H144615   2.962   8.076   4.281
14791WAT     H244616   3.059   7.967   4.208
14792WAT      O44617   1.911   3.218   2.455
14792WAT     H144618   1.981   3.284   2.482
14792WAT     H244619   1.955   3.134   2.423
14793WAT      O44620   9.402   0.043   5.617
14793WAT     H144621   9.302   0.054   5.612
14793WAT     H244622   9.443   0.068   5.529
14794WAT      O44623   1.179   7.758   1.456
14794WAT     H144624   1.169   7.826   1.383
14794WAT     H244625   1.091   7.713   1.472
14795WAT      O44626   6.167   4.621   5.532
14795WAT     H144627   6.154   4.531   5.575
14795WAT     H244628   6.106   4.688   5.573
14796WAT      O44629   3.151   4.576   5.722
14796WAT     H144630   3.218   4.581   5.648
14796WAT     H244631   3.060   4.561   5.684
14797WAT      O44632   2.144   3.825   1.123
14797WAT     H144633   2.234   3.837   1.164
14797WAT     H244634   2.074   3.832   1.194
14798WAT      O44635   7.145   9.421   3.600
14798WAT     H144636   7.048   9.446   3.608
14798WAT     H244637   7.189   9.429   3.689
14799WAT      O44638   9.307   7.322   4.728
14799WAT     H144639   9.368   7.258   4.681
14799WAT     H244640   9.267   7.385   4.661
14800WAT      O44641   2.208   5.974   5.588
14800WAT     H144642   2.290   5.984   5.645
14800WAT     H244643   2.211   5.885   5.542
14801WAT      O44644   5.201   3.329   9.562
14801WAT     H144645   5.108   3.293   9.576
14801WAT     H244646   5.214   3.352   9.466
14802WAT      O44647   3.015   3.839   3.367
14802WAT     H144648   3.050   3.931   3.352
14802WAT     H244649   3.078   3.773   3.326
14803WAT      O44650   3.528   6.308   9.080
14803WAT     H144651   3.482   6.312   9.169
14803WAT     H244652   3.602   6.240   9.084
14804WAT      O44653   5.032   6.871   1.585
14804WAT     H144654   4.942   6.830   1.601
14804WAT     H244655   5.060   6.922   1.666
14805WAT      O44656   3.082   9.318   9.760
14805WAT     H144657   3.044   9.314   9.667
14805WAT     H244658   3.061   9.406   9.802
14806WAT      O44659   5.529   0.623   9.148
14806WAT     H144660   5.456   0.612   9.080
14806WAT     H244661   5.564   0.533   9.175
14807WAT      O44662   5.342   5.927   8.820
14807WAT     H144663   5.276   5.946   8.893
14807WAT     H244664   5.295   5.885   8.743
14808WAT      O44665   9.491   9.157   4.457
14808WAT     H144666   9.485   9.069   4.409
14808WAT     H244667   9.584   9.169   4.492
14809WAT      O44668   0.376   1.326   4.095
14809WAT     H144669   0.320   1.408   4.109
14809WAT     H244670   0.472   1.353   4.084
14810WAT      O44671   9.881   3.688   4.876
14810WAT     H144672   9.945   3.633   4.930
14810WAT     H244673   9.862   3.773   4.925
14811WAT      O44674   7.185   9.666   1.009
14811WAT     H144675   7.231   9.729   0.946
14811WAT     H244676   7.128   9.603   0.956
14812WAT      O44677   9.669   4.711   7.461
14812WAT     H144678   9.624   4.754   7.383
14812WAT     H244679   9.603   4.652   7.508
14813WAT      O44680   1.691   1.373   6.500
14813WAT     H144681   1.624   1.419   6.558
14813WAT     H244682   1.665   1.278   6.487
14814WAT      O44683   6.287   8.906   2.598
14814WAT     H144684   6.217   8.899   2.527
14814WAT     H244685   6.280   8.827   2.659
14815WAT      O44686   5.054   6.738   2.931
14815WAT     H144687   5.057   6.717   3.029
14815WAT     H244688   4.976   6.798   2.913
14816WAT      O44689   8.246   2.442   3.587
14816WAT     H144690   8.281   2.519   3.534
14816WAT     H244691   8.164   2.470   3.637
14817WAT      O44692   8.993   4.186   4.832
14817WAT     H144693   9.016   4.093   4.803
14817WAT     H244694   8.900   4.188   4.869
14818WAT      O44695   9.270   5.041   0.258
14818WAT     H144696   9.327   5.120   0.237
14818WAT     H244697   9.311   4.959   0.218
14819WAT      O44698   7.986   9.360   6.725
14819WAT     H144699   7.997   9.442   6.781
14819WAT     H244700   7.999   9.383   6.629
14820WAT      O44701   8.769   0.370   7.330
14820WAT     H144702   8.771   0.467   7.304
14820WAT     H244703   8.805   0.315   7.255
14821WAT      O44704   6.053   6.645   8.891
14821WAT     H144705   6.041   6.556   8.936
14821WAT     H244706   5.976   6.661   8.828
14822WAT      O44707   2.362   1.541   9.163
14822WAT     H144708   2.363   1.602   9.084
14822WAT     H244709   2.453   1.504   9.179
14823WAT      O44710   6.425   9.589   0.541
14823WAT     H144711   6.449   9.579   0.637
14823WAT     H244712   6.496   9.641   0.494
14824WAT      O44713   5.010   1.341   2.264
14824WAT     H144714   5.032   1.361   2.168
14824WAT     H244715   4.919   1.377   2.285
14825WAT      O44716   8.342   3.585   4.961
14825WAT     H144717   8.311   3.675   4.990
14825WAT     H244718   8.317   3.517   5.031
14826WAT      O44719   4.001   6.859   7.939
14826WAT     H144720   4.093   6.854   7.979
14826WAT     H244721   4.003   6.920   7.860
14827WAT      O44722   3.482   8.364   6.977
14827WAT     H144723   3.518   8.455   6.996
14827WAT     H244724   3.404   8.372   6.914
14828WAT      O44725   4.548   0.096   6.932
14828WAT     H144726   4.612   0.139   6.996
14828WAT     H244727   4.538  -0.001   6.954
14829WAT      O44728   4.640   7.675   4.588
14829WAT     H144729   4.616   7.770   4.608
14829WAT     H244730   4.593   7.646   4.505
14830WAT      O44731   1.927   0.008   3.876
14830WAT     H144732   2.012  -0.016   3.924
14830WAT     H244733   1.848  -0.018   3.931
14831WAT      O44734   0.240   6.417   1.917
14831WAT     H144735   0.165   6.480   1.933
14831WAT     H244736   0.216   6.326   1.950
14832WAT      O44737   8.857   2.047   7.588
14832WAT     H144738   8.913   2.025   7.668
14832WAT     H244739   8.768   2.081   7.619
14833WAT      O44740   3.626   0.651   7.795
14833WAT     H144741   3.559   0.584   7.765
14833WAT     H244742   3.646   0.638   7.892
14834WAT      O44743   1.792   9.177   8.692
14834WAT     H144744   1.851   9.213   8.764
14834WAT     H244745   1.824   9.087   8.664
14835WAT      O44746   4.460   1.561   1.464
14835WAT     H144747   4.475   1.462   1.459
14835WAT     H244748   4.544   1.608   1.439
14836WAT      O44749   0.132   9.829   7.404
14836WAT     H144750   0.168   9.888   7.331
14836WAT     H244751   0.207   9.778   7.445
14837WAT      O44752   8.386   5.141   1.303
14837WAT     H144753   8.413   5.212   1.367
14837WAT     H244754   8.452   5.065   1.307
14838WAT      O44755   2.273   2.861   4.789
14838WAT     H144756   2.266   2.763   4.768
14838WAT     H244757   2.188   2.906   4.763
14839WAT      O44758   7.541   8.137   2.002
14839WAT     H144759   7.591   8.108   1.920
14839WAT     H244760   7.494   8.058   2.042
14840WAT      O44761   2.602   6.280   2.453
14840WAT     H144762   2.624   6.268   2.549
14840WAT     H244763   2.557   6.197   2.418
14841WAT      O44764   5.812   1.454   4.176
14841WAT     H144765   5.818   1.445   4.275
14841WAT     H244766   5.770   1.371   4.138
14842WAT      O44767   1.567   7.599   3.900
14842WAT     H144768   1.548   7.660   3.823
14842WAT     H244769   1.482   7.553   3.927
14843WAT      O44770   5.437   6.888   3.346
14843WAT     H144771   5.372   6.933   3.286
14843WAT     H244772   5.509   6.953   3.371
14844WAT      O44773   4.625   0.657   0.522
14844WAT     H144774   4.712   0.659   0.572
14844WAT     H244775   4.638   0.696   0.431
14845WAT      O44776   9.547   6.668   8.034
14845WAT     H144777   9.451   6.694   8.047
14845WAT     H244778   9.551   6.585   7.978
14846WAT      O44779   5.454   0.276   7.942
14846WAT     H144780   5.428   0.372   7.948
14846WAT     H244781   5.472   0.252   7.847
14847WAT      O44782   0.022   4.905   4.832
14847WAT     H144783   0.120   4.922   4.829
14847WAT     H244784  -0.024   4.961   4.762
14848WAT      O44785   0.394   9.629   5.262
14848WAT     H144786   0.337   9.652   5.183
14848WAT     H244787   0.427   9.535   5.254
14849WAT      O44788   3.460   3.443   6.259
14849WAT     H144789   3.531   3.437   6.330
14849WAT     H244790   3.501   3.421   6.170
14850WAT      O44791   0.619   9.491   0.811
14850WAT     H144792   0.716   9.471   0.824
14850WAT     H244793   0.584   9.438   0.733
14851WAT      O44794   9.209   3.571   6.978
14851WAT     H144795   9.281   3.593   7.045
14851WAT     H244796   9.243   3.591   6.886
14852WAT      O44797   5.913   8.688   4.958
14852WAT     H144798   5.852   8.704   5.036
14852WAT     H244799   5.919   8.590   4.940
14853WAT      O44800   5.822   6.426   7.764
14853WAT     H144801   5.737   6.374   7.749
14853WAT     H244802   5.878   6.379   7.832
14854WAT      O44803   1.748   4.967   5.845
14854WAT     H144804   1.732   4.869   5.833
14854WAT     H244805   1.726   5.014   5.760
14855WAT      O44806   9.628   5.023   4.942
14855WAT     H144807   9.684   4.949   4.905
14855WAT     H244808   9.673   5.110   4.924
14856WAT      O44809   2.528   8.056   8.437
14856WAT     H144810   2.565   8.147   8.417
14856WAT     H244811   2.445   8.042   8.382
14857WAT      O44812   8.588   5.793   4.305
14857WAT     H144813   8.605   5.846   4.388
14857WAT     H244814   8.510   5.732   4.320
14858WAT      O44815   8.876   6.465   5.969
14858WAT     H144816   8.843   6.477   5.875
14858WAT     H244817   8.847   6.376   6.003
14859WAT      O44818   4.833   3.074   5.619
14859WAT     H144819   4.838   3.173   5.619
14859WAT     H244820   4.740   3.045   5.642
14860WAT      O44821   0.457   9.112   4.050
14860WAT     H144822   0.403   9.033   4.020
14860WAT     H244823   0.404   9.196   4.037
14861WAT      O44824   1.403   2.873   9.264
14861WAT     H144825   1.408   2.799   9.331
14861WAT     H244826   1.483   2.870   9.204
14862WAT      O44827   5.143   8.414   7.862
14862WAT     H144828   5.159   8.474   7.941
14862WAT     H244829   5.183   8.324   7.879
14863WAT      O44830   5.402   8.593   3.323
14863WAT     H144831   5.392   8.555   3.416
14863WAT     H244832   5.389   8.692   3.326
14864WAT      O44833   0.314   5.577   9.402
14864WAT     H144834   0.225   5.561   9.445
14864WAT     H244835   0.341   5.495   9.351
14865WAT      O44836   7.963   1.227   2.266
14865WAT     H144837   7.899   1.171   2.214
14865WAT     H244838   8.024   1.167   2.319
14866WAT      O44839   3.677   7.409   5.900
14866WAT     H144840   3.606   7.468   5.938
14866WAT     H244841   3.681   7.421   5.801
14867WAT      O44842   4.072   1.049   7.362
14867WAT     H144843   4.010   1.091   7.428
14867WAT     H244844   4.161   1.033   7.406
14868WAT      O44845   4.390   4.885   3.387
14868WAT     H144846   4.437   4.973   3.385
14868WAT     H244847   4.365   4.858   3.294
14869WAT      O44848   4.376   6.262   8.214
14869WAT     H144849   4.337   6.286   8.303
14869WAT     H244850   4.403   6.345   8.166
14870WAT      O44851   3.824   2.236   6.607
14870WAT     H144852   3.858   2.268   6.519
14870WAT     H244853   3.748   2.172   6.592
14871WAT      O44854   4.928   6.122   1.963
14871WAT     H144855   4.895   6.148   1.872
14871WAT     H244856   4.872   6.168   2.032
14872WAT      O44857   0.954   3.915   7.741
14872WAT     H144858   1.039   3.891   7.787
14872WAT     H244859   0.975   3.972   7.661
14873WAT      O44860   7.774   5.137   4.209
14873WAT     H144861   7.781   5.049   4.162
14873WAT     H244862   7.702   5.133   4.277
14874WAT      O44863   0.570   5.418   2.548
14874WAT     H144864   0.615   5.446   2.463
14874WAT     H244865   0.560   5.319   2.549
14875WAT      O44866   9.329   8.170   5.698
14875WAT     H144867   9.422   8.148   5.669
14875WAT     H244868   9.332   8.225   5.781
14876WAT      O44869   7.968   4.438   0.959
14876WAT     H144870   7.947   4.355   1.011
14876WAT     H244871   7.907   4.512   0.987
14877WAT      O44872   4.345   1.104   6.808
14877WAT     H144873   4.401   1.185   6.788
14877WAT     H244874   4.385   1.053   6.884
14878WAT      O44875   4.097   5.299   7.026
14878WAT     H144876   4.176   5.345   6.986
14878WAT     H244877   4.016   5.316   6.969
14879WAT      O44878   9.460   0.717   7.311
14879WAT     H144879   9.431   0.652   7.241
14879WAT     H244880   9.398   0.796   7.311
14880WAT      O44881   2.214   6.903   6.513
14880WAT     H144882   2.285   6.835   6.529
14880WAT     H244883   2.214   6.930   6.417
14881WAT      O44884   0.962   3.001   8.131
14881WAT     H144885   0.905   3.082   8.116
14881WAT     H244886   0.913   2.919   8.103
14882WAT      O44887   4.707   8.371   7.903
14882WAT     H144888   4.734   8.386   7.999
14882WAT     H244889   4.618   8.326   7.900
14883WAT      O44890   7.189   3.027   4.672
14883WAT     H144891   7.283   3.001   4.692
14883WAT     H244892   7.129   2.948   4.683
14884WAT      O44893   0.702   9.581   8.178
14884WAT     H144894   0.620   9.535   8.213
14884WAT     H244895   0.677   9.639   8.100
14885WAT      O44896   4.102   8.461   7.957
14885WAT     H144897   4.201   8.461   7.975
14885WAT     H244898   4.087   8.446   7.859
14886WAT      O44899   7.279   7.882   5.503
14886WAT     H144900   7.247   7.957   5.560
14886WAT     H244901   7.379   7.875   5.509
14887WAT      O44902   9.356   5.965   0.691
14887WAT     H144903   9.444   6.011   0.707
14887WAT     H244904   9.357   5.921   0.601
14888WAT      O44905   0.451   6.036   6.303
14888WAT     H144906   0.416   6.128   6.322
14888WAT     H244907   0.510   6.007   6.378
14889WAT      O44908   2.471   0.093   7.064
14889WAT     H144909   2.500   0.183   7.031
14889WAT     H244910   2.436   0.039   6.987
14890WAT      O44911   9.226   1.695   5.435
14890WAT     H144912   9.221   1.795   5.441
14890WAT     H244913   9.314   1.668   5.396
14891WAT      O44914   0.866   0.784   7.791
14891WAT     H144915   0.939   0.824   7.848
14891WAT     H244916   0.907   0.730   7.718
14892WAT      O44917   4.466   5.928   0.336
14892WAT     H144918   4.423   6.017   0.322
14892WAT     H244919   4.427   5.885   0.418
14893WAT      O44920   7.700   3.671   1.177
14893WAT     H144921   7.705   3.593   1.240
14893WAT     H244922   7.784   3.724   1.183
14894WAT      O44923   8.855   4.739   7.811
14894WAT     H144924   8.769   4.743   7.760
14894WAT     H244925   8.917   4.675   7.766
14895WAT      O44926   4.937   0.952   9.471
14895WAT     H144927   4.948   1.027   9.406
14895WAT     H244928   4.966   0.982   9.562
14896WAT      O44929   7.631   0.733   2.445
14896WAT     H144930   7.540   0.698   2.468
14896WAT     H244931   7.676   0.765   2.528
14897WAT      O44932   6.202   8.190   9.834
14897WAT     H144933   6.178   8.128   9.908
14897WAT     H244934   6.175   8.151   9.746
14898WAT      O44935   7.672   6.951   8.207
14898WAT     H144936   7.599   6.976   8.144
14898WAT     H244937   7.661   6.855   8.233
14899WAT      O44938   9.566   8.746   3.218
14899WAT     H144939   9.496   8.689   3.260
14899WAT     H244940   9.523   8.810   3.155
14900WAT      O44941   3.457   5.347   0.169
14900WAT     H144942   3.510   5.430   0.151
14900WAT     H244943   3.486   5.275   0.106
14901WAT      O44944   9.030   8.420   6.264
14901WAT     H144945   9.038   8.369   6.179
14901WAT     H244946   9.059   8.514   6.249
14902WAT      O44947   0.597   6.420   3.167
14902WAT     H144948   0.664   6.382   3.104
14902WAT     H244949   0.638   6.496   3.218
14903WAT      O44950   7.231   5.860   2.687
14903WAT     H144951   7.191   5.894   2.602
14903WAT     H244952   7.158   5.834   2.750
14904WAT      O44953   8.149   6.631   7.070
14904WAT     H144954   8.059   6.588   7.077
14904WAT     H244955   8.220   6.565   7.095
14905WAT      O44956   0.063   7.934   1.881
14905WAT     H144957   0.161   7.913   1.887
14905WAT     H244958   0.029   7.911   1.790
14906WAT      O44959   6.757   8.766   1.605
14906WAT     H144960   6.662   8.794   1.591
14906WAT     H244961   6.815   8.848   1.614
14907WAT      O44962   5.020   8.718   1.190
14907WAT     H144963   4.987   8.797   1.241
14907WAT     H244964   5.076   8.749   1.112
14908WAT      O44965   0.042   8.163   8.589
14908WAT     H144966  -0.033   8.226   8.609
14908WAT     H244967   0.113   8.211   8.537
14909WAT      O44968   3.567   7.643   7.234
14909WAT     H144969   3.610   7.586   7.304
14909WAT     H244970   3.635   7.668   7.164
14910WAT      O44971   4.253   3.601   4.488
14910WAT     H144972   4.255   3.700   4.473
14910WAT     H244973   4.187   3.560   4.425
14911WAT      O44974   7.946   8.829   9.057
14911WAT     H144975   7.912   8.915   9.019
14911WAT     H244976   7.869   8.775   9.092
14912WAT      O44977   7.806   1.207   8.727
14912WAT     H144978   7.878   1.189   8.660
14912WAT     H244979   7.795   1.306   8.739
14913WAT      O44980   3.239   9.620   7.866
14913WAT     H144981   3.288   9.707   7.875
14913WAT     H244982   3.242   9.572   7.954
14914WAT      O44983   7.427   1.893   2.918
14914WAT     H144984   7.425   1.949   2.835
14914WAT     H244985   7.360   1.928   2.983
14915WAT      O44986   5.467   3.339   2.920
14915WAT     H144987   5.400   3.269   2.944
14915WAT     H244988   5.438   3.427   2.957
14916WAT      O44989   2.103   5.372   6.892
14916WAT     H144990   2.086   5.295   6.953
14916WAT     H244991   2.085   5.345   6.797
14917WAT      O44992   8.847   6.249   7.589
14917WAT     H144993   8.922   6.259   7.654
14917WAT     H244994   8.860   6.313   7.513
14918WAT      O44995   4.528   8.018   6.501
14918WAT     H144996   4.472   8.021   6.584
14918WAT     H244997   4.607   7.958   6.516
14919WAT      O44998   2.658   5.297   3.426
14919WAT     H144999   2.562   5.323   3.432
14919WAT     H245000   2.714   5.378   3.407
14920WAT      O45001   1.601   3.763   7.384
14920WAT     H145002   1.582   3.685   7.325
14920WAT     H245003   1.516   3.811   7.405
14921WAT      O45004   0.517   8.896   6.099
14921WAT     H145005   0.512   8.841   6.182
14921WAT     H245006   0.499   8.992   6.122
14922WAT      O45007   7.997   7.139   5.155
14922WAT     H145008   8.091   7.166   5.174
14922WAT     H245009   7.997   7.062   5.091
14923WAT      O45010   6.548   9.588   1.926
14923WAT     H145011   6.571   9.562   2.020
14923WAT     H245012   6.601   9.533   1.862
14924WAT      O45013   5.606   0.279   9.650
14924WAT     H145014   5.630   0.187   9.620
14924WAT     H245015   5.641   0.346   9.585
14925WAT      O45016   9.711   4.015   7.919
14925WAT     H145017   9.695   3.991   8.015
14925WAT     H245018   9.689   3.936   7.861
14926WAT      O45019   6.621   6.803   5.843
14926WAT     H145020   6.659   6.779   5.932
14926WAT     H245021   6.556   6.878   5.853
14927WAT      O45022   3.059   9.056   0.509
14927WAT     H145023   3.126   8.982   0.511
14927WAT     H245024   3.063   9.107   0.595
14928WAT      O45025   3.111   5.110   1.723
14928WAT     H145026   3.029   5.052   1.733
14928WAT     H245027   3.107   5.183   1.791
14929WAT      O45028   0.749   9.599   6.931
14929WAT     H145029   0.681   9.548   6.878
14929WAT     H245030   0.707   9.633   7.015
14930WAT      O45031   2.939   3.823   4.795
14930WAT     H145032   2.847   3.800   4.765
14930WAT     H245033   2.981   3.742   4.838
14931WAT      O45034   2.825   1.202   3.069
14931WAT     H145035   2.896   1.187   3.001
14931WAT     H245036   2.858   1.172   3.159
14932WAT      O45037   6.806   6.627   0.147
14932WAT     H145038   6.783   6.618   0.050
14932WAT     H245039   6.765   6.551   0.198
14933WAT      O45040   9.193   3.105   7.580
14933WAT     H145041   9.197   3.151   7.669
14933WAT     H245042   9.100   3.111   7.544
14934WAT      O45043   8.362   5.971   7.469
14934WAT     H145044   8.435   5.959   7.402
14934WAT     H245045   8.371   5.900   7.540
14935WAT      O45046   2.144   4.723   8.561
14935WAT     H145047   2.124   4.807   8.509
14935WAT     H245048   2.103   4.645   8.515
14936WAT      O45049   1.726   5.383   6.772
14936WAT     H145050   1.709   5.476   6.740
14936WAT     H245051   1.799   5.342   6.716
14937WAT      O45052   7.116   5.243   9.298
14937WAT     H145053   7.053   5.168   9.278
14937WAT     H245054   7.196   5.207   9.348
14938WAT      O45055   5.001   6.875   7.288
14938WAT     H145056   5.092   6.847   7.257
14938WAT     H245057   4.947   6.904   7.209
14939WAT      O45058   6.053   1.054   1.022
14939WAT     H145059   6.025   0.987   1.090
14939WAT     H245060   6.149   1.038   0.998
14940WAT      O45061   8.856   4.497   5.016
14940WAT     H145062   8.846   4.522   5.113
14940WAT     H245063   8.820   4.406   5.002
14941WAT      O45064   6.010   0.472   5.937
14941WAT     H145065   5.936   0.455   5.872
14941WAT     H245066   6.043   0.385   5.974
14942WAT      O45067   7.161   7.650   5.503
14942WAT     H145068   7.220   7.731   5.499
14942WAT     H245069   7.218   7.568   5.505
14943WAT      O45070   3.712   9.759   6.479
14943WAT     H145071   3.755   9.751   6.569
14943WAT     H245072   3.708   9.669   6.436
14944WAT      O45073   3.494   7.231   6.248
14944WAT     H145074   3.448   7.307   6.202
14944WAT     H245075   3.447   7.146   6.229
14945WAT      O45076   9.634   1.444   9.870
14945WAT     H145077   9.619   1.534   9.912
14945WAT     H245078   9.584   1.375   9.921
14946WAT      O45079   1.474   4.785   0.621
14946WAT     H145080   1.435   4.745   0.538
14946WAT     H245081   1.405   4.842   0.666
14947WAT      O45082   3.940   0.363   1.790
14947WAT     H145083   3.886   0.279   1.802
14947WAT     H245084   4.037   0.343   1.802
14948WAT      O45085   9.094   2.448   9.254
14948WAT     H145086   9.047   2.369   9.214
14948WAT     H245087   9.085   2.445   9.354
14949WAT      O45088   1.539   0.407   9.250
14949WAT     H145089   1.589   0.324   9.277
14949WAT     H245090   1.468   0.427   9.318
14950WAT      O45091   0.551   8.053   0.615
14950WAT     H145092   0.523   8.061   0.710
14950WAT     H245093   0.519   8.133   0.564
14951WAT      O45094   3.331   1.145   0.239
14951WAT     H145095   3.409   1.159   0.178
14951WAT     H245096   3.302   1.233   0.277
14952WAT      O45097   6.855   3.725   5.558
14952WAT     H145098   6.828   3.731   5.462
14952WAT     H245099   6.795   3.783   5.613
14953WAT      O45100   5.723   6.410   4.613
14953WAT     H145101   5.789   6.479   4.641
14953WAT     H245102   5.656   6.451   4.551
14954WAT      O45103   6.766   1.012   8.140
14954WAT     H145104   6.847   0.965   8.105
14954WAT     H245105   6.763   1.004   8.239
14955WAT      O45106   2.920   8.202   5.699
14955WAT     H145107   3.013   8.194   5.734
14955WAT     H245108   2.855   8.180   5.772
14956WAT      O45109   8.437   1.870   0.859
14956WAT     H145110   8.433   1.845   0.956
14956WAT     H245111   8.345   1.865   0.820
14957WAT      O45112   0.284   7.318   2.842
14957WAT     H145113   0.193   7.340   2.807
14957WAT     H245114   0.321   7.397   2.890
14958WAT      O45115   2.668   2.472   9.691
14958WAT     H145116   2.641   2.562   9.655
14958WAT     H245117   2.693   2.412   9.615
14959WAT      O45118   7.762   4.616   3.999
14959WAT     H145119   7.744   4.641   3.904
14959WAT     H245120   7.816   4.532   4.002
14960WAT      O45121   9.316   6.616   9.214
14960WAT     H145122   9.311   6.533   9.159
14960WAT     H245123   9.248   6.682   9.181
14961WAT      O45124   6.249   8.847   6.629
14961WAT     H145125   6.326   8.822   6.688
14961WAT     H245126   6.164   8.813   6.669
14962WAT      O45127   3.562   4.322   6.926
14962WAT     H145128   3.479   4.266   6.933
14962WAT     H245129   3.579   4.342   6.830
14963WAT      O45130   4.854   8.424   6.448
14963WAT     H145131   4.819   8.336   6.478
14963WAT     H245132   4.898   8.414   6.358
14964WAT      O45133   5.321   6.227   1.515
14964WAT     H145134   5.371   6.141   1.517
14964WAT     H245135   5.225   6.210   1.491
14965WAT      O45136   7.634   0.309   4.353
14965WAT     H145137   7.652   0.346   4.261
14965WAT     H245138   7.567   0.366   4.400
14966WAT      O45139   2.258   5.300   6.515
14966WAT     H145140   2.269   5.301   6.416
14966WAT     H245141   2.257   5.393   6.550
14967WAT      O45142   3.539   8.276   1.847
14967WAT     H145143   3.462   8.222   1.879
14967WAT     H245144   3.558   8.349   1.913
14968WAT      O45145   3.695   1.289   8.490
14968WAT     H145146   3.705   1.190   8.481
14968WAT     H245147   3.603   1.311   8.523
14969WAT      O45148   7.129   3.592   4.941
14969WAT     H145149   7.176   3.680   4.938
14969WAT     H245150   7.093   3.570   4.850
14970WAT      O45151   6.509   1.493   4.678
14970WAT     H145152   6.455   1.410   4.691
14970WAT     H245153   6.530   1.505   4.581
14971WAT      O45154   9.778   5.040   4.608
14971WAT     H145155   9.704   4.994   4.559
14971WAT     H245156   9.741   5.118   4.658
14972WAT      O45157   5.503   4.826   0.484
14972WAT     H145158   5.441   4.848   0.409
14972WAT     H245159   5.597   4.825   0.449
14973WAT      O45160   1.276   0.909   6.922
14973WAT     H145161   1.248   0.933   7.015
14973WAT     H245162   1.338   0.830   6.925
14974WAT      O45163   2.336   0.412   9.477
14974WAT     H145164   2.284   0.360   9.545
14974WAT     H245165   2.366   0.499   9.517
14975WAT      O45166   8.440   1.013   0.916
14975WAT     H145167   8.373   1.078   0.881
14975WAT     H245168   8.479   0.961   0.839
14976WAT      O45169   6.714   5.107   9.317
14976WAT     H145170   6.768   5.057   9.386
14976WAT     H245171   6.731   5.205   9.328
14977WAT      O45172   5.760   0.447   1.082
14977WAT     H145173   5.846   0.451   1.031
14977WAT     H245174   5.779   0.449   1.180
14978WAT      O45175   2.914   9.087   5.323
14978WAT     H145176   2.848   9.056   5.390
14978WAT     H245177   2.941   9.182   5.344
14979WAT      O45178   3.082   4.660   9.538
14979WAT     H145179   3.037   4.571   9.527
14979WAT     H245180   3.017   4.733   9.514
14980WAT      O45181   7.856   1.297   7.988
14980WAT     H145182   7.912   1.367   7.943
14980WAT     H245183   7.907   1.212   7.994
14981WAT      O45184   2.771   5.582   7.692
14981WAT     H145185   2.724   5.563   7.606
14981WAT     H245186   2.850   5.521   7.702
14982WAT      O45187   5.733   3.795   3.960
14982WAT     H145188   5.676   3.832   3.887
14982WAT     H245189   5.827   3.827   3.948
14983WAT      O45190   3.661   4.622   7.668
14983WAT     H145191   3.740   4.669   7.707
14983WAT     H245192   3.689   4.571   7.587
14984WAT      O45193   2.971   8.913   9.705
14984WAT     H145194   2.941   8.821   9.680
14984WAT     H245195   3.040   8.945   9.640
14985WAT      O45196   9.791   0.646   0.046
14985WAT     H145197   9.809   0.597   0.132
14985WAT     H245198   9.787   0.581  -0.029
14986WAT      O45199   1.482   7.908   0.687
14986WAT     H145200   1.453   7.884   0.780
14986WAT     H245201   1.580   7.891   0.678
14987WAT      O45202   9.434   8.537   4.441
14987WAT     H145203   9.475   8.602   4.505
14987WAT     H245204   9.479   8.449   4.449
14988WAT      O45205   2.172   3.350   5.635
14988WAT     H145206   2.228   3.430   5.613
14988WAT     H245207   2.101   3.339   5.565
14989WAT      O45208   6.666   4.621   4.745
14989WAT     H145209   6.644   4.546   4.682
14989WAT     H245210   6.606   4.699   4.726
14990WAT      O45211   2.802   3.761   3.529
14990WAT     H145212   2.882   3.785   3.473
14990WAT     H245213   2.785   3.834   3.595
14991WAT      O45214   0.605   7.432   8.727
14991WAT     H145215   0.513   7.393   8.723
14991WAT     H245216   0.609   7.514   8.671
14992WAT      O45217   1.049   2.979   5.340
14992WAT     H145218   1.011   3.064   5.302
14992WAT     H245219   0.998   2.955   5.423
14993WAT      O45220   2.947   4.451   0.211
14993WAT     H145221   2.997   4.421   0.292
14993WAT     H245222   2.977   4.399   0.131
14994WAT      O45223   7.601   0.340   9.143
14994WAT     H145224   7.648   0.252   9.137
14994WAT     H245225   7.538   0.339   9.221
14995WAT      O45226   8.333   7.253   0.619
14995WAT     H145227   8.244   7.283   0.654
14995WAT     H245228   8.320   7.207   0.532
14996WAT      O45229   7.997   7.810   4.401
14996WAT     H145230   7.909   7.839   4.437
14996WAT     H245231   8.069   7.868   4.439
14997WAT      O45232   4.494   7.392   7.125
14997WAT     H145233   4.437   7.443   7.061
14997WAT     H245234   4.528   7.309   7.080
14998WAT      O45235   6.620   1.397   9.020
14998WAT     H145236   6.584   1.323   8.963
14998WAT     H245237   6.720   1.392   9.021
14999WAT      O45238   6.895   1.434   8.979
14999WAT     H145239   6.931   1.487   8.903
14999WAT     H245240   6.926   1.339   8.972
15000WAT      O45241   2.837   6.053   0.372
15000WAT     H145242   2.859   6.003   0.456
15000WAT     H245243   2.917   6.052   0.311
15001WAT      O45244   0.717   4.806   2.692
15001WAT     H145245   0.645   4.858   2.647
15001WAT     H245246   0.755   4.740   2.627
15002WAT      O45247   1.915   6.212   5.057
15002WAT     H145248   1.920   6.215   5.156
15002WAT     H245249   1.927   6.304   5.019
15003WAT      O45250   6.101   9.224   0.628
15003WAT     H145251   6.071   9.278   0.706
15003WAT     H245252   6.087   9.275   0.544
15004WAT      O45253   0.788   7.150   6.451
15004WAT     H145254   0.854   7.167   6.377
15004WAT     H245255   0.708   7.208   6.437
15005WAT      O45256   2.418   9.827   3.410
15005WAT     H145257   2.378   9.888   3.341
15005WAT     H245258   2.458   9.747   3.365
15006WAT      O45259   0.748   1.324   7.347
15006WAT     H145260   0.840   1.296   7.372
15006WAT     H245261   0.690   1.244   7.335
15007WAT      O45262   1.777   2.477   7.984
15007WAT     H145263   1.724   2.420   7.921
15007WAT     H245264   1.744   2.463   8.077
15008WAT      O45265   0.793   5.886   9.161
15008WAT     H145266   0.862   5.905   9.092
15008WAT     H245267   0.802   5.951   9.236
15009WAT      O45268   4.406   5.673   3.386
15009WAT     H145269   4.372   5.767   3.375
15009WAT     H245270   4.504   5.675   3.406
15010WAT      O45271   0.231   3.866   3.906
15010WAT     H145272   0.320   3.864   3.952
15010WAT     H245273   0.206   3.774   3.878
15011WAT      O45274   8.888   1.682   0.904
15011WAT     H145275   8.851   1.631   0.981
15011WAT     H245276   8.813   1.717   0.848
15012WAT      O45277   2.728   8.777   3.897
15012WAT     H145278   2.716   8.709   3.825
15012WAT     H245279   2.824   8.805   3.902
15013WAT      O45280   7.179   3.102   3.377
15013WAT     H145281   7.246   3.105   3.451
15013WAT     H245282   7.193   3.180   3.316
15014WAT      O45283   7.420   6.747   7.440
15014WAT     H145284   7.379   6.814   7.378
15014WAT     H245285   7.450   6.667   7.386
15015WAT      O45286   2.878   5.316   1.757
15015WAT     H145287   2.850   5.397   1.706
15015WAT     H245288   2.815   5.241   1.738
15016WAT      O45289   6.403   9.515   6.921
15016WAT     H145290   6.363   9.451   6.988
15016WAT     H245291   6.488   9.552   6.957
15017WAT      O45292   7.394   8.233   5.475
15017WAT     H145293   7.405   8.294   5.396
15017WAT     H245294   7.483   8.215   5.516
15018WAT      O45295   2.923   0.235   1.810
15018WAT     H145296   2.916   0.226   1.910
15018WAT     H245297   2.902   0.330   1.784
15019WAT      O45298   7.192   3.055   7.806
15019WAT     H145299   7.278   3.005   7.800
15019WAT     H245300   7.144   3.050   7.719
15020WAT      O45301   5.372   2.307   8.939
15020WAT     H145302   5.309   2.383   8.921
15020WAT     H245303   5.321   2.226   8.966
15021WAT      O45304   1.626   3.862   0.397
15021WAT     H145305   1.572   3.809   0.462
15021WAT     H245306   1.641   3.808   0.314
15022WAT      O45307   4.663   4.813   1.781
15022WAT     H145308   4.762   4.802   1.792
15022WAT     H245309   4.645   4.870   1.701
15023WAT      O45310   3.281   2.717   1.476
15023WAT     H145311   3.251   2.684   1.386
15023WAT     H245312   3.295   2.640   1.537
15024WAT      O45313   2.899   0.344   9.395
15024WAT     H145314   2.822   0.393   9.435
15024WAT     H245315   2.908   0.370   9.299
15025WAT      O45316   3.660   3.987   1.027
15025WAT     H145317   3.690   3.894   1.048
15025WAT     H245318   3.655   3.999   0.928
15026WAT      O45319   0.043   2.411   3.463
15026WAT     H145320   0.111   2.417   3.536
15026WAT     H245321   0.074   2.463   3.384
15027WAT      O45322   4.585   8.602   5.664
15027WAT     H145323   4.620   8.695   5.669
15027WAT     H245324   4.660   8.537   5.679
15028WAT      O45325   8.265   0.521   4.433
15028WAT     H145326   8.290   0.439   4.484
15028WAT     H245327   8.347   0.577   4.419
15029WAT      O45328   8.367   3.583   6.721
15029WAT     H145329   8.460   3.578   6.685
15029WAT     H245330   8.363   3.536   6.809
15030WAT      O45331   9.110   0.369   2.414
15030WAT     H145332   9.199   0.341   2.449
15030WAT     H245333   9.086   0.313   2.334
15031WAT      O45334   9.875   0.597   5.370
15031WAT     H145335   9.892   0.645   5.456
15031WAT     H245336   9.953   0.610   5.309
15032WAT      O45337   1.789   7.804   4.187
15032WAT     H145338   1.777   7.719   4.137
15032WAT     H245339   1.701   7.851   4.195
15033WAT      O45340   6.785   7.745   4.878
15033WAT     H145341   6.834   7.674   4.929
15033WAT     H245342   6.744   7.809   4.942
15034WAT      O45343   8.233   9.128   6.172
15034WAT     H145344   8.167   9.056   6.150
15034WAT     H245345   8.293   9.142   6.093
15035WAT      O45346   8.704   0.374   4.775
15035WAT     H145347   8.666   0.452   4.826
15035WAT     H245348   8.672   0.378   4.681
15036WAT      O45349   9.559   5.174   9.559
15036WAT     H145350   9.490   5.210   9.622
15036WAT     H245351   9.585   5.082   9.587
15037WAT      O45352   8.945   8.675   8.233
15037WAT     H145353   8.903   8.588   8.257
15037WAT     H245354   8.907   8.707   8.145
15038WAT      O45355   9.580   6.491   9.642
15038WAT     H145356   9.521   6.514   9.565
15038WAT     H245357   9.570   6.561   9.714
15039WAT      O45358   1.834   1.970   4.463
15039WAT     H145359   1.811   1.921   4.379
15039WAT     H245360   1.917   1.930   4.503
15040WAT      O45361   5.073   6.223   6.946
15040WAT     H145362   5.062   6.162   6.868
15040WAT     H245363   5.164   6.209   6.986
15041WAT      O45364   8.868   5.883   1.585
15041WAT     H145365   8.827   5.866   1.495
15041WAT     H245366   8.932   5.960   1.578
15042WAT      O45367   0.435   1.706   6.633
15042WAT     H145368   0.516   1.672   6.680
15042WAT     H245369   0.374   1.630   6.611
15043WAT      O45370   5.718   3.013   8.912
15043WAT     H145371   5.724   3.064   8.826
15043WAT     H245372   5.727   3.077   8.989
15044WAT      O45373   3.795   6.518   1.628
15044WAT     H145374   3.849   6.596   1.659
15044WAT     H245375   3.786   6.452   1.702
15045WAT      O45376   3.093   4.023   8.096
15045WAT     H145377   3.035   4.086   8.147
15045WAT     H245378   3.042   3.940   8.074
15046WAT      O45379   7.547   4.712   1.992
15046WAT     H145380   7.468   4.711   1.931
15046WAT     H245381   7.597   4.625   1.984
15047WAT      O45382   8.575   5.714   3.801
15047WAT     H145383   8.596   5.812   3.799
15047WAT     H245384   8.481   5.700   3.770
15048WAT      O45385   4.044   6.568   4.874
15048WAT     H145386   4.127   6.605   4.834
15048WAT     H245387   3.969   6.634   4.863
15049WAT      O45388   6.613   9.497   8.513
15049WAT     H145389   6.568   9.569   8.565
15049WAT     H245390   6.705   9.482   8.549
15050WAT      O45391   9.580   9.206   0.129
15050WAT     H145392   9.489   9.220   0.168
15050WAT     H245393   9.573   9.193   0.030
15051WAT      O45394   0.947   8.696   5.120
15051WAT     H145395   1.036   8.652   5.106
15051WAT     H245396   0.895   8.695   5.034
15052WAT      O45397   8.309   1.638   6.727
15052WAT     H145398   8.245   1.566   6.701
15052WAT     H245399   8.289   1.669   6.820
15053WAT      O45400   0.080   8.113   7.741
15053WAT     H145401   0.077   8.026   7.693
15053WAT     H245402   0.175   8.143   7.751
15054WAT      O45403   7.113   8.606   0.558
15054WAT     H145404   7.174   8.527   0.554
15054WAT     H245405   7.165   8.689   0.539
15055WAT      O45406   0.377   7.113   1.887
15055WAT     H145407   0.447   7.160   1.833
15055WAT     H245408   0.304   7.177   1.909
15056WAT      O45409   7.772   2.484   9.819
15056WAT     H145410   7.764   2.581   9.840
15056WAT     H245411   7.761   2.430   9.903
15057WAT      O45412   0.722   4.643   9.223
15057WAT     H145413   0.761   4.551   9.227
15057WAT     H245414   0.693   4.663   9.130
15058WAT      O45415   8.224   7.756   6.899
15058WAT     H145416   8.163   7.835   6.912
15058WAT     H245417   8.189   7.700   6.824
15059WAT      O45418   7.049   2.316   3.357
15059WAT     H145419   7.133   2.303   3.409
15059WAT     H245420   7.025   2.413   3.356
15060WAT      O45421   7.414   2.082   2.726
15060WAT     H145422   7.378   2.145   2.658
15060WAT     H245423   7.485   2.127   2.779
15061WAT      O45424   3.921   9.513   4.358
15061WAT     H145425   3.935   9.559   4.446
15061WAT     H245426   3.975   9.560   4.288
15062WAT      O45427   3.239   1.985   4.038
15062WAT     H145428   3.284   2.054   4.094
15062WAT     H245429   3.160   1.949   4.087
15063WAT      O45430   6.254   1.124   2.033
15063WAT     H145431   6.197   1.048   2.002
15063WAT     H245432   6.327   1.090   2.092
15064WAT      O45433   3.807   6.969   3.466
15064WAT     H145434   3.715   7.009   3.468
15064WAT     H245435   3.845   6.978   3.374
15065WAT      O45436   0.170   3.293   4.331
15065WAT     H145437   0.132   3.368   4.385
15065WAT     H245438   0.118   3.284   4.246
15066WAT      O45439   6.701   3.755   2.293
15066WAT     H145440   6.785   3.701   2.300
15066WAT     H245441   6.621   3.695   2.302
15067WAT      O45442   8.088   1.212   6.891
15067WAT     H145443   8.163   1.244   6.949
15067WAT     H245444   8.076   1.113   6.902
15068WAT      O45445   6.170   7.170   6.774
15068WAT     H145446   6.197   7.214   6.860
15068WAT     H245447   6.087   7.214   6.739
15069WAT      O45448   4.141   6.481   1.832
15069WAT     H145449   4.064   6.540   1.809
15069WAT     H245450   4.178   6.441   1.748
15070WAT      O45451   7.045   9.003   5.764
15070WAT     H145452   7.096   8.971   5.683
15070WAT     H245453   6.986   8.929   5.797
15071WAT      O45454   4.685   0.846   9.353
15071WAT     H145455   4.726   0.770   9.302
15071WAT     H245456   4.751   0.881   9.420
15072WAT      O45457   6.643   7.442   0.425
15072WAT     H145458   6.573   7.375   0.400
15072WAT     H245459   6.603   7.534   0.422
15073WAT      O45460   1.246   8.794   3.593
15073WAT     H145461   1.153   8.813   3.623
15073WAT     H245462   1.247   8.779   3.494
15074WAT      O45463   8.521   6.817   4.912
15074WAT     H145464   8.555   6.809   5.006
15074WAT     H245465   8.434   6.768   4.904
15075WAT      O45466   0.250   5.759   5.349
15075WAT     H145467   0.222   5.668   5.317
15075WAT     H245468   0.248   5.824   5.273
15076WAT      O45469   6.646   7.478   4.482
15076WAT     H145470   6.738   7.480   4.522
15076WAT     H245471   6.638   7.551   4.414
15077WAT      O45472   1.164   4.196   3.522
15077WAT     H145473   1.093   4.146   3.571
15077WAT     H245474   1.248   4.198   3.576
15078WAT      O45475   6.984   6.675   7.700
15078WAT     H145476   6.885   6.668   7.698
15078WAT     H245477   7.022   6.596   7.749
15079WAT      O45478   7.003   2.886   5.041
15079WAT     H145479   6.941   2.851   4.970
15079WAT     H245480   7.094   2.847   5.027
15080WAT      O45481   7.586   9.330   9.386
15080WAT     H145482   7.527   9.344   9.466
15080WAT     H245483   7.554   9.249   9.336
15081WAT      O45484   6.733   5.405   4.768
15081WAT     H145485   6.747   5.456   4.683
15081WAT     H245486   6.818   5.357   4.791
15082WAT      O45487   1.478   4.623   6.103
15082WAT     H145488   1.385   4.588   6.116
15082WAT     H245489   1.543   4.548   6.106
15083WAT      O45490   0.652   5.163   2.568
15083WAT     H145491   0.599   5.088   2.527
15083WAT     H245492   0.701   5.128   2.648
15084WAT      O45493   3.661   8.566   3.865
15084WAT     H145494   3.605   8.634   3.817
15084WAT     H245495   3.654   8.581   3.963
15085WAT      O45496   9.405   0.026   8.522
15085WAT     H145497   9.406  -0.011   8.614
15085WAT     H245498   9.493   0.009   8.478
15086WAT      O45499   3.933   4.369   1.154
15086WAT     H145500   3.977   4.403   1.237
15086WAT     H245501   3.845   4.327   1.177
15087WAT      O45502   6.196   8.110   7.352
15087WAT     H145503   6.277   8.051   7.355
15087WAT     H245504   6.121   8.062   7.306
15088WAT      O45505   0.426   5.193   1.599
15088WAT     H145506   0.416   5.182   1.698
15088WAT     H245507   0.340   5.229   1.561
15089WAT      O45508   3.332   2.677   6.187
15089WAT     H145509   3.380   2.601   6.231
15089WAT     H245510   3.250   2.700   6.240
15090WAT      O45511   3.333   0.572   3.858
15090WAT     H145512   3.238   0.599   3.845
15090WAT     H245513   3.382   0.646   3.905
15091WAT      O45514   9.299   2.865   9.163
15091WAT     H145515   9.212   2.832   9.127
15091WAT     H245516   9.341   2.794   9.220
15092WAT      O45517   3.711   9.127   2.945
15092WAT     H145518   3.635   9.173   2.899
15092WAT     H245519   3.797   9.172   2.919
15093WAT      O45520   3.871   9.220   9.752
15093WAT     H145521   3.874   9.265   9.663
15093WAT     H245522   3.899   9.284   9.823
15094WAT      O45523   5.264   0.392   2.026
15094WAT     H145524   5.187   0.331   2.009
15094WAT     H245525   5.350   0.344   2.008
15095WAT      O45526   3.766   9.477   5.617
15095WAT     H145527   3.733   9.539   5.545
15095WAT     H245528   3.687   9.441   5.667
15096WAT      O45529   6.209   0.023   8.675
15096WAT     H145530   6.131  -0.036   8.655
15096WAT     H245531   6.264   0.034   8.592
15097WAT      O45532   0.573   9.602   1.727
15097WAT     H145533   0.581   9.634   1.821
15097WAT     H245534   0.488   9.551   1.716
15098WAT      O45535   6.009   1.278   2.613
15098WAT     H145536   6.028   1.209   2.683
15098WAT     H245537   5.915   1.268   2.581
15099WAT      O45538   7.278   4.715   9.148
15099WAT     H145539   7.311   4.631   9.192
15099WAT     H245540   7.292   4.708   9.049
15100WAT      O45541   3.421   1.739   2.985
15100WAT     H145542   3.330   1.738   3.025
15100WAT     H245543   3.439   1.651   2.941
15101WAT      O45544   4.311   9.763   6.902
15101WAT     H145545   4.366   9.775   6.819
15101WAT     H245546   4.217   9.741   6.877
15102WAT      O45547   3.334   9.454   2.372
15102WAT     H145548   3.338   9.432   2.275
15102WAT     H245549   3.388   9.537   2.390
15103WAT      O45550   2.864   9.707   7.156
15103WAT     H145551   2.792   9.641   7.178
15103WAT     H245552   2.834   9.799   7.182
15104WAT      O45553   4.768   0.655   8.559
15104WAT     H145554   4.770   0.567   8.511
15104WAT     H245555   4.696   0.712   8.519
15105WAT      O45556   5.899   5.987   5.795
15105WAT     H145557   5.966   6.061   5.809
15105WAT     H245558   5.909   5.952   5.702
15106WAT      O45559   0.189   9.319   6.124
15106WAT     H145560   0.172   9.412   6.094
15106WAT     H245561   0.261   9.318   6.194
15107WAT      O45562   1.297   3.996   1.870
15107WAT     H145563   1.242   4.045   1.938
15107WAT     H245564   1.344   3.919   1.914
15108WAT      O45565   9.298   3.797   6.350
15108WAT     H145566   9.289   3.702   6.378
15108WAT     H245567   9.388   3.831   6.375
15109WAT      O45568   1.379   2.825   2.959
15109WAT     H145569   1.341   2.809   2.868
15109WAT     H245570   1.445   2.900   2.956
15110WAT      O45571   2.978   7.583   2.136
15110WAT     H145572   3.028   7.649   2.192
15110WAT     H245573   2.940   7.512   2.194
15111WAT      O45574   5.195   4.679   0.625
15111WAT     H145575   5.256   4.604   0.597
15111WAT     H245576   5.230   4.720   0.710
15112WAT      O45577   5.283   2.416   7.884
15112WAT     H145578   5.271   2.497   7.827
15112WAT     H245579   5.298   2.444   7.979
15113WAT      O45580   8.697   2.208   2.583
15113WAT     H145581   8.659   2.242   2.497
15113WAT     H245582   8.796   2.226   2.585
15114WAT      O45583   6.980   6.121   1.427
15114WAT     H145584   6.931   6.034   1.432
15114WAT     H245585   6.999   6.143   1.332
15115WAT      O45586   9.806   7.274   1.870
15115WAT     H145587   9.805   7.185   1.824
15115WAT     H245588   9.726   7.327   1.841
15116WAT      O45589   8.622   0.105   0.485
15116WAT     H145590   8.648   0.009   0.478
15116WAT     H245591   8.523   0.114   0.472
15117WAT      O45592   0.814   8.282   2.782
15117WAT     H145593   0.749   8.313   2.714
15117WAT     H245594   0.767   8.225   2.850
15118WAT      O45595   6.624   3.818   3.717
15118WAT     H145596   6.637   3.878   3.638
15118WAT     H245597   6.548   3.853   3.772
15119WAT      O45598   4.057   1.066   8.964
15119WAT     H145599   4.067   1.155   9.009
15119WAT     H245600   3.965   1.059   8.925
15120WAT      O45601   7.837   5.093   5.253
15120WAT     H145602   7.870   5.187   5.259
15120WAT     H245603   7.748   5.092   5.207
15121WAT      O45604   0.947   2.435   1.549
15121WAT     H145605   0.851   2.461   1.551
15121WAT     H245606   0.999   2.491   1.614
15122WAT      O45607   4.279   2.391   2.829
15122WAT     H145608   4.318   2.479   2.801
15122WAT     H245609   4.324   2.318   2.778
15123WAT      O45610   0.792   2.464   6.208
15123WAT     H145611   0.849   2.541   6.239
15123WAT     H245612   0.837   2.378   6.232
15124WAT      O45613   8.429   4.373   8.484
15124WAT     H145614   8.436   4.471   8.466
15124WAT     H245615   8.377   4.330   8.410
15125WAT      O45616   8.110   7.926   0.264
15125WAT     H145617   8.160   7.848   0.225
15125WAT     H245618   8.085   7.905   0.358
15126WAT      O45619   4.772   2.240   9.760
15126WAT     H145620   4.739   2.271   9.849
15126WAT     H245621   4.815   2.317   9.712
15127WAT      O45622   8.483   6.353   4.766
15127WAT     H145623   8.405   6.292   4.778
15127WAT     H245624   8.525   6.336   4.676
15128WAT      O45625   6.748   8.065   6.267
15128WAT     H145626   6.806   8.080   6.187
15128WAT     H245627   6.652   8.077   6.240
15129WAT      O45628   1.644   3.874   9.606
15129WAT     H145629   1.737   3.853   9.578
15129WAT     H245630   1.620   3.967   9.576
15130WAT      O45631   5.627   1.005   9.719
15130WAT     H145632   5.646   0.908   9.727
15130WAT     H245633   5.594   1.026   9.627
15131WAT      O45634   6.547   9.301   3.650
15131WAT     H145635   6.551   9.247   3.567
15131WAT     H245636   6.600   9.257   3.722
15132WAT      O45637   5.938   7.580   1.928
15132WAT     H145638   5.856   7.525   1.918
15132WAT     H245639   5.957   7.596   2.024
15133WAT      O45640   0.917   4.230   0.291
15133WAT     H145641   0.922   4.133   0.268
15133WAT     H245642   0.932   4.286   0.209
15134WAT      O45643   3.411   1.377   2.394
15134WAT     H145644   3.419   1.281   2.367
15134WAT     H245645   3.502   1.417   2.402
15135WAT      O45646   5.526   5.756   6.828
15135WAT     H145647   5.559   5.662   6.816
15135WAT     H245648   5.464   5.760   6.907
15136WAT      O45649   6.377   7.675   5.326
15136WAT     H145650   6.278   7.690   5.320
15136WAT     H245651   6.398   7.580   5.303
15137WAT      O45652   7.047   0.867   2.584
15137WAT     H145653   7.091   0.841   2.671
15137WAT     H245654   7.110   0.924   2.532
15138WAT      O45655   4.013   5.576   5.176
15138WAT     H145656   3.923   5.533   5.171
15138WAT     H245657   4.084   5.506   5.171
15139WAT      O45658   4.486   5.150   9.486
15139WAT     H145659   4.554   5.131   9.415
15139WAT     H245660   4.522   5.122   9.575
15140WAT      O45661   7.313   0.059   3.780
15140WAT     H145662   7.279  -0.001   3.708
15140WAT     H245663   7.244   0.129   3.801
15141WAT      O45664   5.689   6.161   1.675
15141WAT     H145665   5.738   6.142   1.590
15141WAT     H245666   5.686   6.078   1.731
15142WAT      O45667   4.418   8.887   5.185
15142WAT     H145668   4.427   8.964   5.122
15142WAT     H245669   4.507   8.867   5.227
15143WAT      O45670   8.692   2.117   9.772
15143WAT     H145671   8.601   2.124   9.813
15143WAT     H245672   8.761   2.128   9.843
15144WAT      O45673   0.573   7.302   8.443
15144WAT     H145674   0.575   7.232   8.514
15144WAT     H245675   0.582   7.392   8.484
15145WAT      O45676   0.748   2.323   1.138
15145WAT     H145677   0.782   2.255   1.203
15145WAT     H245678   0.788   2.307   1.048
15146WAT      O45679   3.190   1.519   8.095
15146WAT     H145680   3.102   1.509   8.048
15146WAT     H245681   3.192   1.461   8.176
15147WAT      O45682   4.155   5.766   1.245
15147WAT     H145683   4.185   5.861   1.236
15147WAT     H245684   4.177   5.716   1.161
15148WAT      O45685   6.745   0.699   3.357
15148WAT     H145686   6.825   0.641   3.373
15148WAT     H245687   6.772   0.779   3.303
15149WAT      O45688   4.722   3.534   1.091
15149WAT     H145689   4.683   3.463   1.149
15149WAT     H245690   4.781   3.594   1.145
15150WAT      O45691   9.663   0.832   0.672
15150WAT     H145692   9.626   0.742   0.650
15150WAT     H245693   9.755   0.840   0.633
15151WAT      O45694   5.325   1.532   7.548
15151WAT     H145695   5.380   1.459   7.508
15151WAT     H245696   5.323   1.521   7.648
15152WAT      O45697   2.376   5.007   4.392
15152WAT     H145698   2.427   4.988   4.476
15152WAT     H245699   2.310   4.934   4.376
15153WAT      O45700   6.402   6.514   1.983
15153WAT     H145701   6.451   6.512   1.896
15153WAT     H245702   6.458   6.471   2.054
15154WAT      O45703   4.783   3.876   3.745
15154WAT     H145704   4.730   3.887   3.829
15154WAT     H245705   4.869   3.927   3.752
15155WAT      O45706   4.070   0.362   4.715
15155WAT     H145707   4.126   0.320   4.787
15155WAT     H245708   4.104   0.332   4.626
15156WAT      O45709   8.489   7.169   5.067
15156WAT     H145710   8.491   7.247   5.004
15156WAT     H245711   8.582   7.136   5.083
15157WAT      O45712   3.976   7.803   6.214
15157WAT     H145713   3.896   7.858   6.236
15157WAT     H245714   3.970   7.772   6.119
15158WAT      O45715   2.626   9.092   0.706
15158WAT     H145716   2.591   9.185   0.694
15158WAT     H245717   2.690   9.089   0.783
15159WAT      O45718   4.215   6.869   6.962
15159WAT     H145719   4.167   6.837   7.044
15159WAT     H245720   4.272   6.948   6.984
15160WAT      O45721   7.978   7.629   3.167
15160WAT     H145722   8.042   7.593   3.236
15160WAT     H245723   7.962   7.726   3.183
15161WAT      O45724   7.057   7.999   7.532
15161WAT     H145725   7.005   7.922   7.568
15161WAT     H245726   7.012   8.036   7.451
15162WAT      O45727   6.295   6.383   0.918
15162WAT     H145728   6.314   6.400   1.014
15162WAT     H245729   6.259   6.466   0.875
15163WAT      O45730   4.654   1.384   7.657
15163WAT     H145731   4.734   1.444   7.650
15163WAT     H245732   4.573   1.439   7.677
15164WAT      O45733   3.429   0.935   7.441
15164WAT     H145734   3.393   0.844   7.422
15164WAT     H245735   3.488   0.964   7.366
15165WAT      O45736   6.159   0.173   1.089
15165WAT     H145737   6.235   0.208   1.035
15165WAT     H245738   6.193   0.103   1.153
15166WAT      O45739   3.416   9.703   3.856
15166WAT     H145740   3.427   9.795   3.894
15166WAT     H245741   3.344   9.703   3.788
15167WAT      O45742   7.730   7.092   4.902
15167WAT     H145743   7.727   7.043   4.990
15167WAT     H245744   7.637   7.110   4.871
15168WAT      O45745   6.997   4.431   7.575
15168WAT     H145746   7.081   4.400   7.531
15168WAT     H245747   6.987   4.385   7.663
15169WAT      O45748   4.783   6.946   5.248
15169WAT     H145749   4.746   7.019   5.190
15169WAT     H245750   4.708   6.891   5.284
15170WAT      O45751   4.670   7.845   5.950
15170WAT     H145752   4.629   7.889   5.871
15170WAT     H245753   4.683   7.913   6.023
15171WAT      O45754   1.519   7.133   9.456
15171WAT     H145755   1.431   7.086   9.472
15171WAT     H245756   1.560   7.156   9.544
15172WAT      O45757   9.423   2.286   5.978
15172WAT     H145758   9.447   2.228   6.056
15172WAT     H245759   9.457   2.379   5.995
15173WAT      O45760   3.439   3.143   7.118
15173WAT     H145761   3.458   3.208   7.044
15173WAT     H245762   3.452   3.189   7.206
15174WAT      O45763   7.457   0.725   4.565
15174WAT     H145764   7.372   0.720   4.618
15174WAT     H245765   7.454   0.657   4.492
15175WAT      O45766   7.670   8.800   3.186
15175WAT     H145767   7.750   8.753   3.147
15175WAT     H245768   7.630   8.861   3.118
15176WAT      O45769   8.885   2.576   1.664
15176WAT     H145770   8.831   2.599   1.583
15176WAT     H245771   8.847   2.622   1.744
15177WAT      O45772   3.200   7.181   5.196
15177WAT     H145773   3.243   7.188   5.286
15177WAT     H245774   3.152   7.094   5.189
15178WAT      O45775   5.031   4.105   2.307
15178WAT     H145776   5.124   4.109   2.345
15178WAT     H245777   5.036   4.088   2.209
15179WAT      O45778   5.660   3.514   5.141
15179WAT     H145779   5.656   3.592   5.204
15179WAT     H245780   5.598   3.442   5.174
15180WAT      O45781   3.017   2.914   1.216
15180WAT     H145782   3.005   2.892   1.120
15180WAT     H245783   2.940   2.971   1.247
15181WAT      O45784   7.029   2.234   2.032
15181WAT     H145785   6.983   2.151   2.064
15181WAT     H245786   6.992   2.313   2.081
15182WAT      O45787   9.200   2.296   9.845
15182WAT     H145788   9.240   2.364   9.906
15182WAT     H245789   9.147   2.342   9.774
15183WAT      O45790   8.439   2.446   5.189
15183WAT     H145791   8.500   2.523   5.207
15183WAT     H245792   8.435   2.386   5.269
15184WAT      O45793   1.311   0.327   8.186
15184WAT     H145794   1.332   0.239   8.142
15184WAT     H245795   1.367   0.337   8.268
15185WAT      O45796   1.753   5.789   3.563
15185WAT     H145797   1.748   5.696   3.529
15185WAT     H245798   1.665   5.816   3.602
15186WAT      O45799   2.728   5.304   6.014
15186WAT     H145800   2.712   5.319   6.112
15186WAT     H245801   2.794   5.371   5.981
15187WAT      O45802   6.701   7.347   2.781
15187WAT     H145803   6.608   7.311   2.787
15187WAT     H245804   6.767   7.273   2.792
15188WAT      O45805   5.845   6.966   4.283
15188WAT     H145806   5.945   6.970   4.284
15188WAT     H245807   5.808   7.036   4.344
15189WAT      O45808   7.891   9.243   0.126
15189WAT     H145809   7.948   9.196   0.193
15189WAT     H245810   7.804   9.193   0.116
15190WAT      O45811   2.797   6.522   9.796
15190WAT     H145812   2.824   6.616   9.773
15190WAT     H245813   2.764   6.519   9.890
15191WAT      O45814   8.426   2.201   3.482
15191WAT     H145815   8.440   2.195   3.383
15191WAT     H245816   8.362   2.275   3.503
15192WAT      O45817   3.451   2.189   7.686
15192WAT     H145818   3.458   2.173   7.784
15192WAT     H245819   3.397   2.271   7.669
15193WAT      O45820   7.590   0.870   9.220
15193WAT     H145821   7.593   0.845   9.124
15193WAT     H245822   7.558   0.792   9.274
15194WAT      O45823   5.903   3.501   5.325
15194WAT     H145824   5.851   3.524   5.407
15194WAT     H245825   5.887   3.405   5.301
15195WAT      O45826   5.825   5.948   7.980
15195WAT     H145827   5.759   5.972   8.052
15195WAT     H245828   5.876   5.867   8.008
15196WAT      O45829   7.852   9.266   5.667
15196WAT     H145830   7.947   9.263   5.698
15196WAT     H245831   7.810   9.176   5.681
15197WAT      O45832   8.184   3.058   9.434
15197WAT     H145833   8.090   3.037   9.410
15197WAT     H245834   8.220   2.986   9.494
15198WAT      O45835   8.280   7.727   5.661
15198WAT     H145836   8.292   7.668   5.581
15198WAT     H245837   8.367   7.772   5.682
15199WAT      O45838   5.699   7.901   8.274
15199WAT     H145839   5.686   7.804   8.294
15199WAT     H245840   5.795   7.919   8.255
15200WAT      O45841   1.869   6.290   6.129
15200WAT     H145842   1.877   6.269   6.031
15200WAT     H245843   1.854   6.388   6.140
15201WAT      O45844   6.139   5.513   4.474
15201WAT     H145845   6.107   5.584   4.411
15201WAT     H245846   6.155   5.428   4.423
15202WAT      O45847   7.186   3.784   5.982
15202WAT     H145848   7.118   3.765   6.053
15202WAT     H245849   7.255   3.711   5.983
15203WAT      O45850   7.928   8.136   5.672
15203WAT     H145851   7.868   8.076   5.725
15203WAT     H245852   7.908   8.125   5.574
15204WAT      O45853   8.372   7.258   8.378
15204WAT     H145854   8.439   7.184   8.374
15204WAT     H245855   8.324   7.264   8.290
15205WAT      O45856   9.675   0.402   6.788
15205WAT     H145857   9.669   0.409   6.887
15205WAT     H245858   9.736   0.473   6.753
15206WAT      O45859   9.384   7.418   8.872
15206WAT     H145860   9.363   7.468   8.956
15206WAT     H245861   9.399   7.321   8.893
15207WAT      O45862   4.483   9.073   2.068
15207WAT     H145863   4.492   8.980   2.105
15207WAT     H245864   4.574   9.113   2.058
15208WAT      O45865   5.605   4.167   4.308
15208WAT     H145866   5.667   4.155   4.231
15208WAT     H245867   5.558   4.255   4.299
15209WAT      O45868   2.105   8.030   2.244
15209WAT     H145869   2.072   8.123   2.259
15209WAT     H245870   2.160   8.001   2.323
15210WAT      O45871   9.385   2.778   7.193
15210WAT     H145872   9.400   2.727   7.278
15210WAT     H245873   9.396   2.717   7.115
15211WAT      O45874   8.483   2.161   4.118
15211WAT     H145875   8.432   2.078   4.098
15211WAT     H245876   8.511   2.205   4.033
15212WAT      O45877   6.493   4.105   6.322
15212WAT     H145878   6.464   4.022   6.369
15212WAT     H245879   6.482   4.093   6.223
15213WAT      O45880   5.682   3.906   1.090
15213WAT     H145881   5.777   3.936   1.078
15213WAT     H245882   5.679   3.833   1.158
15214WAT      O45883   2.896   8.102   0.095
15214WAT     H145884   2.961   8.140   0.030
15214WAT     H245885   2.846   8.177   0.139
15215WAT      O45886   5.642   7.112   1.160
15215WAT     H145887   5.578   7.181   1.192
15215WAT     H245888   5.598   7.054   1.091
15216WAT      O45889   7.851   0.643   5.835
15216WAT     H145890   7.822   0.558   5.791
15216WAT     H245891   7.903   0.698   5.770
15217WAT      O45892   7.740   9.813   0.133
15217WAT     H145893   7.833   9.849   0.141
15217WAT     H245894   7.708   9.822   0.039
15218WAT      O45895   9.231   9.261   1.026
15218WAT     H145896   9.191   9.252   0.935
15218WAT     H245897   9.319   9.213   1.029
15219WAT      O45898   0.603   5.090   1.138
15219WAT     H145899   0.688   5.142   1.136
15219WAT     H245900   0.530   5.144   1.097
15220WAT      O45901   7.826   0.972   3.098
15220WAT     H145902   7.764   0.923   3.160
15220WAT     H245903   7.920   0.948   3.119
15221WAT      O45904   3.846   0.358   8.775
15221WAT     H145905   3.785   0.387   8.701
15221WAT     H245906   3.806   0.384   8.863
15222WAT      O45907   7.957   9.670   7.427
15222WAT     H145908   7.921   9.676   7.334
15222WAT     H245909   7.882   9.652   7.491
15223WAT      O45910   1.977   8.734   2.071
15223WAT     H145911   1.948   8.825   2.100
15223WAT     H245912   2.067   8.713   2.109
15224WAT      O45913   1.082   4.166   6.935
15224WAT     H145914   1.091   4.080   6.885
15224WAT     H245915   1.132   4.238   6.886
15225WAT      O45916   0.556   1.691   3.138
15225WAT     H145917   0.554   1.788   3.115
15225WAT     H245918   0.470   1.648   3.109
15226WAT      O45919   6.953   6.930   7.846
15226WAT     H145920   6.966   6.852   7.785
15226WAT     H245921   6.961   6.900   7.941
15227WAT      O45922   3.425   4.249   8.173
15227WAT     H145923   3.453   4.285   8.262
15227WAT     H245924   3.506   4.220   8.122
15228WAT      O45925   8.633   9.270   0.841
15228WAT     H145926   8.657   9.236   0.750
15228WAT     H245927   8.645   9.370   0.843
15229WAT      O45928   5.460   8.539   5.173
15229WAT     H145929   5.488   8.633   5.194
15229WAT     H245930   5.398   8.506   5.244
15230WAT      O45931   4.208   1.572   5.171
15230WAT     H145932   4.290   1.576   5.115
15230WAT     H245933   4.233   1.545   5.264
15231WAT      O45934   9.524   0.438   3.554
15231WAT     H145935   9.463   0.361   3.534
15231WAT     H245936   9.482   0.522   3.521
15232WAT      O45937   6.135   3.237   1.180
15232WAT     H145938   6.081   3.275   1.104
15232WAT     H245939   6.075   3.224   1.259
15233WAT      O45940   2.043   8.782   9.433
15233WAT     H145941   2.137   8.801   9.405
15233WAT     H245942   1.981   8.793   9.355
15234WAT      O45943   9.123   5.546   3.975
15234WAT     H145944   9.047   5.604   4.005
15234WAT     H245945   9.116   5.456   4.018
15235WAT      O45946   3.534   5.383   2.311
15235WAT     H145947   3.592   5.443   2.367
15235WAT     H245948   3.590   5.310   2.271
15236WAT      O45949   2.295   6.719   1.400
15236WAT     H145950   2.242   6.681   1.324
15236WAT     H245951   2.392   6.704   1.384
15237WAT      O45952   8.032   9.211   4.403
15237WAT     H145953   8.119   9.165   4.419
15237WAT     H245954   8.007   9.264   4.484
15238WAT      O45955   2.103   7.843   8.013
15238WAT     H145956   2.045   7.924   8.028
15238WAT     H245957   2.050   7.773   7.965
15239WAT      O45958   4.233   5.048   9.108
15239WAT     H145959   4.171   5.124   9.088
15239WAT     H245960   4.187   4.962   9.087
15240WAT      O45961   5.644   2.660   3.180
15240WAT     H145962   5.687   2.570   3.185
15240WAT     H245963   5.715   2.731   3.188
15241WAT      O45964   3.305   9.488   0.379
15241WAT     H145965   3.318   9.419   0.308
15241WAT     H245966   3.207   9.499   0.398
15242WAT      O45967   5.227   8.120   6.270
15242WAT     H145968   5.327   8.125   6.261
15242WAT     H245969   5.187   8.208   6.244
15243WAT      O45970   7.418   7.254   1.434
15243WAT     H145971   7.397   7.343   1.473
15243WAT     H245972   7.489   7.264   1.365
15244WAT      O45973   1.752   6.587   4.318
15244WAT     H145974   1.839   6.634   4.300
15244WAT     H245975   1.697   6.587   4.235
15245WAT      O45976   1.658   6.033   3.893
15245WAT     H145977   1.611   5.976   3.825
15245WAT     H245978   1.675   5.979   3.975
15246WAT      O45979   9.009   6.521   9.310
15246WAT     H145980   9.025   6.603   9.254
15246WAT     H245981   8.938   6.540   9.377
15247WAT      O45982   1.631   4.389   7.371
15247WAT     H145983   1.703   4.458   7.362
15247WAT     H245984   1.570   4.415   7.445
15248WAT      O45985   2.411   1.759   1.595
15248WAT     H145986   2.393   1.813   1.677
15248WAT     H245987   2.388   1.812   1.513
15249WAT      O45988   9.788   5.406   3.890
15249WAT     H145989   9.712   5.370   3.837
15249WAT     H245990   9.836   5.330   3.935
15250WAT      O45991   1.679   1.720   1.954
15250WAT     H145992   1.672   1.652   2.028
15250WAT     H245993   1.608   1.789   1.966
15251WAT      O45994   0.397   7.292   2.568
15251WAT     H145995   0.344   7.351   2.507
15251WAT     H245996   0.367   7.308   2.663
15252WAT      O45997   6.691   4.787   3.206
15252WAT     H145998   6.698   4.883   3.178
15252WAT     H245999   6.704   4.728   3.127
15253WAT      O46000   2.937   0.036   7.715
15253WAT     H146001   2.885  -0.004   7.641
15253WAT     H246002   2.947  -0.030   7.789
15254WAT      O46003   3.643   7.123   3.992
15254WAT     H146004   3.716   7.107   3.925
15254WAT     H246005   3.682   7.164   4.074
15255WAT      O46006   5.542   6.923   6.330
15255WAT     H146007   5.569   7.010   6.290
15255WAT     H246008   5.527   6.934   6.428
15256WAT      O46009   0.833   8.635   7.002
15256WAT     H146010   0.885   8.681   6.930
15256WAT     H246011   0.736   8.658   6.992
15257WAT      O46012   1.883   2.116   4.857
15257WAT     H146013   1.910   2.209   4.882
15257WAT     H246014   1.784   2.113   4.842
15258WAT      O46015   3.806   8.460   6.035
15258WAT     H146016   3.790   8.540   6.093
15258WAT     H246017   3.760   8.381   6.075
15259WAT      O46018   9.491   3.670   9.482
15259WAT     H146019   9.531   3.579   9.493
15259WAT     H246020   9.425   3.687   9.554
15260WAT      O46021   6.770   4.593   7.687
15260WAT     H146022   6.836   4.540   7.634
15260WAT     H246023   6.818   4.653   7.751
15261WAT      O46024   0.230   5.515   3.725
15261WAT     H146025   0.135   5.543   3.709
15261WAT     H246026   0.273   5.580   3.787
15262WAT      O46027   0.909   1.709   2.333
15262WAT     H146028   0.830   1.715   2.271
15262WAT     H246029   0.897   1.775   2.407
15263WAT      O46030   5.890   1.438   2.882
15263WAT     H146031   5.984   1.463   2.858
15263WAT     H246032   5.849   1.510   2.937
15264WAT      O46033   6.739   6.088   8.222
15264WAT     H146034   6.747   6.188   8.220
15264WAT     H246035   6.758   6.055   8.314
15265WAT      O46036   8.865   0.659   1.460
15265WAT     H146037   8.841   0.692   1.369
15265WAT     H246038   8.790   0.678   1.523
15266WAT      O46039   2.752   9.215   9.187
15266WAT     H146040   2.766   9.206   9.286
15266WAT     H246041   2.794   9.300   9.156
15267WAT      O46042   5.248   0.644   4.336
15267WAT     H146043   5.275   0.647   4.432
15267WAT     H246044   5.282   0.727   4.290
15268WAT      O46045   6.499   3.915   8.392
15268WAT     H146046   6.405   3.886   8.414
15268WAT     H246047   6.523   3.883   8.301
15269WAT      O46048   5.815   3.810   8.461
15269WAT     H146049   5.758   3.831   8.382
15269WAT     H246050   5.770   3.841   8.545
15270WAT      O46051   8.124   2.221   5.710
15270WAT     H146052   8.137   2.200   5.614
15270WAT     H246053   8.043   2.279   5.721
15271WAT      O46054   9.332   0.703   7.702
15271WAT     H146055   9.253   0.661   7.657
15271WAT     H246056   9.400   0.632   7.722
15272WAT      O46057   1.119   0.404   4.721
15272WAT     H146058   1.201   0.403   4.779
15272WAT     H246059   1.145   0.416   4.626
15273WAT      O46060   2.214   1.532   7.427
15273WAT     H146061   2.158   1.493   7.355
15273WAT     H246062   2.160   1.596   7.481
15274WAT      O46063   9.276   8.046   8.053
15274WAT     H146064   9.274   7.980   8.128
15274WAT     H246065   9.182   8.075   8.033
15275WAT      O46066   5.428   9.005   4.525
15275WAT     H146067   5.483   9.065   4.584
15275WAT     H246068   5.484   8.928   4.495
15276WAT      O46069   9.216   9.775   3.779
15276WAT     H146070   9.141   9.759   3.843
15276WAT     H246071   9.291   9.820   3.827
15277WAT      O46072   4.974   0.587   6.679
15277WAT     H146073   5.007   0.677   6.649
15277WAT     H246074   4.886   0.568   6.635
15278WAT      O46075   6.175   5.951   1.636
15278WAT     H146076   6.225   5.870   1.604
15278WAT     H246077   6.122   5.927   1.717
15279WAT      O46078   5.100   1.521   6.838
15279WAT     H146079   5.101   1.594   6.906
15279WAT     H246080   5.186   1.469   6.844
15280WAT      O46081   2.315   3.795   7.756
15280WAT     H146082   2.293   3.893   7.746
15280WAT     H246083   2.414   3.783   7.752
15281WAT      O46084   1.295   4.399   4.531
15281WAT     H146085   1.354   4.397   4.451
15281WAT     H246086   1.342   4.446   4.606
15282WAT      O46087   5.725   7.339   7.480
15282WAT     H146088   5.810   7.305   7.439
15282WAT     H246089   5.677   7.395   7.413
15283WAT      O46090   4.558   1.669   7.378
15283WAT     H146091   4.640   1.650   7.325
15283WAT     H246092   4.522   1.759   7.354
15284WAT      O46093   3.114   8.824   0.077
15284WAT     H146094   3.166   8.768   0.013
15284WAT     H246095   3.075   8.903   0.028
15285WAT      O46096   8.756   6.303   5.516
15285WAT     H146097   8.737   6.205   5.514
15285WAT     H246098   8.835   6.324   5.459
15286WAT      O46099   6.814   6.599   5.418
15286WAT     H146100   6.755   6.640   5.488
15286WAT     H246101   6.902   6.646   5.417
15287WAT      O46102   5.861   6.610   0.886
15287WAT     H146103   5.791   6.642   0.822
15287WAT     H246104   5.817   6.573   0.968
15288WAT      O46105   3.209   1.630   0.476
15288WAT     H146106   3.207   1.724   0.509
15288WAT     H246107   3.257   1.627   0.388
15289WAT      O46108   7.641   9.578   8.379
15289WAT     H146109   7.553   9.565   8.333
15289WAT     H246110   7.712   9.593   8.310
15290WAT      O46111   8.004   5.080   4.886
15290WAT     H146112   8.030   5.118   4.974
15290WAT     H246113   8.066   5.113   4.815
15291WAT      O46114   8.314   0.071   6.496
15291WAT     H146115   8.295   0.068   6.595
15291WAT     H246116   8.231   0.046   6.446
15292WAT      O46117   4.437   9.734   0.246
15292WAT     H146118   4.462   9.800   0.175
15292WAT     H246119   4.429   9.780   0.334
15293WAT      O46120   0.992   7.799   4.356
15293WAT     H146121   1.053   7.851   4.296
15293WAT     H246122   1.046   7.737   4.412
15294WAT      O46123   2.765   1.096   1.882
15294WAT     H146124   2.701   1.173   1.889
15294WAT     H246125   2.804   1.077   1.971
15295WAT      O46126   5.548   5.966   5.265
15295WAT     H146127   5.578   6.032   5.196
15295WAT     H246128   5.603   5.977   5.348
15296WAT      O46129   8.025   2.983   7.550
15296WAT     H146130   7.981   2.893   7.542
15296WAT     H246131   7.971   3.041   7.610
15297WAT      O46132   6.972   6.361   1.536
15297WAT     H146133   6.960   6.285   1.473
15297WAT     H246134   7.048   6.342   1.598
15298WAT      O46135   5.907   9.206   9.697
15298WAT     H146136   5.847   9.283   9.714
15298WAT     H246137   5.983   9.208   9.762
15299WAT      O46138   6.920   8.113   2.118
15299WAT     H146139   6.921   8.097   2.216
15299WAT     H246140   7.013   8.128   2.086
15300WAT      O46141   0.626   1.384   4.007
15300WAT     H146142   0.698   1.407   4.072
15300WAT     H246143   0.664   1.382   3.914
15301WAT      O46144   0.927   6.393   3.887
15301WAT     H146145   0.831   6.368   3.889
15301WAT     H246146   0.939   6.484   3.926
15302WAT      O46147   1.787   0.161   5.767
15302WAT     H146148   1.779   0.108   5.683
15302WAT     H246149   1.798   0.098   5.845
15303WAT      O46150   9.673   3.521   2.350
15303WAT     H146151   9.727   3.590   2.301
15303WAT     H246152   9.577   3.532   2.327
15304WAT      O46153   0.195   8.489   8.583
15304WAT     H146154   0.218   8.569   8.528
15304WAT     H246155   0.229   8.406   8.538
15305WAT      O46156   9.834   6.810   1.845
15305WAT     H146157   9.810   6.902   1.816
15305WAT     H246158   9.900   6.770   1.781
15306WAT      O46159   1.832   2.001   7.601
15306WAT     H146160   1.780   2.050   7.532
15306WAT     H246161   1.921   1.974   7.563
15307WAT      O46162   8.217   4.982   5.542
15307WAT     H146163   8.270   4.915   5.595
15307WAT     H246164   8.122   4.981   5.573
15308WAT      O46165   8.790   4.162   2.364
15308WAT     H146166   8.777   4.220   2.283
15308WAT     H246167   8.726   4.086   2.362
15309WAT      O46168   1.805   1.688   7.411
15309WAT     H146169   1.819   1.621   7.338
15309WAT     H246170   1.887   1.691   7.468
15310WAT      O46171   7.765   6.842   3.370
15310WAT     H146172   7.749   6.842   3.272
15310WAT     H246173   7.785   6.749   3.401
15311WAT      O46174   8.936   6.048   0.176
15311WAT     H146175   8.977   5.968   0.221
15311WAT     H246176   8.937   6.035   0.077
15312WAT      O46177   9.745   0.396   4.138
15312WAT     H146178   9.684   0.474   4.152
15312WAT     H246179   9.790   0.373   4.224
15313WAT      O46180   6.344   1.123   4.935
15313WAT     H146181   6.365   1.163   4.846
15313WAT     H246182   6.429   1.098   4.982
15314WAT      O46183   0.188   4.007   8.509
15314WAT     H146184   0.260   4.069   8.540
15314WAT     H246185   0.191   3.999   8.410
15315WAT      O46186   3.574   9.175   3.332
15315WAT     H146187   3.542   9.085   3.303
15315WAT     H246188   3.660   9.196   3.286
15316WAT      O46189   8.260   1.826   6.507
15316WAT     H146190   8.185   1.783   6.457
15316WAT     H246191   8.273   1.780   6.594
15317WAT      O46192   9.279   2.035   9.487
15317WAT     H146193   9.267   1.975   9.566
15317WAT     H246194   9.216   2.007   9.415
15318WAT      O46195   2.906   0.619   9.603
15318WAT     H146196   2.822   0.567   9.586
15318WAT     H246197   2.910   0.643   9.700
15319WAT      O46198   4.042   2.019   6.146
15319WAT     H146199   3.978   2.078   6.097
15319WAT     H246200   4.060   1.937   6.091
15320WAT      O46201   5.853   3.505   3.373
15320WAT     H146202   5.881   3.599   3.394
15320WAT     H246203   5.806   3.503   3.285
15321WAT      O46204   5.873   9.255   3.862
15321WAT     H146205   5.921   9.175   3.899
15321WAT     H246206   5.860   9.245   3.764
15322WAT      O46207   1.150   8.417   8.189
15322WAT     H146208   1.239   8.378   8.164
15322WAT     H246209   1.081   8.344   8.192
15323WAT      O46210   8.666   9.426   4.930
15323WAT     H146211   8.765   9.428   4.923
15323WAT     H246212   8.629   9.517   4.912
15324WAT      O46213   6.356   4.152   0.620
15324WAT     H146214   6.312   4.219   0.561
15324WAT     H246215   6.437   4.115   0.574
15325WAT      O46216   0.139   5.134   7.111
15325WAT     H146217   0.063   5.118   7.174
15325WAT     H246218   0.199   5.204   7.150
15326WAT      O46219   2.507   7.681   5.471
15326WAT     H146220   2.540   7.770   5.503
15326WAT     H246221   2.537   7.667   5.376
15327WAT      O46222   8.841   3.196   5.760
15327WAT     H146223   8.935   3.176   5.787
15327WAT     H246224   8.840   3.266   5.690
15328WAT      O46225   0.617   0.645   5.576
15328WAT     H146226   0.620   0.577   5.502
15328WAT     H246227   0.641   0.601   5.662
15329WAT      O46228   0.158   5.163   5.359
15329WAT     H146229   0.099   5.094   5.400
15329WAT     H246230   0.161   5.243   5.419
15330WAT      O46231   6.374   0.945   3.643
15330WAT     H146232   6.452   0.946   3.580
15330WAT     H246233   6.322   1.029   3.632
15331WAT      O46234   1.245   9.822   9.330
15331WAT     H146235   1.314   9.780   9.389
15331WAT     H246236   1.289   9.888   9.269
15332WAT      O46237   0.460   8.273   1.129
15332WAT     H146238   0.500   8.331   1.058
15332WAT     H246239   0.365   8.252   1.105
15333WAT      O46240   3.540   6.740   1.023
15333WAT     H146241   3.608   6.776   1.087
15333WAT     H246242   3.458   6.712   1.074
15334WAT      O46243   3.931   7.772   8.402
15334WAT     H146244   4.027   7.778   8.426
15334WAT     H246245   3.903   7.676   8.402
15335WAT      O46246   0.146   0.390   7.357
15335WAT     H146247   0.185   0.440   7.279
15335WAT     H246248   0.088   0.452   7.410
15336WAT      O46249   1.301   3.687   8.270
15336WAT     H146250   1.219   3.655   8.317
15336WAT     H246251   1.378   3.629   8.296
15337WAT      O46252   1.222   7.610   8.470
15337WAT     H146253   1.287   7.564   8.531
15337WAT     H246254   1.157   7.544   8.433
15338WAT      O46255   3.638   0.603   1.416
15338WAT     H146256   3.638   0.701   1.433
15338WAT     H246257   3.723   0.563   1.450
15339WAT      O46258   2.767   7.883   4.973
15339WAT     H146259   2.783   7.784   4.972
15339WAT     H246260   2.802   7.922   5.058
15340WAT      O46261   1.878   2.898   6.461
15340WAT     H146262   1.955   2.893   6.525
15340WAT     H246263   1.902   2.959   6.385
15341WAT      O46264   8.358   2.940   4.349
15341WAT     H146265   8.413   2.891   4.281
15341WAT     H246266   8.334   2.877   4.423
15342WAT      O46267   1.950   3.790   2.682
15342WAT     H146268   1.989   3.848   2.753
15342WAT     H246269   1.901   3.714   2.724
15343WAT      O46270   1.729   5.047   8.224
15343WAT     H146271   1.702   5.073   8.131
15343WAT     H246272   1.754   4.950   8.226
15344WAT      O46273   4.549   6.519   5.683
15344WAT     H146274   4.628   6.459   5.664
15344WAT     H246275   4.568   6.573   5.765
15345WAT      O46276   8.401   0.199   6.057
15345WAT     H146277   8.389   0.226   5.961
15345WAT     H246278   8.372   0.274   6.116
15346WAT      O46279   2.412   2.267   1.848
15346WAT     H146280   2.497   2.227   1.882
15346WAT     H246281   2.343   2.194   1.840
15347WAT      O46282   3.795   3.838   6.380
15347WAT     H146283   3.872   3.893   6.412
15347WAT     H246284   3.794   3.837   6.280
15348WAT      O46285   2.011   0.938   1.735
15348WAT     H146286   2.060   0.870   1.790
15348WAT     H246287   1.918   0.906   1.718
15349WAT      O46288   9.163   6.568   1.238
15349WAT     H146289   9.118   6.481   1.255
15349WAT     H246290   9.096   6.642   1.245
15350WAT      O46291   1.455   1.688   4.847
15350WAT     H146292   1.365   1.722   4.876
15350WAT     H246293   1.454   1.588   4.847
15351WAT      O46294   3.475   9.035   5.703
15351WAT     H146295   3.562   9.056   5.748
15351WAT     H246296   3.491   9.018   5.606
15352WAT      O46297   4.056   1.960   0.051
15352WAT     H146298   4.048   2.028  -0.022
15352WAT     H246299   4.139   1.979   0.104
15353WAT      O46300   6.582   3.916   2.499
15353WAT     H146301   6.667   3.894   2.450
15353WAT     H246302   6.505   3.871   2.453
15354WAT      O46303   8.957   0.962   1.389
15354WAT     H146304   9.030   1.023   1.420
15354WAT     H246305   8.945   0.888   1.454
15355WAT      O46306   6.853   4.105   8.370
15355WAT     H146307   6.770   4.148   8.407
15355WAT     H246308   6.839   4.082   8.274
15356WAT      O46309   8.852   7.714   3.793
15356WAT     H146310   8.842   7.788   3.728
15356WAT     H246311   8.929   7.733   3.855
15357WAT      O46312   8.129   3.652   4.517
15357WAT     H146313   8.055   3.714   4.489
15357WAT     H246314   8.162   3.679   4.608
15358WAT      O46315   2.149   7.612   3.445
15358WAT     H146316   2.209   7.535   3.425
15358WAT     H246317   2.139   7.621   3.545
15359WAT      O46318   5.917   4.923   9.790
15359WAT     H146319   5.986   4.950   9.856
15359WAT     H246320   5.936   4.966   9.702
15360WAT      O46321   8.690   7.224   0.427
15360WAT     H146322   8.763   7.212   0.359
15360WAT     H246323   8.701   7.157   0.500
15361WAT      O46324   4.813   6.649   5.988
15361WAT     H146325   4.814   6.721   5.918
15361WAT     H246326   4.843   6.686   6.075
15362WAT      O46327   4.423   5.907   9.855
15362WAT     H146328   4.395   5.846   9.929
15362WAT     H246329   4.356   5.981   9.846
15363WAT      O46330   5.143   1.825   8.551
15363WAT     H146331   5.140   1.883   8.470
15363WAT     H246332   5.088   1.743   8.535
15364WAT      O46333   8.764   2.205   8.112
15364WAT     H146334   8.863   2.218   8.114
15364WAT     H246335   8.727   2.221   8.204
15365WAT      O46336   0.273   0.660   3.585
15365WAT     H146337   0.265   0.742   3.642
15365WAT     H246338   0.189   0.606   3.593
15366WAT      O46339   5.818   5.114   2.427
15366WAT     H146340   5.746   5.184   2.431
15366WAT     H246341   5.780   5.026   2.456
15367WAT      O46342   9.320   9.539   5.389
15367WAT     H146343   9.394   9.472   5.392
15367WAT     H246344   9.319   9.593   5.473
15368WAT      O46345   1.605   1.467   0.177
15368WAT     H146346   1.607   1.412   0.093
15368WAT     H246347   1.563   1.556   0.158
15369WAT      O46348   2.369   2.102   5.693
15369WAT     H146349   2.289   2.123   5.638
15369WAT     H246350   2.435   2.051   5.638
15370WAT      O46351   0.579   7.903   9.058
15370WAT     H146352   0.508   7.896   9.128
15370WAT     H246353   0.650   7.967   9.088
15371WAT      O46354   7.196   1.705   8.137
15371WAT     H146355   7.259   1.754   8.198
15371WAT     H246356   7.240   1.622   8.104
15372WAT      O46357   4.055   7.053   6.373
15372WAT     H146358   3.982   7.024   6.436
15372WAT     H246359   4.116   6.976   6.355
15373WAT      O46360   1.081   2.734   4.486
15373WAT     H146361   1.091   2.662   4.554
15373WAT     H246362   1.171   2.764   4.455
15374WAT      O46363   0.525   6.697   1.010
15374WAT     H146364   0.482   6.752   0.938
15374WAT     H246365   0.623   6.716   1.012
15375WAT      O46366   2.543   4.315   3.561
15375WAT     H146367   2.584   4.318   3.469
15375WAT     H246368   2.447   4.340   3.555
15376WAT      O46369   1.921   6.193   5.861
15376WAT     H146370   1.888   6.278   5.820
15376WAT     H246371   2.015   6.205   5.891
15377WAT      O46372   4.136   5.990   9.827
15377WAT     H146373   4.105   6.082   9.801
15377WAT     H246374   4.102   5.924   9.761
15378WAT      O46375   1.432   6.555   0.777
15378WAT     H146376   1.479   6.553   0.689
15378WAT     H246377   1.404   6.462   0.802
15379WAT      O46378   3.006   2.774   8.047
15379WAT     H146379   2.925   2.775   7.989
15379WAT     H246380   3.018   2.864   8.089
15380WAT      O46381   2.033   5.083   6.957
15380WAT     H146382   1.992   5.035   6.879
15380WAT     H246383   2.126   5.048   6.972
15381WAT      O46384   9.078   3.823   9.694
15381WAT     H146385   9.052   3.733   9.727
15381WAT     H246386   9.071   3.825   9.594
15382WAT      O46387   3.371   0.322   7.439
15382WAT     H146388   3.339   0.235   7.475
15382WAT     H246389   3.343   0.396   7.501
15383WAT      O46390   9.264   6.065   3.641
15383WAT     H146391   9.274   6.058   3.740
15383WAT     H246392   9.168   6.048   3.616
15384WAT      O46393   1.126   1.900   7.607
15384WAT     H146394   1.217   1.866   7.632
15384WAT     H246395   1.109   1.881   7.511
15385WAT      O46396   3.712   9.078   5.823
15385WAT     H146397   3.795   9.041   5.783
15385WAT     H246398   3.732   9.112   5.915
15386WAT      O46399   9.470   0.321   6.312
15386WAT     H146400   9.502   0.239   6.359
15386WAT     H246401   9.544   0.388   6.309
15387WAT      O46402   3.198   4.125   3.527
15387WAT     H146403   3.276   4.067   3.502
15387WAT     H246404   3.203   4.149   3.624
15388WAT      O46405   6.188   8.051   6.109
15388WAT     H146406   6.274   8.008   6.136
15388WAT     H246407   6.117   7.981   6.100
15389WAT      O46408   5.303   5.352   7.443
15389WAT     H146409   5.320   5.258   7.415
15389WAT     H246410   5.389   5.403   7.443
15390WAT      O46411   6.223   8.926   1.356
15390WAT     H146412   6.261   8.993   1.420
15390WAT     H246413   6.283   8.919   1.276
15391WAT      O46414   9.240   3.480   4.369
15391WAT     H146415   9.296   3.419   4.313
15391WAT     H246416   9.300   3.540   4.423
15392WAT      O46417   2.310   6.247   9.388
15392WAT     H146418   2.359   6.332   9.369
15392WAT     H246419   2.322   6.183   9.313
15393WAT      O46420   5.919   7.092   1.092
15393WAT     H146421   5.963   7.105   1.181
15393WAT     H246422   5.820   7.092   1.103
15394WAT      O46423   9.798   6.823   7.357
15394WAT     H146424   9.878   6.884   7.358
15394WAT     H246425   9.772   6.805   7.262
15395WAT      O46426   5.416   2.191   8.697
15395WAT     H146427   5.421   2.092   8.706
15395WAT     H246428   5.437   2.234   8.785
15396WAT      O46429   9.510   1.030   5.898
15396WAT     H146430   9.503   1.126   5.928
15396WAT     H246431   9.418   0.991   5.893
15397WAT      O46432   1.039   6.359   6.429
15397WAT     H146433   1.070   6.452   6.412
15397WAT     H246434   0.960   6.339   6.371
15398WAT      O46435   8.039   2.554   7.140
15398WAT     H146436   8.024   2.473   7.196
15398WAT     H246437   8.137   2.574   7.135
15399WAT      O46438   6.455   2.105   9.666
15399WAT     H146439   6.533   2.074   9.720
15399WAT     H246440   6.408   2.179   9.715
15400WAT      O46441   5.545   3.042   9.277
15400WAT     H146442   5.455   3.080   9.254
15400WAT     H246443   5.561   3.053   9.376
15401WAT      O46444   5.285   8.614   5.483
15401WAT     H146445   5.310   8.632   5.578
15401WAT     H246446   5.202   8.664   5.460
15402WAT      O46447   3.350   3.108   5.733
15402WAT     H146448   3.448   3.126   5.722
15402WAT     H246449   3.298   3.173   5.678
15403WAT      O46450   6.651   2.355   1.233
15403WAT     H146451   6.736   2.398   1.264
15403WAT     H246452   6.658   2.333   1.136
15404WAT      O46453   5.852   7.387   5.339
15404WAT     H146454   5.769   7.438   5.317
15404WAT     H246455   5.872   7.322   5.266
15405WAT      O46456   1.659   2.324   1.077
15405WAT     H146457   1.599   2.247   1.099
15405WAT     H246458   1.697   2.363   1.161
15406WAT      O46459   5.753   2.416   6.157
15406WAT     H146460   5.818   2.375   6.221
15406WAT     H246461   5.683   2.349   6.134
15407WAT      O46462   1.077   2.810   4.863
15407WAT     H146463   1.080   2.738   4.794
15407WAT     H246464   1.021   2.886   4.830
15408WAT      O46465   2.660   6.064   1.469
15408WAT     H146466   2.728   6.135   1.456
15408WAT     H246467   2.574   6.091   1.425
15409WAT      O46468   1.605   3.955   7.859
15409WAT     H146469   1.640   3.866   7.887
15409WAT     H246470   1.633   3.975   7.765
15410WAT      O46471   6.111   8.542   2.517
15410WAT     H146472   6.167   8.470   2.475
15410WAT     H246473   6.062   8.505   2.596
15411WAT      O46474   4.699   4.387   8.453
15411WAT     H146475   4.710   4.431   8.364
15411WAT     H246476   4.764   4.312   8.462
15412WAT      O46477   6.303   7.154   1.864
15412WAT     H146478   6.207   7.169   1.838
15412WAT     H246479   6.344   7.087   1.802
15413WAT      O46480   5.321   0.822   2.129
15413WAT     H146481   5.339   0.753   2.058
15413WAT     H246482   5.227   0.855   2.118
15414WAT      O46483   2.693   4.530   8.605
15414WAT     H146484   2.664   4.481   8.687
15414WAT     H246485   2.617   4.535   8.540
15415WAT      O46486   7.310   6.525   1.102
15415WAT     H146487   7.216   6.551   1.125
15415WAT     H246488   7.309   6.441   1.048
15416WAT      O46489   7.942   0.590   1.651
15416WAT     H146490   8.014   0.650   1.687
15416WAT     H246491   7.903   0.536   1.726
15417WAT      O46492   1.176   8.365   8.479
15417WAT     H146493   1.139   8.274   8.457
15417WAT     H246494   1.197   8.414   8.394
15418WAT      O46495   6.842   0.378   2.851
15418WAT     H146496   6.809   0.286   2.871
15418WAT     H246497   6.802   0.409   2.765
15419WAT      O46498   0.117   2.849   5.451
15419WAT     H146499   0.038   2.846   5.512
15419WAT     H246500   0.178   2.923   5.480
15420WAT      O46501   4.341   5.888   9.437
15420WAT     H146502   4.275   5.812   9.441
15420WAT     H246503   4.414   5.872   9.504
15421WAT      O46504   1.277   3.414   8.933
15421WAT     H146505   1.306   3.359   9.011
15421WAT     H246506   1.198   3.372   8.889
15422WAT      O46507   7.691   2.843   9.266
15422WAT     H146508   7.618   2.787   9.226
15422WAT     H246509   7.693   2.933   9.222
15423WAT      O46510   0.560   9.361   7.654
15423WAT     H146511   0.628   9.431   7.634
15423WAT     H246512   0.565   9.288   7.586
15424WAT      O46513   7.339   2.253   0.213
15424WAT     H146514   7.428   2.214   0.188
15424WAT     H246515   7.341   2.352   0.201
15425WAT      O46516   2.573   6.856   7.381
15425WAT     H146517   2.521   6.923   7.329
15425WAT     H246518   2.663   6.843   7.339
15426WAT      O46519   0.467   7.224   8.022
15426WAT     H146520   0.499   7.221   7.928
15426WAT     H246521   0.372   7.257   8.024
15427WAT      O46522   0.179   3.652   5.576
15427WAT     H146523   0.248   3.586   5.607
15427WAT     H246524   0.088   3.613   5.589
15428WAT      O46525   8.864   4.307   3.815
15428WAT     H146526   8.917   4.355   3.745
15428WAT     H246527   8.767   4.332   3.806
15429WAT      O46528   6.636   2.551   8.933
15429WAT     H146529   6.627   2.461   8.976
15429WAT     H246530   6.578   2.554   8.851
15430WAT      O46531   5.787   8.265   7.209
15430WAT     H146532   5.751   8.224   7.126
15430WAT     H246533   5.712   8.299   7.265
15431WAT      O46534   8.208   6.208   4.567
15431WAT     H146535   8.250   6.158   4.492
15431WAT     H246536   8.250   6.180   4.654
15432WAT      O46537   4.072   9.611   6.349
15432WAT     H146538   4.120   9.525   6.364
15432WAT     H246539   4.002   9.622   6.420
15433WAT      O46540   4.865   1.762   7.116
15433WAT     H146541   4.828   1.689   7.173
15433WAT     H246542   4.844   1.850   7.158
15434WAT      O46543   3.721   8.287   5.602
15434WAT     H146544   3.682   8.206   5.557
15434WAT     H246545   3.769   8.343   5.534
15435WAT      O46546   3.119   1.851   2.631
15435WAT     H146547   3.059   1.800   2.570
15435WAT     H246548   3.065   1.894   2.703
15436WAT      O46549   4.495   7.901   0.928
15436WAT     H146550   4.400   7.877   0.908
15436WAT     H246551   4.554   7.865   0.855
15437WAT      O46552   5.334   4.724   2.742
15437WAT     H146553   5.315   4.635   2.783
15437WAT     H246554   5.266   4.791   2.775
15438WAT      O46555   4.837   3.629   6.053
15438WAT     H146556   4.838   3.677   5.966
15438WAT     H246557   4.763   3.664   6.110
15439WAT      O46558   0.631   1.266   6.896
15439WAT     H146559   0.549   1.323   6.906
15439WAT     H246560   0.666   1.275   6.803
15440WAT      O46561   8.674   5.934   4.544
15440WAT     H146562   8.655   6.030   4.566
15440WAT     H246563   8.754   5.903   4.595
15441WAT      O46564   0.012   1.706   1.150
15441WAT     H146565   0.073   1.782   1.171
15441WAT     H246566   0.062   1.635   1.101
15442WAT      O46567   2.443   3.361   2.869
15442WAT     H146568   2.459   3.328   2.962
15442WAT     H246569   2.393   3.447   2.871
15443WAT      O46570   2.465   0.715   0.626
15443WAT     H146571   2.445   0.813   0.626
15443WAT     H246572   2.387   0.665   0.664
15444WAT      O46573   3.171   5.903   9.703
15444WAT     H146574   3.160   5.996   9.670
15444WAT     H246575   3.116   5.889   9.785
15445WAT      O46576   3.716   1.936   6.047
15445WAT     H146577   3.783   2.004   6.018
15445WAT     H246578   3.754   1.844   6.036
15446WAT      O46579   5.698   4.730   7.907
15446WAT     H146580   5.765   4.684   7.966
15446WAT     H246581   5.617   4.753   7.961
15447WAT      O46582   2.292   8.825   9.368
15447WAT     H146583   2.311   8.923   9.374
15447WAT     H246584   2.307   8.794   9.274
15448WAT      O46585   1.341   2.846   4.878
15448WAT     H146586   1.250   2.805   4.871
15448WAT     H246587   1.363   2.895   4.793
15449WAT      O46588   6.420   3.070   7.410
15449WAT     H146589   6.420   3.166   7.439
15449WAT     H246590   6.497   3.054   7.347
15450WAT      O46591   7.512   9.030   9.407
15450WAT     H146592   7.485   8.982   9.491
15450WAT     H246593   7.608   9.013   9.388
15451WAT      O46594   0.101   8.530   8.842
15451WAT     H146595   0.127   8.463   8.911
15451WAT     H246596   0.145   8.507   8.755
15452WAT      O46597   1.738   5.641   6.707
15452WAT     H146598   1.736   5.700   6.626
15452WAT     H246599   1.661   5.665   6.767
15453WAT      O46600   4.988   2.798   6.756
15453WAT     H146601   5.060   2.756   6.701
15453WAT     H246602   4.968   2.890   6.722
15454WAT      O46603   7.880   8.459   4.978
15454WAT     H146604   7.949   8.434   5.047
15454WAT     H246605   7.906   8.545   4.936
15455WAT      O46606   0.532   7.257   6.960
15455WAT     H146607   0.539   7.304   6.872
15455WAT     H246608   0.484   7.170   6.947
15456WAT      O46609   8.029   2.644   9.590
15456WAT     H146610   8.034   2.698   9.674
15456WAT     H246611   7.962   2.684   9.528
15457WAT      O46612   8.601   3.528   9.402
15457WAT     H146613   8.565   3.575   9.322
15457WAT     H246614   8.649   3.593   9.460
15458WAT      O46615   4.354   4.408   0.443
15458WAT     H146616   4.255   4.420   0.452
15458WAT     H246617   4.394   4.390   0.533
15459WAT      O46618   7.350   1.866   7.686
15459WAT     H146619   7.290   1.787   7.688
15459WAT     H246620   7.441   1.839   7.720
15460WAT      O46621   5.744   5.452   8.539
15460WAT     H146622   5.672   5.437   8.471
15460WAT     H246623   5.831   5.467   8.492
15461WAT      O46624   7.811   9.483   9.430
15461WAT     H146625   7.890   9.451   9.378
15461WAT     H246626   7.730   9.430   9.404
15462WAT      O46627   9.121   1.015   4.339
15462WAT     H146628   9.052   1.001   4.410
15462WAT     H246629   9.115   0.941   4.273
15463WAT      O46630   9.122   4.111   8.642
15463WAT     H146631   9.100   4.198   8.685
15463WAT     H246632   9.124   4.123   8.542
15464WAT      O46633   1.921   4.763   3.086
15464WAT     H146634   1.922   4.723   2.995
15464WAT     H246635   1.953   4.696   3.152
15465WAT      O46636   1.253   6.395   6.873
15465WAT     H146637   1.322   6.467   6.866
15465WAT     H246638   1.251   6.344   6.787
15466WAT      O46639   5.839   4.864   8.345
15466WAT     H146640   5.837   4.964   8.338
15466WAT     H246641   5.903   4.827   8.278
15467WAT      O46642   1.331   5.971   5.217
15467WAT     H146643   1.238   5.998   5.192
15467WAT     H246644   1.328   5.911   5.297
15468WAT      O46645   6.681   8.054   7.501
15468WAT     H146646   6.674   8.011   7.591
15468WAT     H246647   6.593   8.044   7.453
15469WAT      O46648   6.445   3.361   3.216
15469WAT     H146649   6.485   3.280   3.258
15469WAT     H246650   6.414   3.424   3.287
15470WAT      O46651   7.236   1.662   0.103
15470WAT     H146652   7.317   1.695   0.055
15470WAT     H246653   7.239   1.692   0.199
15471WAT      O46654   3.635   1.872   4.548
15471WAT     H146655   3.564   1.938   4.523
15471WAT     H246656   3.599   1.779   4.536
15472WAT      O46657   3.594   2.305   5.340
15472WAT     H146658   3.506   2.266   5.368
15472WAT     H246659   3.580   2.371   5.267
15473WAT      O46660   5.141   8.350   2.701
15473WAT     H146661   5.166   8.256   2.724
15473WAT     H246662   5.091   8.350   2.614
15474WAT      O46663   4.927   7.684   3.972
15474WAT     H146664   4.852   7.739   4.008
15474WAT     H246665   5.011   7.737   3.972
15475WAT      O46666   6.159   5.231   8.232
15475WAT     H146667   6.175   5.303   8.164
15475WAT     H246668   6.169   5.141   8.188
15476WAT      O46669   4.129   5.957   0.196
15476WAT     H146670   4.156   5.967   0.100
15476WAT     H246671   4.185   6.017   0.253
15477WAT      O46672   0.675   9.005   5.570
15477WAT     H146673   0.585   8.974   5.601
15477WAT     H246674   0.711   8.941   5.503
15478WAT      O46675   3.978   4.735   1.258
15478WAT     H146676   3.961   4.672   1.333
15478WAT     H246677   3.967   4.829   1.290
15479WAT      O46678   0.161   4.150   5.618
15479WAT     H146679   0.199   4.226   5.670
15479WAT     H246680   0.062   4.147   5.632
15480WAT      O46681   3.876   5.763   6.744
15480WAT     H146682   3.792   5.815   6.761
15480WAT     H246683   3.880   5.685   6.805
15481WAT      O46684   6.135   4.039   2.612
15481WAT     H146685   6.090   3.980   2.678
15481WAT     H246686   6.208   3.988   2.566
15482WAT      O46687   9.760   6.409   8.033
15482WAT     H146688   9.812   6.449   8.109
15482WAT     H246689   9.669   6.382   8.066
15483WAT      O46690   9.375   3.437   6.073
15483WAT     H146691   9.408   3.463   5.983
15483WAT     H246692   9.403   3.506   6.140
15484WAT      O46693   0.513   2.410   2.393
15484WAT     H146694   0.442   2.346   2.363
15484WAT     H246695   0.536   2.472   2.319
15485WAT      O46696   3.881   3.287   4.062
15485WAT     H146697   3.804   3.303   4.000
15485WAT     H246698   3.871   3.198   4.106
15486WAT      O46699   4.179   1.130   3.581
15486WAT     H146700   4.251   1.160   3.518
15486WAT     H246701   4.133   1.050   3.544
15487WAT      O46702   9.397   0.438   0.625
15487WAT     H146703   9.410   0.339   0.629
15487WAT     H246704   9.321   0.464   0.686
15488WAT      O46705   3.699   7.071   0.084
15488WAT     H146706   3.613   7.053   0.036
15488WAT     H246707   3.775   7.063   0.019
15489WAT      O46708   2.234   7.211   8.408
15489WAT     H146709   2.201   7.238   8.498
15489WAT     H246710   2.198   7.273   8.339
15490WAT      O46711   0.806   6.088   9.379
15490WAT     H146712   0.897   6.126   9.358
15490WAT     H246713   0.817   5.999   9.424
15491WAT      O46714   2.544   5.838   6.938
15491WAT     H146715   2.550   5.935   6.963
15491WAT     H246716   2.449   5.808   6.943
15492WAT      O46717   6.145   2.929   6.665
15492WAT     H146718   6.244   2.938   6.659
15492WAT     H246719   6.112   2.867   6.593
15493WAT      O46720   6.824   9.810   5.786
15493WAT     H146721   6.830   9.718   5.826
15493WAT     H246722   6.745   9.814   5.724
15494WAT      O46723   0.358   8.742   7.097
15494WAT     H146724   0.286   8.810   7.113
15494WAT     H246725   0.318   8.650   7.098
15495WAT      O46726   0.536   3.182   2.389
15495WAT     H146727   0.546   3.282   2.384
15495WAT     H246728   0.496   3.148   2.304
15496WAT      O46729   5.092   0.178   1.946
15496WAT     H146730   5.030   0.206   2.020
15496WAT     H246731   5.102   0.079   1.947
15497WAT      O46732   0.459   9.667   7.749
15497WAT     H146733   0.393   9.635   7.682
15497WAT     H246734   0.462   9.603   7.826
15498WAT      O46735   2.905   0.291   0.756
15498WAT     H146736   2.846   0.243   0.692
15498WAT     H246737   2.985   0.233   0.777
15499WAT      O46738   8.621   2.970   2.128
15499WAT     H146739   8.594   3.061   2.094
15499WAT     H246740   8.710   2.976   2.172
15500WAT      O46741   4.651   7.011   1.305
15500WAT     H146742   4.697   6.930   1.271
15500WAT     H246743   4.691   7.038   1.393
15501WAT      O46744   0.773   4.391   1.915
15501WAT     H146745   0.807   4.347   1.831
15501WAT     H246746   0.745   4.320   1.980
15502WAT      O46747   9.711   9.833   8.779
15502WAT     H146748   9.633   9.891   8.803
15502WAT     H246749   9.681   9.737   8.775
15503WAT      O46750   0.957   4.644   9.861
15503WAT     H146751   0.957   4.646   9.761
15503WAT     H246752   0.868   4.675   9.895
15504WAT      O46753   8.967   6.346   7.122
15504WAT     H146754   9.027   6.272   7.091
15504WAT     H246755   8.951   6.409   7.046
15505WAT      O46756   4.972   0.953   4.539
15505WAT     H146757   4.918   0.884   4.490
15505WAT     H246758   4.912   1.012   4.592
15506WAT      O46759   7.484   3.391   2.186
15506WAT     H146760   7.426   3.380   2.105
15506WAT     H246761   7.494   3.489   2.206
15507WAT      O46762   1.873   9.348   3.654
15507WAT     H146763   1.918   9.410   3.718
15507WAT     H246764   1.859   9.259   3.698
15508WAT      O46765   6.914   7.227   9.201
15508WAT     H146766   6.832   7.172   9.213
15508WAT     H246767   6.929   7.282   9.283
15509WAT      O46768   2.579   7.197   2.130
15509WAT     H146769   2.625   7.209   2.042
15509WAT     H246770   2.578   7.100   2.154
15510WAT      O46771   7.800   0.369   0.861
15510WAT     H146772   7.707   0.399   0.839
15510WAT     H246773   7.803   0.269   0.856
15511WAT      O46774   8.898   7.231   8.719
15511WAT     H146775   8.896   7.268   8.813
15511WAT     H246776   8.915   7.133   8.722
15512WAT      O46777   1.821   6.067   2.252
15512WAT     H146778   1.893   6.027   2.309
15512WAT     H246779   1.785   5.997   2.190
15513WAT      O46780   0.536   7.457   5.956
15513WAT     H146781   0.470   7.524   5.992
15513WAT     H246782   0.586   7.416   6.032
15514WAT      O46783   1.157   4.016   2.930
15514WAT     H146784   1.197   3.950   2.866
15514WAT     H246785   1.071   3.979   2.966
15515WAT      O46786   7.345   7.453   5.488
15515WAT     H146787   7.410   7.387   5.524
15515WAT     H246788   7.285   7.408   5.420
15516WAT      O46789   3.810   7.048   6.104
15516WAT     H146790   3.864   7.041   6.187
15516WAT     H246791   3.740   6.976   6.104
15517WAT      O46792   6.608   5.867   8.434
15517WAT     H146793   6.578   5.806   8.362
15517WAT     H246794   6.552   5.853   8.516
15518WAT      O46795   2.764   2.958   5.494
15518WAT     H146796   2.753   2.875   5.549
15518WAT     H246797   2.827   3.020   5.541
15519WAT      O46798   5.063   5.594   0.643
15519WAT     H146799   5.004   5.673   0.654
15519WAT     H246800   5.085   5.556   0.733
15520WAT      O46801   5.263   8.251   2.333
15520WAT     H146802   5.171   8.215   2.350
15520WAT     H246803   5.307   8.197   2.261
15521WAT      O46804   0.227   9.141   6.973
15521WAT     H146805   0.239   9.109   6.879
15521WAT     H246806   0.131   9.159   6.991
15522WAT      O46807   6.523   1.555   4.085
15522WAT     H146808   6.540   1.653   4.072
15522WAT     H246809   6.557   1.505   4.006
15523WAT      O46810   3.636   7.434   0.675
15523WAT     H146811   3.617   7.434   0.773
15523WAT     H246812   3.675   7.522   0.648
15524WAT      O46813   5.634   8.920   3.492
15524WAT     H146814   5.653   8.872   3.577
15524WAT     H246815   5.720   8.953   3.452
15525WAT      O46816   1.893   7.534   0.078
15525WAT     H146817   1.876   7.593  -0.001
15525WAT     H246818   1.962   7.466   0.055
15526WAT      O46819   9.850   2.031   0.272
15526WAT     H146820   9.927   2.011   0.333
15526WAT     H246821   9.877   2.012   0.177
15527WAT      O46822   1.120   7.910   2.986
15527WAT     H146823   1.183   7.953   2.921
15527WAT     H246824   1.107   7.971   3.064
15528WAT      O46825   3.000   4.691   7.766
15528WAT     H146826   2.948   4.767   7.803
15528WAT     H246827   3.017   4.624   7.839
15529WAT      O46828   4.962   5.797   5.139
15529WAT     H146829   4.924   5.737   5.209
15529WAT     H246830   5.061   5.800   5.148
15530WAT      O46831   4.633   4.585   9.250
15530WAT     H146832   4.607   4.518   9.319
15530WAT     H246833   4.599   4.556   9.161
15531WAT      O46834   0.721   5.823   2.710
15531WAT     H146835   0.649   5.758   2.687
15531WAT     H246836   0.699   5.913   2.672
15532WAT      O46837   1.744   3.685   8.068
15532WAT     H146838   1.828   3.659   8.019
15532WAT     H246839   1.670   3.622   8.042
15533WAT      O46840   8.299   2.099   7.746
15533WAT     H146841   8.308   2.011   7.701
15533WAT     H246842   8.207   2.134   7.733
15534WAT      O46843   1.018   5.181   7.873
15534WAT     H146844   1.085   5.184   7.798
15534WAT     H246845   0.949   5.251   7.858
15535WAT      O46846   9.269   2.727   2.731
15535WAT     H146847   9.317   2.814   2.735
15535WAT     H246848   9.331   2.653   2.756
15536WAT      O46849   4.416   8.593   4.672
15536WAT     H146850   4.379   8.515   4.620
15536WAT     H246851   4.476   8.559   4.744
15537WAT      O46852   5.980   0.405   7.818
15537WAT     H146853   5.977   0.350   7.734
15537WAT     H246854   6.038   0.486   7.803
15538WAT      O46855   0.146   8.633   6.897
15538WAT     H146856   0.083   8.690   6.949
15538WAT     H246857   0.102   8.603   6.812
15539WAT      O46858   3.465   4.818   8.938
15539WAT     H146859   3.500   4.893   8.994
15539WAT     H246860   3.401   4.763   8.992
15540WAT      O46861   4.119   9.327   3.583
15540WAT     H146862   4.077   9.411   3.548
15540WAT     H246863   4.192   9.298   3.521
15541WAT      O46864   7.128   8.648   6.627
15541WAT     H146865   7.131   8.682   6.533
15541WAT     H246866   7.196   8.577   6.639
15542WAT      O46867   4.818   5.052   4.401
15542WAT     H146868   4.879   5.131   4.408
15542WAT     H246869   4.730   5.074   4.444
15543WAT      O46870   6.203   8.870   3.168
15543WAT     H146871   6.106   8.863   3.146
15543WAT     H246872   6.246   8.780   3.159
15544WAT      O46873   4.530   7.377   6.717
15544WAT     H146874   4.566   7.289   6.746
15544WAT     H246875   4.468   7.413   6.786
15545WAT      O46876   7.657   2.089   8.694
15545WAT     H146877   7.661   2.020   8.621
15545WAT     H246878   7.562   2.107   8.717
15546WAT      O46879   5.327   8.709   0.821
15546WAT     H146880   5.281   8.789   0.860
15546WAT     H246881   5.323   8.715   0.721
15547WAT      O46882   6.533   4.522   5.490
15547WAT     H146883   6.506   4.550   5.582
15547WAT     H246884   6.517   4.423   5.479
15548WAT      O46885   6.393   2.840   5.082
15548WAT     H146886   6.351   2.766   5.030
15548WAT     H246887   6.327   2.875   5.148
15549WAT      O46888   2.806   3.315   5.476
15549WAT     H146889   2.882   3.254   5.498
15549WAT     H246890   2.820   3.403   5.522
15550WAT      O46891   1.525   7.818   1.488
15550WAT     H146892   1.470   7.902   1.493
15550WAT     H246893   1.620   7.842   1.467
15551WAT      O46894   9.886   7.616   7.567
15551WAT     H146895   9.811   7.585   7.509
15551WAT     H246896   9.967   7.559   7.550
15552WAT      O46897   9.397   1.115   6.545
15552WAT     H146898   9.334   1.069   6.608
15552WAT     H246899   9.344   1.163   6.475
15553WAT      O46900   1.787   6.286   5.290
15553WAT     H146901   1.786   6.191   5.318
15553WAT     H246902   1.756   6.293   5.195
15554WAT      O46903   9.158   6.013   7.948
15554WAT     H146904   9.154   5.990   8.045
15554WAT     H246905   9.066   6.011   7.910
15555WAT      O46906   0.434   3.812   8.549
15555WAT     H146907   0.372   3.766   8.612
15555WAT     H246908   0.381   3.858   8.478
15556WAT      O46909   5.382   5.216   9.884
15556WAT     H146910   5.297   5.251   9.844
15556WAT     H246911   5.427   5.155   9.819
15557WAT      O46912   8.156   6.346   2.964
15557WAT     H146913   8.110   6.404   3.031
15557WAT     H246914   8.154   6.391   2.874
15558WAT      O46915   4.803   9.827   4.659
15558WAT     H146916   4.896   9.793   4.642
15558WAT     H246917   4.766   9.864   4.573
15559WAT      O46918   5.765   4.276   3.061
15559WAT     H146919   5.739   4.336   2.985
15559WAT     H246920   5.706   4.295   3.140
15560WAT      O46921   4.071   0.665   1.154
15560WAT     H146922   4.117   0.725   1.089
15560WAT     H246923   4.000   0.716   1.202
15561WAT      O46924   8.622   6.770   2.100
15561WAT     H146925   8.654   6.675   2.098
15561WAT     H246926   8.526   6.773   2.073
15562WAT      O46927   7.844   9.628   5.592
15562WAT     H146928   7.863   9.697   5.662
15562WAT     H246929   7.814   9.543   5.637
15563WAT      O46930   8.912   5.189   7.037
15563WAT     H146931   8.864   5.237   7.110
15563WAT     H246932   8.931   5.095   7.066
15564WAT      O46933   5.895   0.933   1.239
15564WAT     H146934   5.873   1.006   1.304
15564WAT     H246935   5.825   0.929   1.168
15565WAT      O46936   0.259   1.098   1.840
15565WAT     H146937   0.275   1.092   1.939
15565WAT     H246938   0.339   1.061   1.791
15566WAT      O46939   4.089   6.613   5.650
15566WAT     H146940   4.152   6.647   5.580
15566WAT     H246941   4.123   6.637   5.741
15567WAT      O46942   3.770   1.717   2.257
15567WAT     H146943   3.770   1.721   2.157
15567WAT     H246944   3.865   1.714   2.290
15568WAT      O46945   0.255   9.317   8.007
15568WAT     H146946   0.319   9.304   8.083
15568WAT     H246947   0.163   9.289   8.036
15569WAT      O46948   6.470   3.742   9.567
15569WAT     H146949   6.565   3.711   9.574
15569WAT     H246950   6.422   3.686   9.498
15570WAT      O46951   7.779   3.147   5.918
15570WAT     H146952   7.857   3.182   5.867
15570WAT     H246953   7.809   3.073   5.978
15571WAT      O46954   7.767   5.262   6.187
15571WAT     H146955   7.739   5.169   6.211
15571WAT     H246956   7.759   5.321   6.268
15572WAT      O46957   1.810   5.822   8.655
15572WAT     H146958   1.906   5.848   8.645
15572WAT     H246959   1.778   5.849   8.746
15573WAT      O46960   4.745   8.859   7.264
15573WAT     H146961   4.770   8.785   7.202
15573WAT     H246962   4.810   8.862   7.341
15574WAT      O46963   6.975   9.619   4.561
15574WAT     H146964   6.931   9.666   4.485
15574WAT     H246965   7.041   9.680   4.605
15575WAT      O46966   7.345   2.237   8.437
15575WAT     H146967   7.319   2.327   8.472
15575WAT     H246968   7.309   2.166   8.499
15576WAT      O46969   1.265   2.806   2.268
15576WAT     H146970   1.289   2.711   2.285
15576WAT     H246971   1.348   2.860   2.255
15577WAT      O46972   3.842   5.823   5.682
15577WAT     H146973   3.873   5.801   5.775
15577WAT     H246974   3.917   5.868   5.633
15578WAT      O46975   0.818   4.100   9.891
15578WAT     H146976   0.774   4.037   9.828
15578WAT     H246977   0.750   4.132   9.958
15579WAT      O46978   2.334   8.592   3.927
15579WAT     H146979   2.330   8.691   3.939
15579WAT     H246980   2.425   8.559   3.952
15580WAT      O46981   9.110   2.400   5.735
15580WAT     H146982   9.161   2.366   5.656
15580WAT     H246983   9.014   2.411   5.709
15581WAT      O46984   0.430   6.532   5.005
15581WAT     H146985   0.378   6.520   5.090
15581WAT     H246986   0.492   6.454   4.994
15582WAT      O46987   9.125   1.660   6.438
15582WAT     H146988   9.051   1.621   6.492
15582WAT     H246989   9.089   1.695   6.351
15583WAT      O46990   0.187   2.785   5.035
15583WAT     H146991   0.111   2.833   5.078
15583WAT     H246992   0.236   2.848   4.974
15584WAT      O46993   1.239   0.302   5.360
15584WAT     H146994   1.309   0.251   5.311
15584WAT     H246995   1.242   0.277   5.457
15585WAT      O46996   7.375   6.813   3.645
15585WAT     H146997   7.382   6.855   3.555
15585WAT     H246998   7.330   6.876   3.708
15586WAT      O46999   0.924   5.497   9.758
15586WAT     H147000   0.982   5.440   9.699
15586WAT     H247001   0.849   5.535   9.705
15587WAT      O47002   5.383   9.548   5.698
15587WAT     H147003   5.291   9.565   5.732
15587WAT     H247004   5.450   9.578   5.766
15588WAT      O47005   9.807   3.128   2.843
15588WAT     H147006   9.818   3.175   2.930
15588WAT     H247007   9.893   3.133   2.792
15589WAT      O47008   5.168   3.808   1.453
15589WAT     H147009   5.102   3.876   1.486
15589WAT     H247010   5.188   3.743   1.527
15590WAT      O47011   2.316   8.696   5.383
15590WAT     H147012   2.305   8.632   5.459
15590WAT     H247013   2.410   8.692   5.350
15591WAT      O47014   7.780   1.750   6.770
15591WAT     H147015   7.732   1.668   6.802
15591WAT     H247016   7.727   1.793   6.697
15592WAT      O47017   6.567   5.339   8.828
15592WAT     H147018   6.624   5.259   8.807
15592WAT     H247019   6.563   5.398   8.748
15593WAT      O47020   1.492   4.854   8.025
15593WAT     H147021   1.558   4.915   7.983
15593WAT     H247022   1.457   4.789   7.957
15594WAT      O47023   7.291   3.844   6.686
15594WAT     H147024   7.273   3.916   6.619
15594WAT     H247025   7.230   3.767   6.669
15595WAT      O47026   7.360   1.332   2.341
15595WAT     H147027   7.365   1.241   2.298
15595WAT     H247028   7.304   1.326   2.424
15596WAT      O47029   0.874   1.423   2.269
15596WAT     H147030   0.895   1.521   2.277
15596WAT     H247031   0.777   1.412   2.246
15597WAT      O47032   6.450   4.473   3.955
15597WAT     H147033   6.489   4.496   4.044
15597WAT     H247034   6.509   4.406   3.909
15598WAT      O47035   6.294   2.170   5.370
15598WAT     H147036   6.310   2.249   5.311
15598WAT     H247037   6.219   2.115   5.334
15599WAT      O47038   6.127   4.458   8.782
15599WAT     H147039   6.127   4.474   8.683
15599WAT     H247040   6.215   4.419   8.810
15600WAT      O47041   3.913   6.029   1.935
15600WAT     H147042   3.934   6.119   1.972
15600WAT     H247043   3.999   5.984   1.907
15601WAT      O47044   0.134   7.265   1.684
15601WAT     H147045   0.063   7.299   1.745
15601WAT     H247046   0.093   7.208   1.613
15602WAT      O47047   3.117   8.041   2.063
15602WAT     H147048   3.130   7.961   2.121
15602WAT     H247049   3.019   8.053   2.045
15603WAT      O47050   2.471   1.628   6.328
15603WAT     H147051   2.508   1.691   6.395
15603WAT     H247052   2.398   1.673   6.276
15604WAT      O47053   6.921   0.364   5.190
15604WAT     H147054   6.850   0.414   5.142
15604WAT     H247055   6.910   0.266   5.176
15605WAT      O47056   7.254   5.558   6.790
15605WAT     H147057   7.300   5.549   6.878
15605WAT     H247058   7.155   5.558   6.805
15606WAT      O47059   5.904   2.315   3.417
15606WAT     H147060   5.985   2.258   3.403
15606WAT     H247061   5.892   2.332   3.515
15607WAT      O47062   1.684   1.209   2.236
15607WAT     H147063   1.762   1.183   2.180
15607WAT     H247064   1.602   1.160   2.205
15608WAT      O47065   1.993   3.775   1.955
15608WAT     H147066   2.028   3.800   2.045
15608WAT     H247067   1.998   3.676   1.943
15609WAT      O47068   6.646   8.483   5.482
15609WAT     H147069   6.590   8.468   5.563
15609WAT     H247070   6.622   8.571   5.441
15610WAT      O47071   3.287   2.072   2.680
15610WAT     H147072   3.213   2.015   2.645
15610WAT     H247073   3.359   2.080   2.610
15611WAT      O47074   4.462   0.203   6.530
15611WAT     H147075   4.527   0.260   6.481
15611WAT     H247076   4.376   0.199   6.478
15612WAT      O47077   0.637   8.390   2.612
15612WAT     H147078   0.560   8.328   2.603
15612WAT     H247079   0.612   8.480   2.576
15613WAT      O47080   4.317   2.743   1.209
15613WAT     H147081   4.278   2.833   1.188
15613WAT     H247082   4.243   2.681   1.235
15614WAT      O47083   4.558   6.735   8.540
15614WAT     H147084   4.584   6.639   8.530
15614WAT     H247085   4.501   6.746   8.622
15615WAT      O47086   2.700   8.070   8.109
15615WAT     H147087   2.753   8.063   8.024
15615WAT     H247088   2.716   8.160   8.150
15616WAT      O47089   6.810   0.212   4.890
15616WAT     H147090   6.714   0.231   4.910
15616WAT     H247091   6.823   0.114   4.877
15617WAT      O47092   1.158   1.337   1.533
15617WAT     H147093   1.120   1.277   1.462
15617WAT     H247094   1.252   1.310   1.551
15618WAT      O47095   0.672   1.041   3.241
15618WAT     H147096   0.605   1.015   3.171
15618WAT     H247097   0.676   0.970   3.311
15619WAT      O47098   0.684   4.071   4.583
15619WAT     H147099   0.607   4.051   4.644
15619WAT     H247100   0.657   4.050   4.489
15620WAT      O47101   4.495   0.051   6.008
15620WAT     H147102   4.477  -0.038   6.049
15620WAT     H247103   4.425   0.116   6.040
15621WAT      O47104   4.544   5.568   1.494
15621WAT     H147105   4.452   5.538   1.520
15621WAT     H247106   4.543   5.667   1.476
15622WAT      O47107   4.516   6.514   7.694
15622WAT     H147108   4.593   6.471   7.743
15622WAT     H247109   4.471   6.445   7.637
15623WAT      O47110   0.986   5.649   6.309
15623WAT     H147111   0.909   5.711   6.293
15623WAT     H247112   0.959   5.579   6.374
15624WAT      O47113   7.558   9.686   3.846
15624WAT     H147114   7.549   9.586   3.844
15624WAT     H247115   7.484   9.725   3.900
15625WAT      O47116   4.947   9.048   2.505
15625WAT     H147117   4.983   9.071   2.414
15625WAT     H247118   5.000   8.972   2.543
15626WAT      O47119   3.770   6.760   1.976
15626WAT     H147120   3.843   6.773   2.043
15626WAT     H247121   3.702   6.696   2.014
15627WAT      O47122   3.498   0.958   9.319
15627WAT     H147123   3.436   0.903   9.263
15627WAT     H247124   3.450   1.040   9.350
15628WAT      O47125   6.491   2.106   5.539
15628WAT     H147126   6.485   2.178   5.609
15628WAT     H247127   6.439   2.134   5.459
15629WAT      O47128   2.800   6.300   8.692
15629WAT     H147129   2.845   6.211   8.696
15629WAT     H247130   2.849   6.360   8.629
15630WAT      O47131   1.345   6.854   7.265
15630WAT     H147132   1.294   6.773   7.237
15630WAT     H247133   1.308   6.888   7.352
15631WAT      O47134   8.273   4.501   7.157
15631WAT     H147135   8.211   4.509   7.235
15631WAT     H247136   8.367   4.496   7.190
15632WAT      O47137   2.973   5.414   0.841
15632WAT     H147138   2.985   5.355   0.760
15632WAT     H247139   2.965   5.356   0.922
15633WAT      O47140   5.579   3.212   1.495
15633WAT     H147141   5.626   3.263   1.423
15633WAT     H247142   5.482   3.238   1.495
15634WAT      O47143   4.821   5.396   9.026
15634WAT     H147144   4.861   5.451   8.953
15634WAT     H247145   4.829   5.299   9.003
15635WAT      O47146   0.652   5.483   8.785
15635WAT     H147147   0.703   5.408   8.828
15635WAT     H247148   0.581   5.445   8.726
15636WAT      O47149   4.145   9.603   4.172
15636WAT     H147150   4.138   9.670   4.099
15636WAT     H247151   4.130   9.511   4.136
15637WAT      O47152   6.816   8.221   9.834
15637WAT     H147153   6.869   8.138   9.850
15637WAT     H247154   6.768   8.246   9.919
15638WAT      O47155   6.557   0.468   4.289
15638WAT     H147156   6.513   0.505   4.208
15638WAT     H247157   6.610   0.540   4.334
15639WAT      O47158   7.358   9.274   7.916
15639WAT     H147159   7.305   9.356   7.892
15639WAT     H247160   7.368   9.216   7.835
15640WAT      O47161   0.859   6.973   9.578
15640WAT     H147162   0.915   7.055   9.566
15640WAT     H247163   0.844   6.956   9.675
15641WAT      O47164   3.476   6.949   3.196
15641WAT     H147165   3.417   7.022   3.161
15641WAT     H247166   3.490   6.962   3.294
15642WAT      O47167   0.976   8.970   1.489
15642WAT     H147168   1.066   8.983   1.448
15642WAT     H247169   0.949   9.054   1.538
15643WAT      O47170   2.062   0.611   3.830
15643WAT     H147171   1.966   0.595   3.854
15643WAT     H247172   2.092   0.541   3.765
15644WAT      O47173   6.689   8.149   1.366
15644WAT     H147174   6.703   8.145   1.465
15644WAT     H247175   6.601   8.108   1.343
15645WAT      O47176   3.443   9.717   9.517
15645WAT     H147177   3.376   9.645   9.536
15645WAT     H247178   3.408   9.805   9.551
15646WAT      O47179   7.471   2.172   7.054
15646WAT     H147180   7.514   2.207   7.137
15646WAT     H247181   7.480   2.238   6.980
15647WAT      O47182   1.631   2.431   2.946
15647WAT     H147183   1.677   2.365   3.005
15647WAT     H247184   1.689   2.453   2.868
15648WAT      O47185   2.755   6.402   9.340
15648WAT     H147186   2.771   6.371   9.434
15648WAT     H247187   2.841   6.436   9.301
15649WAT      O47188   8.821   5.296   5.637
15649WAT     H147189   8.833   5.290   5.538
15649WAT     H247190   8.896   5.249   5.683
15650WAT      O47191   9.478   5.697   5.541
15650WAT     H147192   9.516   5.621   5.594
15650WAT     H247193   9.517   5.783   5.574
15651WAT      O47194   0.397   7.346   1.121
15651WAT     H147195   0.298   7.348   1.131
15651WAT     H247196   0.421   7.312   1.029
15652WAT      O47197   3.507   0.855   4.242
15652WAT     H147198   3.487   0.953   4.238
15652WAT     H247199   3.556   0.836   4.327
15653WAT      O47200   8.062   4.413   4.566
15653WAT     H147201   8.058   4.500   4.518
15653WAT     H247202   8.151   4.403   4.611
15654WAT      O47203   1.585   3.902   8.711
15654WAT     H147204   1.664   3.920   8.769
15654WAT     H247205   1.605   3.825   8.650
15655WAT      O47206   5.481   7.917   9.653
15655WAT     H147207   5.488   7.837   9.712
15655WAT     H247208   5.427   7.988   9.699
15656WAT      O47209   9.084   9.454   6.947
15656WAT     H147210   9.120   9.529   6.893
15656WAT     H247211   9.033   9.491   7.025
15657WAT      O47212   8.040   3.001   2.686
15657WAT     H147213   8.128   2.972   2.724
15657WAT     H247214   8.025   2.957   2.598
15658WAT      O47215   6.011   8.082   4.009
15658WAT     H147216   5.955   8.106   3.929
15658WAT     H247217   6.107   8.095   3.987
15659WAT      O47218   4.961   8.392   4.712
15659WAT     H147219   4.973   8.482   4.753
15659WAT     H247220   5.045   8.339   4.721
15660WAT      O47221   5.649   2.711   8.434
15660WAT     H147222   5.699   2.625   8.446
15660WAT     H247223   5.625   2.723   8.338
15661WAT      O47224   0.823   1.512   4.827
15661WAT     H147225   0.880   1.587   4.860
15661WAT     H247226   0.879   1.447   4.775
15662WAT      O47227   6.018   6.107   8.922
15662WAT     H147228   5.950   6.156   8.867
15662WAT     H247229   5.991   6.109   9.018
15663WAT      O47230   1.500   3.116   9.725
15663WAT     H147231   1.402   3.134   9.724
15663WAT     H247232   1.549   3.194   9.685
15664WAT      O47233   5.072   2.079   8.406
15664WAT     H147234   5.131   2.155   8.431
15664WAT     H247235   5.009   2.060   8.482
15665WAT      O47236   4.456   9.391   7.461
15665WAT     H147237   4.373   9.353   7.503
15665WAT     H247238   4.537   9.355   7.507
15666WAT      O47239   8.342   4.760   2.428
15666WAT     H147240   8.275   4.832   2.410
15666WAT     H247241   8.428   4.801   2.460
15667WAT      O47242   1.354   1.848   3.892
15667WAT     H147243   1.307   1.805   3.815
15667WAT     H247244   1.407   1.926   3.858
15668WAT      O47245   2.286   7.992   9.459
15668WAT     H147246   2.340   7.959   9.381
15668WAT     H247247   2.188   7.987   9.436
15669WAT      O47248   0.874   6.775   5.168
15669WAT     H147249   0.857   6.735   5.078
15669WAT     H247250   0.811   6.851   5.184
15670WAT      O47251   9.879   9.430   4.644
15670WAT     H147252   9.976   9.428   4.670
15670WAT     H247253   9.864   9.506   4.580
15671WAT      O47254   8.867   4.944   2.855
15671WAT     H147255   8.912   4.883   2.920
15671WAT     H247256   8.936   4.990   2.799
15672WAT      O47257   1.301   0.967   6.003
15672WAT     H147258   1.298   0.904   6.081
15672WAT     H247259   1.396   0.978   5.974
15673WAT      O47260   0.143   2.036   5.885
15673WAT     H147261   0.064   2.035   5.824
15673WAT     H247262   0.227   2.024   5.833
15674WAT      O47263   0.412   3.924   6.167
15674WAT     H147264   0.378   3.964   6.082
15674WAT     H247265   0.343   3.862   6.205
15675WAT      O47266   6.518   8.394   8.690
15675WAT     H147267   6.427   8.377   8.652
15675WAT     H247268   6.513   8.471   8.754
15676WAT      O47269   9.260   1.807   3.064
15676WAT     H147270   9.295   1.883   3.010
15676WAT     H247271   9.336   1.763   3.112
15677WAT      O47272   5.080   5.410   7.717
15677WAT     H147273   5.143   5.486   7.707
15677WAT     H247274   5.131   5.324   7.718
15678WAT      O47275   6.683   9.245   2.593
15678WAT     H147276   6.632   9.179   2.538
15678WAT     H247277   6.693   9.211   2.686
15679WAT      O47278   3.749   6.759   8.029
15679WAT     H147279   3.796   6.742   8.116
15679WAT     H247280   3.810   6.809   7.968
15680WAT      O47281   8.812   7.455   4.603
15680WAT     H147282   8.746   7.500   4.663
15680WAT     H247283   8.781   7.362   4.584
15681WAT      O47284   1.134   2.237   8.130
15681WAT     H147285   1.156   2.141   8.118
15681WAT     H247286   1.080   2.249   8.213
15682WAT      O47287   7.026   0.724   1.124
15682WAT     H147288   7.108   0.674   1.099
15682WAT     H247289   6.972   0.744   1.043
15683WAT      O47290   4.299   5.919   3.589
15683WAT     H147291   4.374   5.980   3.613
15683WAT     H247292   4.298   5.905   3.490
15684WAT      O47293   1.864   5.633   5.238
15684WAT     H147294   1.891   5.541   5.265
15684WAT     H247295   1.765   5.638   5.230
15685WAT      O47296   1.282   5.504   0.958
15685WAT     H147297   1.209   5.444   0.991
15685WAT     H247298   1.286   5.585   1.016
15686WAT      O47299   5.564   0.865   2.256
15686WAT     H147300   5.478   0.844   2.208
15686WAT     H247301   5.567   0.814   2.341
15687WAT      O47302   8.225   4.182   0.549
15687WAT     H147303   8.217   4.092   0.507
15687WAT     H247304   8.309   4.226   0.518
15688WAT      O47305   8.445   7.234   8.656
15688WAT     H147306   8.538   7.260   8.629
15688WAT     H247307   8.383   7.248   8.579
15689WAT      O47308   8.461   6.231   9.054
15689WAT     H147309   8.524   6.275   9.118
15689WAT     H247310   8.413   6.301   9.000
15690WAT      O47311   5.888   9.189   6.507
15690WAT     H147312   5.985   9.206   6.486
15690WAT     H247313   5.840   9.164   6.423
15691WAT      O47314   9.156   5.341   6.809
15691WAT     H147315   9.063   5.354   6.774
15691WAT     H247316   9.160   5.257   6.863
15692WAT      O47317   2.294   4.268   8.455
15692WAT     H147318   2.375   4.276   8.397
15692WAT     H247319   2.234   4.197   8.417
15693WAT      O47320   1.296   2.411   1.656
15693WAT     H147321   1.226   2.481   1.649
15693WAT     H247322   1.294   2.371   1.748
15694WAT      O47323   2.928   8.916   7.340
15694WAT     H147324   2.878   8.852   7.281
15694WAT     H247325   2.897   9.009   7.323
15695WAT      O47326   4.037   7.028   0.397
15695WAT     H147327   3.944   7.006   0.366
15695WAT     H247328   4.062   6.968   0.473
15696WAT      O47329   2.353   2.986   2.185
15696WAT     H147330   2.282   2.928   2.144
15696WAT     H247331   2.404   2.933   2.253
15697WAT      O47332   2.042   7.961   9.739
15697WAT     H147333   2.123   7.971   9.797
15697WAT     H247334   2.038   8.037   9.674
15698WAT      O47335   5.222   5.705   5.236
15698WAT     H147336   5.282   5.684   5.160
15698WAT     H247337   5.240   5.641   5.311
15699WAT      O47338   7.322   8.606   3.822
15699WAT     H147339   7.325   8.617   3.922
15699WAT     H247340   7.388   8.668   3.780
15700WAT      O47341   6.253   6.242   6.354
15700WAT     H147342   6.168   6.195   6.377
15700WAT     H247343   6.257   6.258   6.256
15701WAT      O47344   4.123   3.049   0.728
15701WAT     H147345   4.101   2.952   0.725
15701WAT     H247346   4.085   3.090   0.811
15702WAT      O47347   1.788   5.990   6.430
15702WAT     H147348   1.747   6.014   6.342
15702WAT     H247349   1.779   5.892   6.446
15703WAT      O47350   8.934   3.535   5.925
15703WAT     H147351   8.874   3.506   6.000
15703WAT     H247352   8.964   3.455   5.873
15704WAT      O47353   0.674   1.638   2.881
15704WAT     H147354   0.661   1.622   2.979
15704WAT     H247355   0.618   1.575   2.829
15705WAT      O47356   8.561   4.358   2.387
15705WAT     H147357   8.599   4.450   2.386
15705WAT     H247358   8.610   4.302   2.454
15706WAT      O47359   5.281   5.781   3.144
15706WAT     H147360   5.275   5.834   3.059
15706WAT     H247361   5.333   5.833   3.212
15707WAT      O47362   1.557   0.391   6.437
15707WAT     H147363   1.526   0.296   6.436
15707WAT     H247364   1.615   0.406   6.517
15708WAT      O47365   4.488   6.429   8.828
15708WAT     H147366   4.416   6.495   8.847
15708WAT     H247367   4.575   6.477   8.814
15709WAT      O47368   6.683   8.973   0.178
15709WAT     H147369   6.661   8.901   0.112
15709WAT     H247370   6.598   9.010   0.215
15710WAT      O47371   6.198   2.806   0.768
15710WAT     H147372   6.297   2.815   0.781
15710WAT     H247373   6.179   2.723   0.715
15711WAT      O47374   4.990   0.758   4.340
15711WAT     H147375   4.912   0.699   4.361
15711WAT     H247376   5.069   0.701   4.316
15712WAT      O47377   8.017   2.923   3.847
15712WAT     H147378   7.921   2.934   3.820
15712WAT     H247379   8.027   2.838   3.900
15713WAT      O47380   2.086   3.912   0.344
15713WAT     H147381   2.113   3.836   0.284
15713WAT     H247382   2.034   3.979   0.291
15714WAT      O47383   4.455   7.725   2.342
15714WAT     H147384   4.369   7.777   2.338
15714WAT     H247385   4.492   7.729   2.435
15715WAT      O47386   5.140   9.008   7.233
15715WAT     H147387   5.124   9.017   7.134
15715WAT     H247388   5.083   9.074   7.282
15716WAT      O47389   4.660   8.254   6.517
15716WAT     H147390   4.610   8.167   6.509
15716WAT     H247391   4.609   8.326   6.469
15717WAT      O47392   6.282   6.266   8.891
15717WAT     H147393   6.313   6.321   8.969
15717WAT     H247394   6.188   6.235   8.908
15718WAT      O47395   2.076   5.012   8.715
15718WAT     H147396   2.118   5.010   8.806
15718WAT     H247397   1.984   5.050   8.722
15719WAT      O47398   2.994   5.563   2.207
15719WAT     H147399   3.008   5.519   2.118
15719WAT     H247400   3.082   5.592   2.244
15720WAT      O47401   4.242   0.727   8.875
15720WAT     H147402   4.326   0.684   8.906
15720WAT     H247403   4.173   0.656   8.859
15721WAT      O47404   3.566   3.413   5.990
15721WAT     H147405   3.662   3.385   5.979
15721WAT     H247406   3.522   3.416   5.901
15722WAT      O47407   8.621   5.841   8.107
15722WAT     H147408   8.526   5.865   8.130
15722WAT     H247409   8.649   5.762   8.162
15723WAT      O47410   2.997   9.654   4.259
15723WAT     H147411   2.900   9.675   4.251
15723WAT     H247412   3.012   9.588   4.333
15724WAT      O47413   3.356   8.993   1.350
15724WAT     H147414   3.312   8.904   1.340
15724WAT     H247415   3.286   9.063   1.368
15725WAT      O47416   9.204   5.720   7.340
15725WAT     H147417   9.219   5.634   7.292
15725WAT     H247418   9.276   5.734   7.408
15726WAT      O47419   0.618   2.667   7.031
15726WAT     H147420   0.697   2.723   7.006
15726WAT     H247421   0.571   2.709   7.109
15727WAT      O47422   8.154   2.515   9.322
15727WAT     H147423   8.183   2.423   9.348
15727WAT     H247424   8.111   2.560   9.401
15728WAT      O47425   8.569   8.126   1.089
15728WAT     H147426   8.657   8.156   1.053
15728WAT     H247427   8.513   8.091   1.015
15729WAT      O47428   2.331   1.731   3.946
15729WAT     H147429   2.233   1.732   3.966
15729WAT     H247430   2.358   1.819   3.908
15730WAT      O47431   9.853   6.049   8.928
15730WAT     H147432   9.756   6.054   8.950
15730WAT     H247433   9.888   5.959   8.954
15731WAT      O47434   9.554   5.503   2.195
15731WAT     H147435   9.528   5.515   2.099
15731WAT     H247436   9.483   5.449   2.242
15732WAT      O47437   3.650   7.142   5.883
15732WAT     H147438   3.700   7.094   5.956
15732WAT     H247439   3.641   7.238   5.907
15733WAT      O47440   6.318   1.973   6.244
15733WAT     H147441   6.343   1.991   6.149
15733WAT     H247442   6.383   1.907   6.283
15734WAT      O47443   6.834   9.476   8.817
15734WAT     H147444   6.776   9.545   8.861
15734WAT     H247445   6.789   9.387   8.821
15735WAT      O47446   1.342   1.866   7.018
15735WAT     H147447   1.343   1.920   6.934
15735WAT     H247448   1.267   1.897   7.077
15736WAT      O47449   9.127   4.783   2.033
15736WAT     H147450   9.158   4.788   1.938
15736WAT     H247451   9.117   4.688   2.060
15737WAT      O47452   6.189   0.285   8.661
15737WAT     H147453   6.285   0.310   8.647
15737WAT     H247454   6.182   0.186   8.673
15738WAT      O47455   3.319   0.503   4.544
15738WAT     H147456   3.284   0.410   4.538
15738WAT     H247457   3.392   0.506   4.613
15739WAT      O47458   3.382   5.143   4.245
15739WAT     H147459   3.403   5.047   4.264
15739WAT     H247460   3.429   5.171   4.162
15740WAT      O47461   0.384   0.807   4.174
15740WAT     H147462   0.374   0.905   4.188
15740WAT     H247463   0.371   0.759   4.260
15741WAT      O47464   0.245   0.419   1.101
15741WAT     H147465   0.146   0.423   1.083
15741WAT     H247466   0.291   0.489   1.046
15742WAT      O47467   6.226   5.697   6.209
15742WAT     H147468   6.289   5.689   6.131
15742WAT     H247469   6.255   5.773   6.267
15743WAT      O47470   6.894   8.117   7.326
15743WAT     H147471   6.817   8.094   7.386
15743WAT     H247472   6.893   8.057   7.246
15744WAT      O47473   6.403   6.276   6.572
15744WAT     H147474   6.348   6.273   6.489
15744WAT     H247475   6.496   6.306   6.550
15745WAT      O47476   3.874   7.465   3.059
15745WAT     H147477   3.840   7.533   3.124
15745WAT     H247478   3.841   7.374   3.083
15746WAT      O47479   0.952   3.311   6.084
15746WAT     H147480   1.039   3.305   6.132
15746WAT     H247481   0.879   3.336   6.148
15747WAT      O47482   3.287   4.205   0.763
15747WAT     H147483   3.363   4.237   0.820
15747WAT     H247484   3.200   4.226   0.809
15748WAT      O47485   4.084   2.823   5.596
15748WAT     H147486   4.073   2.788   5.503
15748WAT     H247487   4.021   2.899   5.610
15749WAT      O47488   1.928   7.309   9.620
15749WAT     H147489   2.010   7.252   9.624
15749WAT     H247490   1.940   7.381   9.553
15750WAT      O47491   4.703   3.662   4.424
15750WAT     H147492   4.642   3.592   4.460
15750WAT     H247493   4.776   3.679   4.490
15751WAT      O47494   8.107   9.501   5.471
15751WAT     H147495   8.161   9.524   5.390
15751WAT     H247496   8.062   9.584   5.506
15752WAT      O47497   7.319   8.226   6.254
15752WAT     H147498   7.240   8.237   6.194
15752WAT     H247499   7.382   8.302   6.240
15753WAT      O47500   0.318   1.193   5.300
15753WAT     H147501   0.260   1.274   5.289
15753WAT     H247502   0.345   1.159   5.209
15754WAT      O47503   2.583   7.635   9.100
15754WAT     H147504   2.548   7.615   9.192
15754WAT     H247505   2.513   7.683   9.047
15755WAT      O47506   3.655   9.436   1.494
15755WAT     H147507   3.582   9.458   1.559
15755WAT     H247508   3.620   9.371   1.426
15756WAT      O47509   0.832   3.443   4.538
15756WAT     H147510   0.822   3.375   4.611
15756WAT     H247511   0.797   3.406   4.452
15757WAT      O47512   6.090   0.861   6.889
15757WAT     H147513   6.071   0.940   6.831
15757WAT     H247514   6.187   0.860   6.913
15758WAT      O47515   2.981   3.542   9.575
15758WAT     H147516   2.992   3.636   9.606
15758WAT     H247517   2.883   3.519   9.572
15759WAT      O47518   9.816   6.688   1.411
15759WAT     H147519   9.733   6.737   1.437
15759WAT     H247520   9.884   6.754   1.379
15760WAT      O47521   4.707   0.309   5.750
15760WAT     H147522   4.758   0.241   5.802
15760WAT     H247523   4.707   0.396   5.799
15761WAT      O47524   1.177   6.743   9.848
15761WAT     H147525   1.191   6.730   9.750
15761WAT     H247526   1.225   6.671   9.898
15762WAT      O47527   3.205   7.391   2.163
15762WAT     H147528   3.216   7.374   2.261
15762WAT     H247529   3.132   7.458   2.149
15763WAT      O47530   5.776   1.856   0.878
15763WAT     H147531   5.852   1.796   0.853
15763WAT     H247532   5.690   1.804   0.876
15764WAT      O47533   9.663   3.226   7.773
15764WAT     H147534   9.603   3.269   7.705
15764WAT     H247535   9.645   3.127   7.775
15765WAT      O47536   8.821   6.934   6.248
15765WAT     H147537   8.880   6.968   6.321
15765WAT     H247538   8.754   7.004   6.224
15766WAT      O47539   8.559   4.474   2.757
15766WAT     H147540   8.604   4.397   2.711
15766WAT     H247541   8.628   4.530   2.803
15767WAT      O47542   1.458   3.955   0.702
15767WAT     H147543   1.504   4.044   0.696
15767WAT     H247544   1.438   3.935   0.798
15768WAT      O47545   0.718   9.567   1.498
15768WAT     H147546   0.674   9.580   1.587
15768WAT     H247547   0.778   9.644   1.478
15769WAT      O47548   6.381   0.714   3.801
15769WAT     H147549   6.298   0.661   3.785
15769WAT     H247550   6.364   0.811   3.780
15770WAT      O47551   8.685   0.355   3.070
15770WAT     H147552   8.703   0.449   3.044
15770WAT     H247553   8.766   0.299   3.050
15771WAT      O47554   1.565   3.015   0.069
15771WAT     H147555   1.556   3.048  -0.025
15771WAT     H247556   1.475   2.994   0.105
15772WAT      O47557   7.418   3.800   0.501
15772WAT     H147558   7.464   3.863   0.439
15772WAT     H247559   7.476   3.720   0.517
15773WAT      O47560   6.160   4.740   6.619
15773WAT     H147561   6.214   4.824   6.611
15773WAT     H247562   6.092   4.751   6.692
15774WAT      O47563   2.052   5.724   4.429
15774WAT     H147564   2.009   5.751   4.515
15774WAT     H247565   2.152   5.730   4.438
15775WAT      O47566   1.156   4.006   1.335
15775WAT     H147567   1.220   4.005   1.412
15775WAT     H247568   1.177   3.932   1.272
15776WAT      O47569   5.213   3.476   3.907
15776WAT     H147570   5.289   3.480   3.972
15776WAT     H247571   5.203   3.564   3.862
15777WAT      O47572   3.884   6.152   4.817
15777WAT     H147573   3.952   6.089   4.855
15777WAT     H247574   3.808   6.162   4.881
15778WAT      O47575   1.110   5.497   2.262
15778WAT     H147576   1.026   5.551   2.266
15778WAT     H247577   1.097   5.419   2.201
15779WAT      O47578   3.982   0.036   0.626
15779WAT     H147579   3.918  -0.030   0.665
15779WAT     H247580   4.071   0.027   0.670
15780WAT      O47581   4.578   3.962   5.578
15780WAT     H147582   4.641   3.933   5.649
15780WAT     H247583   4.629   3.999   5.500
15781WAT      O47584   5.792   4.271   7.601
15781WAT     H147585   5.814   4.178   7.571
15781WAT     H247586   5.693   4.278   7.616
15782WAT      O47587   7.527   2.935   0.356
15782WAT     H147588   7.542   2.881   0.439
15782WAT     H247589   7.546   3.031   0.375
15783WAT      O47590   8.112   3.072   0.453
15783WAT     H147591   8.112   3.071   0.553
15783WAT     H247592   8.194   3.121   0.420
15784WAT      O47593   0.786   8.057   9.150
15784WAT     H147594   0.784   8.112   9.234
15784WAT     H247595   0.878   8.019   9.138
15785WAT      O47596   5.120   4.142   3.274
15785WAT     H147597   5.131   4.044   3.258
15785WAT     H247598   5.066   4.156   3.357
15786WAT      O47599   6.053   1.042   2.769
15786WAT     H147600   6.061   1.021   2.867
15786WAT     H247601   5.958   1.025   2.740
15787WAT      O47602   1.077   6.530   4.322
15787WAT     H147603   1.031   6.542   4.410
15787WAT     H247604   1.053   6.606   4.262
15788WAT      O47605   1.149   9.841   3.345
15788WAT     H147606   1.084   9.770   3.320
15788WAT     H247607   1.100   9.922   3.376
15789WAT      O47608   3.930   4.209   0.740
15789WAT     H147609   3.995   4.285   0.737
15789WAT     H247610   3.836   4.245   0.736
15790WAT      O47611   5.206   2.720   4.703
15790WAT     H147612   5.196   2.667   4.787
15790WAT     H247613   5.293   2.770   4.706
15791WAT      O47614   7.990   2.913   5.812
15791WAT     H147615   8.002   3.006   5.777
15791WAT     H247616   7.971   2.916   5.910
15792WAT      O47617   4.641   0.973   5.837
15792WAT     H147618   4.581   0.904   5.796
15792WAT     H247619   4.604   0.999   5.926
15793WAT      O47620   6.426   7.200   3.796
15793WAT     H147621   6.373   7.181   3.713
15793WAT     H247622   6.447   7.113   3.842
15794WAT      O47623   8.311   7.770   1.264
15794WAT     H147624   8.232   7.815   1.225
15794WAT     H247625   8.378   7.839   1.294
15795WAT      O47626   1.023   4.965   4.273
15795WAT     H147627   1.077   4.979   4.190
15795WAT     H247628   1.033   4.869   4.303
15796WAT      O47629   0.656   6.872   4.246
15796WAT     H147630   0.591   6.945   4.222
15796WAT     H247631   0.748   6.911   4.255
15797WAT      O47632   8.521   3.216   4.001
15797WAT     H147633   8.527   3.271   4.084
15797WAT     H247634   8.427   3.186   3.989
15798WAT      O47635   8.267   8.717   9.633
15798WAT     H147636   8.291   8.750   9.542
15798WAT     H247637   8.315   8.771   9.702
15799WAT      O47638   2.557   3.722   8.758
15799WAT     H147639   2.643   3.687   8.722
15799WAT     H247640   2.570   3.816   8.791
15800WAT      O47641   3.833   1.691   1.966
15800WAT     H147642   3.830   1.717   1.870
15800WAT     H247643   3.878   1.602   1.976
15801WAT      O47644   4.085   2.196   2.705
15801WAT     H147645   4.040   2.245   2.630
15801WAT     H247646   4.145   2.259   2.754
15802WAT      O47647   8.745   1.702   6.939
15802WAT     H147648   8.685   1.744   7.007
15802WAT     H247649   8.690   1.661   6.866
15803WAT      O47650   1.684   6.069   7.272
15803WAT     H147651   1.748   6.100   7.202
15803WAT     H247652   1.619   6.143   7.291
15804WAT      O47653   2.341   9.013   5.092
15804WAT     H147654   2.339   8.913   5.083
15804WAT     H247655   2.392   9.038   5.174
15805WAT      O47656   1.726   7.882   9.466
15805WAT     H147657   1.677   7.966   9.440
15805WAT     H247658   1.760   7.892   9.559
15806WAT      O47659   7.010   7.896   8.154
15806WAT     H147660   7.028   7.798   8.148
15806WAT     H247661   7.068   7.945   8.089
15807WAT      O47662   3.363   5.149   2.437
15807WAT     H147663   3.444   5.205   2.421
15807WAT     H247664   3.389   5.053   2.442
15808WAT      O47665   6.001   7.509   1.054
15808WAT     H147666   6.001   7.595   1.004
15808WAT     H247667   5.910   7.494   1.095
15809WAT      O47668   7.949   6.199   9.722
15809WAT     H147669   7.992   6.205   9.632
15809WAT     H247670   7.885   6.275   9.734
15810WAT      O47671   6.869   6.613   6.959
15810WAT     H147672   6.783   6.662   6.971
15810WAT     H247673   6.900   6.577   7.047
15811WAT      O47674   6.897   8.121   5.975
15811WAT     H147675   6.886   8.188   5.902
15811WAT     H247676   6.933   8.036   5.938
15812WAT      O47677   1.515   5.914   2.693
15812WAT     H147678   1.556   5.974   2.761
15812WAT     H247679   1.536   5.819   2.716
15813WAT      O47680   7.950   3.376   2.408
15813WAT     H147681   8.034   3.350   2.361
15813WAT     H247682   7.872   3.359   2.349
15814WAT      O47683   2.558   4.296   8.403
15814WAT     H147684   2.644   4.274   8.357
15814WAT     H247685   2.554   4.249   8.491
15815WAT      O47686   0.106   6.137   1.717
15815WAT     H147687   0.089   6.210   1.784
15815WAT     H247688   0.097   6.048   1.762
15816WAT      O47689   7.290   1.385   9.598
15816WAT     H147690   7.344   1.425   9.672
15816WAT     H247691   7.192   1.394   9.619
15817WAT      O47692   2.588   5.628   8.919
15817WAT     H147693   2.673   5.579   8.936
15817WAT     H247694   2.551   5.661   9.005
15818WAT      O47695   1.519   4.850   9.187
15818WAT     H147696   1.430   4.894   9.181
15818WAT     H247697   1.590   4.913   9.155
15819WAT      O47698   9.292   4.723   4.334
15819WAT     H147699   9.234   4.743   4.255
15819WAT     H247700   9.363   4.657   4.308
15820WAT      O47701   3.731   4.675   4.910
15820WAT     H147702   3.660   4.612   4.940
15820WAT     H247703   3.749   4.662   4.813
15821WAT      O47704   5.857   5.117   0.593
15821WAT     H147705   5.758   5.108   0.582
15821WAT     H247706   5.899   5.026   0.596
15822WAT      O47707   1.938   0.900   7.652
15822WAT     H147708   1.907   0.893   7.557
15822WAT     H247709   1.871   0.858   7.713
15823WAT      O47710   0.746   7.475   9.388
15823WAT     H147711   0.664   7.476   9.444
15823WAT     H247712   0.740   7.547   9.318
15824WAT      O47713   4.847   4.845   2.858
15824WAT     H147714   4.828   4.756   2.816
15824WAT     H247715   4.767   4.905   2.846
15825WAT      O47716   5.988   0.573   9.235
15825WAT     H147717   5.989   0.673   9.238
15825WAT     H247718   6.082   0.538   9.235
15826WAT      O47719   4.371   8.376   2.532
15826WAT     H147720   4.420   8.400   2.615
15826WAT     H247721   4.299   8.445   2.515
15827WAT      O47722   7.875   2.280   4.601
15827WAT     H147723   7.877   2.230   4.515
15827WAT     H247724   7.780   2.297   4.627
15828WAT      O47725   2.261   7.281   3.998
15828WAT     H147726   2.325   7.240   3.933
15828WAT     H247727   2.298   7.368   4.031
15829WAT      O47728   2.708   4.304   3.776
15829WAT     H147729   2.665   4.264   3.857
15829WAT     H247730   2.645   4.299   3.698
15830WAT      O47731   8.517   1.532   1.129
15830WAT     H147732   8.609   1.496   1.121
15830WAT     H247733   8.460   1.495   1.056
15831WAT      O47734   5.644   4.192   2.534
15831WAT     H147735   5.551   4.225   2.515
15831WAT     H247736   5.662   4.110   2.478
15832WAT      O47737   2.067   2.724   0.590
15832WAT     H147738   2.060   2.699   0.494
15832WAT     H247739   2.005   2.800   0.610
15833WAT      O47740   9.833   2.832   5.217
15833WAT     H147741   9.810   2.929   5.228
15833WAT     H247742   9.905   2.808   5.282
15834WAT      O47743   7.025   5.864   7.330
15834WAT     H147744   6.955   5.910   7.275
15834WAT     H247745   7.030   5.768   7.303
15835WAT      O47746   1.260   8.421   1.200
15835WAT     H147747   1.257   8.434   1.100
15835WAT     H247748   1.352   8.392   1.227
15836WAT      O47749   2.219   8.789   2.823
15836WAT     H147750   2.142   8.793   2.886
15836WAT     H247751   2.191   8.822   2.733
15837WAT      O47752   2.900   9.506   3.114
15837WAT     H147753   2.915   9.599   3.146
15837WAT     H247754   2.819   9.468   3.159
15838WAT      O47755   5.045   2.593   0.122
15838WAT     H147756   5.064   2.639   0.208
15838WAT     H247757   5.001   2.505   0.140
15839WAT      O47758   3.282   5.388   1.485
15839WAT     H147759   3.357   5.447   1.456
15839WAT     H247760   3.199   5.443   1.496
15840WAT      O47761   4.258   1.059   1.049
15840WAT     H147762   4.270   1.134   1.114
15840WAT     H247763   4.283   0.972   1.093
15841WAT      O47764   9.410   3.191   7.122
15841WAT     H147765   9.341   3.190   7.050
15841WAT     H247766   9.451   3.282   7.126
15842WAT      O47767   0.692   5.661   7.267
15842WAT     H147768   0.774   5.678   7.322
15842WAT     H247769   0.611   5.692   7.318
15843WAT      O47770   7.728   5.535   2.417
15843WAT     H147771   7.675   5.526   2.501
15843WAT     H247772   7.805   5.471   2.419
15844WAT      O47773   4.728   0.085   9.234
15844WAT     H147774   4.759   0.129   9.150
15844WAT     H247775   4.764   0.134   9.314
15845WAT      O47776   9.786   2.437   5.997
15845WAT     H147777   9.856   2.369   6.020
15845WAT     H247778   9.800   2.470   5.904
15846WAT      O47779   2.293   5.816   3.025
15846WAT     H147780   2.344   5.740   2.985
15846WAT     H247781   2.251   5.786   3.111
15847WAT      O47782   4.194   1.614   1.362
15847WAT     H147783   4.284   1.585   1.396
15847WAT     H247784   4.134   1.535   1.353
15848WAT      O47785   1.047   3.608   9.049
15848WAT     H147786   1.044   3.671   8.971
15848WAT     H247787   1.138   3.565   9.053
15849WAT      O47788   6.391   7.196   7.525
15849WAT     H147789   6.299   7.234   7.541
15849WAT     H247790   6.402   7.177   7.427
15850WAT      O47791   5.662   6.917   8.437
15850WAT     H147792   5.749   6.936   8.391
15850WAT     H247793   5.680   6.887   8.531
15851WAT      O47794   8.494   0.873   3.739
15851WAT     H147795   8.420   0.812   3.711
15851WAT     H247796   8.473   0.913   3.828
15852WAT      O47797   3.030   5.637   9.747
15852WAT     H147798   3.098   5.592   9.806
15852WAT     H247799   3.075   5.669   9.664
15853WAT      O47800   4.100   2.699   6.838
15853WAT     H147801   4.189   2.698   6.792
15853WAT     H247802   4.082   2.791   6.873
15854WAT      O47803   5.406   9.623   8.898
15854WAT     H147804   5.394   9.697   8.833
15854WAT     H247805   5.334   9.555   8.885
15855WAT      O47806   0.359   9.506   8.458
15855WAT     H147807   0.272   9.517   8.410
15855WAT     H247808   0.359   9.419   8.507
15856WAT      O47809   6.581   8.932   4.688
15856WAT     H147810   6.485   8.918   4.712
15856WAT     H247811   6.588   8.960   4.592
15857WAT      O47812   1.945   5.666   8.952
15857WAT     H147813   2.004   5.742   8.927
15857WAT     H247814   1.884   5.693   9.027
15858WAT      O47815   1.137   1.289   1.813
15858WAT     H147816   1.140   1.302   1.714
15858WAT     H247817   1.221   1.244   1.843
15859WAT      O47818   0.382   2.000   3.809
15859WAT     H147819   0.423   2.083   3.772
15859WAT     H247820   0.354   2.016   3.903
15860WAT      O47821   3.136   8.089   1.671
15860WAT     H147822   3.189   8.035   1.605
15860WAT     H247823   3.050   8.042   1.690
15861WAT      O47824   6.977   5.774   5.768
15861WAT     H147825   6.895   5.720   5.746
15861WAT     H247826   6.980   5.790   5.866
15862WAT      O47827   9.338   4.433   5.762
15862WAT     H147828   9.378   4.496   5.829
15862WAT     H247829   9.254   4.472   5.726
15863WAT      O47830   4.881   6.300   4.648
15863WAT     H147831   4.965   6.311   4.595
15863WAT     H247832   4.845   6.208   4.636
15864WAT      O47833   6.124   9.394   3.016
15864WAT     H147834   6.158   9.304   2.987
15864WAT     H247835   6.202   9.451   3.044
15865WAT      O47836   9.110   2.739   1.295
15865WAT     H147837   9.108   2.838   1.279
15865WAT     H247838   9.023   2.699   1.266
15866WAT      O47839   5.844   8.465   7.557
15866WAT     H147840   5.773   8.395   7.560
15866WAT     H247841   5.932   8.422   7.537
15867WAT      O47842   4.286   8.360   1.070
15867WAT     H147843   4.231   8.319   0.997
15867WAT     H247844   4.242   8.444   1.102
15868WAT      O47845   1.819   8.588   3.095
15868WAT     H147846   1.878   8.665   3.121
15868WAT     H247847   1.833   8.567   2.998
15869WAT      O47848   1.559   0.398   1.251
15869WAT     H147849   1.629   0.328   1.259
15869WAT     H247850   1.602   0.488   1.250
15870WAT      O47851   2.593   0.867   8.061
15870WAT     H147852   2.623   0.817   8.142
15870WAT     H247853   2.643   0.834   7.981
15871WAT      O47854   4.816   7.293   9.454
15871WAT     H147855   4.736   7.334   9.411
15871WAT     H247856   4.898   7.343   9.427
15872WAT      O47857   9.138   2.585   6.127
15872WAT     H147858   9.090   2.646   6.189
15872WAT     H247859   9.071   2.526   6.081
15873WAT      O47860   4.746   7.096   8.002
15873WAT     H147861   4.667   7.080   8.060
15873WAT     H247862   4.727   7.065   7.909
15874WAT      O47863   3.894   4.058   6.783
15874WAT     H147864   3.897   4.100   6.873
15874WAT     H247865   3.985   4.027   6.757
15875WAT      O47866   7.949   4.662   5.279
15875WAT     H147867   7.941   4.756   5.311
15875WAT     H247868   7.864   4.634   5.234
15876WAT      O47869   2.811   7.286   6.987
15876WAT     H147870   2.741   7.217   7.004
15876WAT     H247871   2.873   7.291   7.065
15877WAT      O47872   5.641   9.722   7.246
15877WAT     H147873   5.654   9.628   7.215
15877WAT     H247874   5.717   9.748   7.306
15878WAT      O47875   1.357   3.452   9.833
15878WAT     H147876   1.421   3.377   9.850
15878WAT     H247877   1.267   3.429   9.871
15879WAT      O47878   9.719   9.025   4.693
15879WAT     H147879   9.735   8.928   4.679
15879WAT     H247880   9.746   9.075   4.611
15880WAT      O47881   8.029   9.257   5.461
15880WAT     H147882   7.930   9.271   5.466
15880WAT     H247883   8.075   9.343   5.482
15881WAT      O47884   1.081   9.682   8.741
15881WAT     H147885   1.047   9.633   8.822
15881WAT     H247886   1.086   9.619   8.664
15882WAT      O47887   9.778   1.228   8.942
15882WAT     H147888   9.812   1.162   8.875
15882WAT     H247889   9.736   1.305   8.894
15883WAT      O47890   9.536   2.107   8.487
15883WAT     H147891   9.512   2.045   8.412
15883WAT     H247892   9.607   2.065   8.543
15884WAT      O47893   1.824   5.310   3.437
15884WAT     H147894   1.831   5.380   3.367
15884WAT     H247895   1.842   5.220   3.397
15885WAT      O47896   3.563   2.693   7.283
15885WAT     H147897   3.554   2.606   7.333
15885WAT     H247898   3.540   2.678   7.187
15886WAT      O47899   4.207   5.170   0.070
15886WAT     H147900   4.127   5.111   0.068
15886WAT     H247901   4.247   5.170   0.162
15887WAT      O47902   2.687   9.829   3.058
15887WAT     H147903   2.751   9.843   2.982
15887WAT     H247904   2.726   9.868   3.142
15888WAT      O47905   9.776   4.797   0.365
15888WAT     H147906   9.733   4.708   0.378
15888WAT     H247907   9.864   4.785   0.319
15889WAT      O47908   6.026   8.234   6.225
15889WAT     H147909   6.099   8.189   6.173
15889WAT     H247910   5.937   8.202   6.193
15890WAT      O47911   9.503   5.590   0.687
15890WAT     H147912   9.544   5.624   0.772
15890WAT     H247913   9.476   5.667   0.630
15891WAT      O47914   1.831   8.005   8.117
15891WAT     H147915   1.910   8.060   8.089
15891WAT     H247916   1.797   7.954   8.039
15892WAT      O47917   0.968   3.422   6.480
15892WAT     H147918   0.918   3.492   6.531
15892WAT     H247919   0.996   3.349   6.544
15893WAT      O47920   1.961   9.620   7.448
15893WAT     H147921   1.944   9.717   7.464
15893WAT     H247922   1.912   9.590   7.366
15894WAT      O47923   1.990   3.906   0.893
15894WAT     H147924   1.892   3.925   0.886
15894WAT     H247925   2.008   3.860   0.981
15895WAT      O47926   7.201   0.497   9.475
15895WAT     H147927   7.238   0.505   9.568
15895WAT     H247928   7.102   0.508   9.478
15896WAT      O47929   4.674   6.054   1.169
15896WAT     H147930   4.749   6.040   1.234
15896WAT     H247931   4.711   6.060   1.077
15897WAT      O47932   9.136   1.595   4.234
15897WAT     H147933   9.114   1.629   4.326
15897WAT     H247934   9.194   1.514   4.242
15898WAT      O47935   3.245   1.520   4.716
15898WAT     H147936   3.274   1.460   4.791
15898WAT     H247937   3.208   1.465   4.642
15899WAT      O47938   8.256   4.337   6.953
15899WAT     H147939   8.295   4.245   6.962
15899WAT     H247940   8.283   4.392   7.033
15900WAT      O47941   3.813   1.677   1.054
15900WAT     H147942   3.724   1.639   1.079
15900WAT     H247943   3.802   1.773   1.028
15901WAT      O47944   1.846   5.780   2.740
15901WAT     H147945   1.914   5.708   2.753
15901WAT     H247946   1.831   5.795   2.642
15902WAT      O47947   5.935   6.118   3.695
15902WAT     H147948   5.928   6.020   3.716
15902WAT     H247949   5.862   6.143   3.631
15903WAT      O47950   5.482   0.089   7.552
15903WAT     H147951   5.562   0.110   7.495
15903WAT     H247952   5.448   0.174   7.593
15904WAT      O47953   6.404   5.307   9.178
15904WAT     H147954   6.384   5.383   9.241
15904WAT     H247955   6.463   5.339   9.104
15905WAT      O47956   0.697   4.835   2.095
15905WAT     H147957   0.788   4.838   2.137
15905WAT     H247958   0.636   4.896   2.146
15906WAT      O47959   1.699   8.246   6.852
15906WAT     H147960   1.671   8.214   6.762
15906WAT     H247961   1.775   8.190   6.885
15907WAT      O47962   6.565   0.671   8.743
15907WAT     H147963   6.569   0.771   8.735
15907WAT     H247964   6.646   0.638   8.791
15908WAT      O47965   8.800   6.050   4.089
15908WAT     H147966   8.799   5.971   4.150
15908WAT     H247967   8.876   6.111   4.115
15909WAT      O47968   0.323   4.329   0.040
15909WAT     H147969   0.264   4.394  -0.007
15909WAT     H247970   0.289   4.236   0.025
15910WAT      O47971   3.753   6.298   2.048
15910WAT     H147972   3.657   6.326   2.039
15910WAT     H247973   3.799   6.307   1.960
15911WAT      O47974   5.713   2.223   0.893
15911WAT     H147975   5.792   2.265   0.938
15911WAT     H247976   5.669   2.159   0.955
15912WAT      O47977   9.229   0.918   6.719
15912WAT     H147978   9.312   0.904   6.774
15912WAT     H247979   9.237   0.867   6.634
15913WAT      O47980   0.586   0.174   5.788
15913WAT     H147981   0.568   0.077   5.769
15913WAT     H247982   0.512   0.230   5.750
15914WAT      O47983   1.260   9.307   5.761
15914WAT     H147984   1.238   9.249   5.839
15914WAT     H247985   1.245   9.256   5.676
15915WAT      O47986   2.281   8.158   6.290
15915WAT     H147987   2.350   8.229   6.276
15915WAT     H247988   2.276   8.134   6.387
15916WAT      O47989   8.796   9.807   9.462
15916WAT     H147990   8.856   9.749   9.407
15916WAT     H247991   8.704   9.807   9.423
15917WAT      O47992   7.364   5.425   3.384
15917WAT     H147993   7.333   5.397   3.475
15917WAT     H247994   7.372   5.525   3.382
15918WAT      O47995   5.294   1.177   2.792
15918WAT     H147996   5.276   1.140   2.883
15918WAT     H247997   5.243   1.125   2.724
15919WAT      O47998   2.536   5.088   3.556
15919WAT     H147999   2.491   5.136   3.631
15919WAT     H248000   2.598   5.151   3.508
15920WAT      O48001   3.576   4.310   1.756
15920WAT     H148002   3.661   4.313   1.704
15920WAT     H248003   3.584   4.241   1.829
15921WAT      O48004   7.568   4.941   6.574
15921WAT     H148005   7.491   4.889   6.609
15921WAT     H248006   7.653   4.890   6.591
15922WAT      O48007   9.022   4.365   9.608
15922WAT     H148008   8.928   4.402   9.605
15922WAT     H248009   9.054   4.348   9.515
15923WAT      O48010   5.596   7.881   9.360
15923WAT     H148011   5.613   7.971   9.320
15923WAT     H248012   5.593   7.889   9.460
15924WAT      O48013   4.146   7.432   6.716
15924WAT     H148014   4.171   7.478   6.631
15924WAT     H248015   4.176   7.337   6.713
15925WAT      O48016   5.307   7.097   7.727
15925WAT     H148017   5.321   7.026   7.797
15925WAT     H248018   5.395   7.119   7.684
15926WAT      O48019   7.373   0.215   1.472
15926WAT     H148020   7.328   0.301   1.497
15926WAT     H248021   7.416   0.225   1.383
15927WAT      O48022   9.837   7.542   3.929
15927WAT     H148023   9.882   7.601   3.861
15927WAT     H248024   9.819   7.595   4.012
15928WAT      O48025   1.763   5.735   9.136
15928WAT     H148026   1.705   5.660   9.168
15928WAT     H248027   1.709   5.797   9.079
15929WAT      O48028   6.867   6.777   6.512
15929WAT     H148029   6.790   6.765   6.575
15929WAT     H248030   6.863   6.868   6.470
15930WAT      O48031   1.401   9.439   7.165
15930WAT     H148032   1.351   9.413   7.082
15930WAT     H248033   1.488   9.389   7.169
15931WAT      O48034   3.837   5.246   2.882
15931WAT     H148035   3.906   5.248   2.810
15931WAT     H248036   3.865   5.307   2.956
15932WAT      O48037   4.070   9.563   8.762
15932WAT     H148038   4.160   9.579   8.803
15932WAT     H248039   3.999   9.589   8.828
15933WAT      O48040   9.571   8.805   9.796
15933WAT     H148041   9.638   8.735   9.773
15933WAT     H248042   9.490   8.794   9.738
15934WAT      O48043   3.080   3.201   0.538
15934WAT     H148044   3.068   3.137   0.462
15934WAT     H248045   2.991   3.240   0.563
15935WAT      O48046   7.499   4.206   8.720
15935WAT     H148047   7.400   4.217   8.717
15935WAT     H248048   7.537   4.214   8.628
15936WAT      O48049   2.496   0.655   7.193
15936WAT     H148050   2.586   0.611   7.197
15936WAT     H248051   2.447   0.621   7.113
15937WAT      O48052   6.872   7.209   4.669
15937WAT     H148053   6.956   7.230   4.720
15937WAT     H248054   6.844   7.291   4.619
15938WAT      O48055   8.162   6.479   2.738
15938WAT     H148056   8.205   6.567   2.719
15938WAT     H248057   8.062   6.491   2.741
15939WAT      O48058   8.292   7.167   2.726
15939WAT     H148059   8.253   7.238   2.668
15939WAT     H248060   8.340   7.100   2.668
15940WAT      O48061   9.393   5.687   3.161
15940WAT     H148062   9.450   5.625   3.107
15940WAT     H248063   9.452   5.748   3.214
15941WAT      O48064   4.139   8.074   3.074
15941WAT     H148065   4.188   7.987   3.074
15941WAT     H248066   4.093   8.086   3.161
15942WAT      O48067   3.473   1.316   1.709
15942WAT     H148068   3.484   1.329   1.610
15942WAT     H248069   3.376   1.325   1.734
15943WAT      O48070   5.107   8.728   7.184
15943WAT     H148071   5.101   8.668   7.264
15943WAT     H248072   5.135   8.820   7.214
15944WAT      O48073   3.530   9.552   2.549
15944WAT     H148074   3.608   9.615   2.554
15944WAT     H248075   3.562   9.462   2.518
15945WAT      O48076   1.298   4.632   1.749
15945WAT     H148077   1.257   4.593   1.831
15945WAT     H248078   1.352   4.563   1.702
15946WAT      O48079   7.913   3.781   5.041
15946WAT     H148080   7.855   3.861   5.057
15946WAT     H248081   7.975   3.769   5.118
15947WAT      O48082   4.798   2.263   4.225
15947WAT     H148083   4.842   2.197   4.164
15947WAT     H248084   4.855   2.277   4.306
15948WAT      O48085   8.387   8.642   4.068
15948WAT     H148086   8.420   8.553   4.098
15948WAT     H248087   8.466   8.702   4.050
15949WAT      O48088   1.052   6.644   1.902
15949WAT     H148089   0.999   6.720   1.863
15949WAT     H248090   0.995   6.561   1.903
15950WAT      O48091   6.500   6.918   6.598
15950WAT     H148092   6.551   7.001   6.620
15950WAT     H248093   6.406   6.942   6.572
15951WAT      O48094   2.654   0.202   9.676
15951WAT     H148095   2.740   0.163   9.643
15951WAT     H248096   2.627   0.156   9.761
15952WAT      O48097   8.680   9.067   0.579
15952WAT     H148098   8.741   9.008   0.631
15952WAT     H248099   8.677   9.036   0.484
15953WAT      O48100   0.383   4.330   3.438
15953WAT     H148101   0.341   4.412   3.399
15953WAT     H248102   0.448   4.291   3.373
15954WAT      O48103   8.109   3.075   1.073
15954WAT     H148104   8.188   3.118   1.118
15954WAT     H248105   8.133   2.983   1.044
15955WAT      O48106   3.783   7.710   9.583
15955WAT     H148107   3.812   7.636   9.522
15955WAT     H248108   3.743   7.672   9.666
15956WAT      O48109   3.553   1.081   3.239
15956WAT     H148110   3.600   1.109   3.323
15956WAT     H248111   3.617   1.032   3.180
15957WAT      O48112   3.446   2.003   5.425
15957WAT     H148113   3.444   1.974   5.329
15957WAT     H248114   3.520   1.955   5.473
15958WAT      O48115   1.321   9.063   9.329
15958WAT     H148116   1.394   9.023   9.274
15958WAT     H248117   1.267   9.126   9.273
15959WAT      O48118   7.945   4.961   7.367
15959WAT     H148119   8.022   4.901   7.345
15959WAT     H248120   7.897   4.926   7.447
15960WAT      O48121   9.148   7.562   6.687
15960WAT     H148122   9.247   7.565   6.669
15960WAT     H248123   9.099   7.551   6.600
15961WAT      O48124   0.115   0.296   2.885
15961WAT     H148125   0.174   0.318   2.808
15961WAT     H248126   0.161   0.231   2.945
15962WAT      O48127   3.672   4.747   3.682
15962WAT     H148128   3.704   4.769   3.590
15962WAT     H248129   3.747   4.708   3.735
15963WAT      O48130   0.339   4.672   7.319
15963WAT     H148131   0.316   4.769   7.321
15963WAT     H248132   0.313   4.633   7.231
15964WAT      O48133   5.248   5.261   0.553
15964WAT     H148134   5.290   5.171   0.559
15964WAT     H248135   5.219   5.291   0.644
15965WAT      O48136   3.766   6.145   3.721
15965WAT     H148137   3.800   6.070   3.776
15965WAT     H248138   3.673   6.169   3.751
15966WAT      O48139   6.593   2.631   4.888
15966WAT     H148140   6.548   2.653   4.801
15966WAT     H248141   6.524   2.621   4.960
15967WAT      O48142   5.345   9.775   0.892
15967WAT     H148143   5.362   9.696   0.832
15967WAT     H248144   5.293   9.844   0.841
15968WAT      O48145   0.842   6.190   7.058
15968WAT     H148146   0.887   6.139   6.985
15968WAT     H248147   0.890   6.276   7.074
15969WAT      O48148   1.291   2.836   1.489
15969WAT     H148149   1.351   2.770   1.534
15969WAT     H248150   1.211   2.853   1.546
15970WAT      O48151   4.327   1.669   4.654
15970WAT     H148152   4.426   1.651   4.657
15970WAT     H248153   4.278   1.591   4.693
15971WAT      O48154   1.091   2.672   3.725
15971WAT     H148155   1.100   2.741   3.797
15971WAT     H248156   1.141   2.590   3.750
15972WAT      O48157   0.955   5.716   7.893
15972WAT     H148158   0.925   5.658   7.969
15972WAT     H248159   0.984   5.805   7.928
15973WAT      O48160   0.078   1.185   7.196
15973WAT     H148161   0.058   1.091   7.168
15973WAT     H248162   0.168   1.212   7.161
15974WAT      O48163   9.571   8.784   0.657
15974WAT     H148164   9.634   8.716   0.693
15974WAT     H248165   9.576   8.784   0.557
15975WAT      O48166   1.582   0.224   0.060
15975WAT     H148167   1.489   0.218   0.094
15975WAT     H248168   1.581   0.228  -0.040
15976WAT      O48169   4.614   6.244   2.915
15976WAT     H148170   4.544   6.307   2.948
15976WAT     H248171   4.705   6.281   2.934
15977WAT      O48172   3.333   9.071   4.922
15977WAT     H148173   3.302   9.066   4.827
15977WAT     H248174   3.256   9.099   4.980
15978WAT      O48175   5.878   4.598   5.390
15978WAT     H148176   5.933   4.593   5.474
15978WAT     H248177   5.809   4.526   5.391
15979WAT      O48178   8.718   5.974   8.754
15979WAT     H148179   8.693   5.916   8.676
15979WAT     H248180   8.779   6.047   8.722
15980WAT      O48181   2.259   4.353   2.709
15980WAT     H148182   2.352   4.353   2.746
15980WAT     H248183   2.258   4.301   2.624
15981WAT      O48184   2.035   9.806   5.269
15981WAT     H148185   2.038   9.835   5.365
15981WAT     H248186   1.965   9.735   5.258
15982WAT      O48187   1.583   9.702   4.348
15982WAT     H148188   1.608   9.791   4.385
15982WAT     H248189   1.666   9.648   4.334
15983WAT      O48190   9.803   7.224   1.070
15983WAT     H148191   9.769   7.131   1.081
15983WAT     H248192   9.853   7.233   0.984
15984WAT      O48193   2.674   8.442   1.759
15984WAT     H148194   2.585   8.452   1.716
15984WAT     H248195   2.727   8.372   1.711
15985WAT      O48196   2.205   6.453   3.942
15985WAT     H148197   2.248   6.424   3.856
15985WAT     H248198   2.256   6.417   4.019
15986WAT      O48199   0.066   6.518   6.815
15986WAT     H148200   0.032   6.609   6.838
15986WAT     H248201   0.103   6.519   6.722
15987WAT      O48202   0.587   1.171   0.750
15987WAT     H148203   0.501   1.171   0.699
15987WAT     H248204   0.659   1.212   0.694
15988WAT      O48205   7.273   8.671   6.377
15988WAT     H148206   7.228   8.633   6.296
15988WAT     H248207   7.349   8.612   6.403
15989WAT      O48208   4.937   2.865   7.539
15989WAT     H148209   4.842   2.841   7.518
15989WAT     H248210   4.942   2.903   7.632
15990WAT      O48211   2.594   2.965   2.734
15990WAT     H148212   2.651   2.898   2.782
15990WAT     H248213   2.510   2.979   2.786
15991WAT      O48214   3.559   8.183   3.651
15991WAT     H148215   3.625   8.227   3.711
15991WAT     H248216   3.466   8.203   3.683
15992WAT      O48217   9.118   2.532   1.502
15992WAT     H148218   9.045   2.545   1.570
15992WAT     H248219   9.122   2.611   1.441
15993WAT      O48220   6.988   0.193   0.382
15993WAT     H148221   7.018   0.275   0.334
15993WAT     H248222   6.954   0.218   0.473
15994WAT      O48223   5.618   5.518   8.780
15994WAT     H148224   5.652   5.494   8.689
15994WAT     H248225   5.652   5.608   8.806
15995WAT      O48226   4.307   3.892   1.706
15995WAT     H148227   4.247   3.836   1.649
15995WAT     H248228   4.283   3.880   1.802
15996WAT      O48229   8.738   8.505   1.674
15996WAT     H148230   8.711   8.601   1.673
15996WAT     H248231   8.767   8.477   1.582
15997WAT      O48232   1.948   2.851   1.502
15997WAT     H148233   1.987   2.921   1.562
15997WAT     H248234   1.952   2.882   1.407
15998WAT      O48235   8.494   8.386   5.296
15998WAT     H148236   8.401   8.387   5.333
15998WAT     H248237   8.559   8.404   5.370
15999WAT      O48238   5.923   0.954   3.441
15999WAT     H148239   5.826   0.978   3.453
15999WAT     H248240   5.978   1.038   3.441
16000WAT      O48241   1.035   6.226   9.613
16000WAT     H148242   1.035   6.211   9.515
16000WAT     H248243   1.099   6.163   9.657
16001WAT      O48244   7.884   7.312   4.888
16001WAT     H148245   7.814   7.382   4.873
16001WAT     H248246   7.843   7.222   4.882
16002WAT      O48247   5.389   2.655   3.835
16002WAT     H148248   5.342   2.660   3.923
16002WAT     H248249   5.351   2.724   3.773
16003WAT      O48250   1.433   4.624   2.328
16003WAT     H148251   1.354   4.563   2.336
16003WAT     H248252   1.478   4.609   2.239
16004WAT      O48253   4.743   9.396   3.318
16004WAT     H148254   4.781   9.443   3.397
16004WAT     H248255   4.650   9.429   3.301
16005WAT      O48256   9.096   1.679   4.499
16005WAT     H148257   9.031   1.690   4.574
16005WAT     H248258   9.116   1.769   4.459
16006WAT      O48259   2.885   5.002   0.361
16006WAT     H148260   2.814   4.937   0.387
16006WAT     H248261   2.856   5.095   0.384
16007WAT      O48262   0.823   4.271   3.233
16007WAT     H148263   0.815   4.253   3.331
16007WAT     H248264   0.839   4.369   3.218
16008WAT      O48265   0.555   4.202   3.261
16008WAT     H148266   0.652   4.226   3.264
16008WAT     H248267   0.545   4.103   3.273
16009WAT      O48268   0.206   4.901   9.049
16009WAT     H148269   0.141   4.832   9.018
16009WAT     H248270   0.284   4.857   9.092
16010WAT      O48271   4.319   7.735   9.402
16010WAT     H148272   4.301   7.802   9.330
16010WAT     H248273   4.413   7.702   9.393
16011WAT      O48274   6.732   5.500   1.060
16011WAT     H148275   6.791   5.451   1.125
16011WAT     H248276   6.788   5.534   0.984
16012WAT      O48277   9.045   5.012   3.786
16012WAT     H148278   8.978   4.977   3.720
16012WAT     H248279   9.032   5.110   3.799
16013WAT      O48280   0.745   2.683   6.471
16013WAT     H148281   0.835   2.661   6.432
16013WAT     H248282   0.758   2.736   6.555
16014WAT      O48283   3.219   2.103   6.345
16014WAT     H148284   3.163   2.111   6.428
16014WAT     H248285   3.171   2.048   6.277
16015WAT      O48286   5.788   1.258   9.764
16015WAT     H148287   5.743   1.176   9.729
16015WAT     H248288   5.863   1.283   9.704
16016WAT      O48289   2.587   9.820   3.722
16016WAT     H148290   2.677   9.863   3.710
16016WAT     H248291   2.518   9.873   3.674
16017WAT      O48292   8.383   2.806   5.476
16017WAT     H148293   8.292   2.841   5.453
16017WAT     H248294   8.408   2.837   5.568
16018WAT      O48295   7.216   8.741   2.918
16018WAT     H148296   7.220   8.779   3.010
16018WAT     H248297   7.163   8.802   2.859
16019WAT      O48298   6.823   8.180   2.623
16019WAT     H148299   6.883   8.253   2.656
16019WAT     H248300   6.815   8.109   2.693
16020WAT      O48301   1.464   9.533   5.066
16020WAT     H148302   1.443   9.471   4.991
16020WAT     H248303   1.490   9.622   5.029
16021WAT      O48304   5.031   6.862   1.312
16021WAT     H148305   5.034   6.877   1.411
16021WAT     H248306   5.115   6.816   1.283
16022WAT      O48307   3.793   8.036   7.285
16022WAT     H148308   3.803   7.963   7.353
16022WAT     H248309   3.754   7.998   7.201
16023WAT      O48310   9.812   6.212   6.748
16023WAT     H148311   9.881   6.206   6.676
16023WAT     H248312   9.849   6.176   6.833
16024WAT      O48313   3.433   8.479   6.070
16024WAT     H148314   3.513   8.423   6.049
16024WAT     H248315   3.402   8.458   6.163
16025WAT      O48316   1.604   8.777   0.307
16025WAT     H148317   1.529   8.731   0.355
16025WAT     H248318   1.643   8.715   0.239
16026WAT      O48319   2.409   0.256   0.040
16026WAT     H148320   2.459   0.170   0.045
16026WAT     H248321   2.336   0.249  -0.027
16027WAT      O48322   2.676   2.136   5.709
16027WAT     H148323   2.589   2.149   5.661
16027WAT     H248324   2.728   2.063   5.665
16028WAT      O48325   5.752   6.449   0.609
16028WAT     H148326   5.796   6.538   0.599
16028WAT     H248327   5.724   6.415   0.519
16029WAT      O48328   1.526   2.024   7.643
16029WAT     H148329   1.585   2.039   7.564
16029WAT     H248330   1.568   1.956   7.704
16030WAT      O48331   1.242   4.602   7.177
16030WAT     H148332   1.159   4.585   7.230
16030WAT     H248333   1.290   4.516   7.161
16031WAT      O48334   2.526   8.396   4.344
16031WAT     H148335   2.441   8.387   4.293
16031WAT     H248336   2.542   8.312   4.397
16032WAT      O48337   0.525   1.282   3.282
16032WAT     H148338   0.561   1.188   3.278
16032WAT     H248339   0.514   1.317   3.189
16033WAT      O48340   2.964   0.447   7.078
16033WAT     H148341   3.008   0.363   7.106
16033WAT     H248342   3.029   0.523   7.082
16034WAT      O48343   7.147   8.959   3.112
16034WAT     H148344   7.210   9.017   3.060
16034WAT     H248345   7.057   8.959   3.068
16035WAT      O48346   5.133   9.248   5.685
16035WAT     H148347   5.223   9.264   5.645
16035WAT     H248348   5.070   9.217   5.615
16036WAT      O48349   4.081   0.299   3.503
16036WAT     H148350   4.022   0.322   3.581
16036WAT     H248351   4.033   0.321   3.418
16037WAT      O48352   5.186   9.612   9.468
16037WAT     H148353   5.188   9.555   9.551
16037WAT     H248354   5.206   9.555   9.389
16038WAT      O48355   6.996   3.243   0.941
16038WAT     H148356   6.933   3.170   0.915
16038WAT     H248357   6.956   3.297   1.015
16039WAT      O48358   6.869   3.133   5.088
16039WAT     H148359   6.783   3.135   5.140
16039WAT     H248360   6.909   3.042   5.095
16040WAT      O48361   2.767   8.005   8.949
16040WAT     H148362   2.781   7.940   9.023
16040WAT     H248363   2.854   8.024   8.903
16041WAT      O48364   6.040   4.930   7.829
16041WAT     H148365   6.032   4.844   7.779
16041WAT     H248366   5.949   4.963   7.855
16042WAT      O48367   5.046   8.747   9.296
16042WAT     H148368   4.953   8.773   9.272
16042WAT     H248369   5.092   8.822   9.343
16043WAT      O48370   6.496   6.186   1.041
16043WAT     H148371   6.456   6.263   0.990
16043WAT     H248372   6.557   6.221   1.112
16044WAT      O48373   1.355   0.391   0.485
16044WAT     H148374   1.438   0.403   0.432
16044WAT     H248375   1.341   0.471   0.544
16045WAT      O48376   3.434   3.167   8.218
16045WAT     H148377   3.354   3.198   8.167
16045WAT     H248378   3.513   3.223   8.193
16046WAT      O48379   7.820   6.228   3.813
16046WAT     H148380   7.831   6.220   3.714
16046WAT     H248381   7.723   6.239   3.835
16047WAT      O48382   4.594   7.898   7.573
16047WAT     H148383   4.682   7.925   7.532
16047WAT     H248384   4.520   7.923   7.511
16048WAT      O48385   2.781   5.481   4.482
16048WAT     H148386   2.766   5.571   4.441
16048WAT     H248387   2.879   5.465   4.494
16049WAT      O48388   8.801   0.794   2.312
16049WAT     H148389   8.849   0.736   2.378
16049WAT     H248390   8.704   0.768   2.309
16050WAT      O48391   1.314   5.145   9.346
16050WAT     H148392   1.378   5.080   9.388
16050WAT     H248393   1.230   5.097   9.321
16051WAT      O48394   6.149   9.462   9.498
16051WAT     H148395   6.120   9.510   9.580
16051WAT     H248396   6.072   9.409   9.461
16052WAT      O48397   5.140   1.811   4.073
16052WAT     H148398   5.222   1.801   4.017
16052WAT     H248399   5.118   1.908   4.085
16053WAT      O48400   6.947   0.393   0.010
16053WAT     H148401   6.921   0.468  -0.051
16053WAT     H248402   6.901   0.309  -0.019
16054WAT      O48403   7.585   1.834   9.026
16054WAT     H148404   7.584   1.923   9.070
16054WAT     H248405   7.663   1.827   8.964
16055WAT      O48406   7.854   8.405   0.977
16055WAT     H148407   7.881   8.492   0.934
16055WAT     H248408   7.775   8.421   1.036
16056WAT      O48409   3.406   8.084   9.624
16056WAT     H148410   3.362   8.120   9.542
16056WAT     H248411   3.430   7.988   9.610
16057WAT      O48412   1.658   3.373   0.789
16057WAT     H148413   1.737   3.434   0.797
16057WAT     H248414   1.580   3.414   0.837
16058WAT      O48415   7.976   8.888   6.558
16058WAT     H148416   7.966   8.974   6.606
16058WAT     H248417   8.061   8.844   6.585
16059WAT      O48418   3.955   8.173   7.471
16059WAT     H148419   3.884   8.125   7.418
16059WAT     H248420   3.935   8.163   7.569
16060WAT      O48421   2.433   3.406   4.197
16060WAT     H148422   2.518   3.458   4.206
16060WAT     H248423   2.367   3.438   4.265
16061WAT      O48424   6.935   5.289   7.702
16061WAT     H148425   7.022   5.242   7.718
16061WAT     H248426   6.882   5.238   7.634
16062WAT      O48427   5.338   6.112   0.666
16062WAT     H148428   5.419   6.169   0.649
16062WAT     H248429   5.353   6.055   0.747
16063WAT      O48430   7.601   4.003   0.435
16063WAT     H148431   7.670   4.026   0.504
16063WAT     H248432   7.532   4.075   0.432
16064WAT      O48433   4.367   6.901   7.224
16064WAT     H148434   4.464   6.917   7.241
16064WAT     H248435   4.344   6.807   7.248
16065WAT      O48436   0.279   5.811   6.357
16065WAT     H148437   0.350   5.872   6.322
16065WAT     H248438   0.297   5.718   6.327
16066WAT      O48439   4.275   2.246   0.553
16066WAT     H148440   4.217   2.242   0.473
16066WAT     H248441   4.226   2.289   0.629
16067WAT      O48442   8.778   9.236   8.954
16067WAT     H148443   8.796   9.153   9.007
16067WAT     H248444   8.759   9.312   9.017
16068WAT      O48445   0.504   1.155   1.191
16068WAT     H148446   0.496   1.117   1.283
16068WAT     H248447   0.413   1.168   1.152
16069WAT      O48448   7.315   2.538   3.328
16069WAT     H148449   7.347   2.484   3.250
16069WAT     H248450   7.319   2.483   3.411
16070WAT      O48451   3.029   6.038   6.204
16070WAT     H148452   3.078   6.090   6.274
16070WAT     H248453   2.959   6.097   6.163
16071WAT      O48454   7.978   6.403   0.293
16071WAT     H148455   8.062   6.450   0.267
16071WAT     H248456   7.989   6.305   0.278
16072WAT      O48457   5.118   4.860   2.843
16072WAT     H148458   5.149   4.893   2.933
16072WAT     H248459   5.019   4.874   2.836
16073WAT      O48460   4.488   7.084   1.031
16073WAT     H148461   4.568   7.061   1.086
16073WAT     H248462   4.461   7.005   0.976
16074WAT      O48463   9.360   2.941   3.104
16074WAT     H148464   9.323   2.848   3.104
16074WAT     H248465   9.452   2.941   3.142
16075WAT      O48466   3.926   7.565   6.513
16075WAT     H148467   3.908   7.479   6.559
16075WAT     H248468   4.025   7.577   6.501
16076WAT      O48469   4.693   6.771   3.896
16076WAT     H148470   4.786   6.741   3.913
16076WAT     H248471   4.690   6.823   3.811
16077WAT      O48472   4.671   7.416   1.213
16077WAT     H148473   4.660   7.467   1.128
16077WAT     H248474   4.681   7.479   1.290
16078WAT      O48475   1.333   5.414   4.067
16078WAT     H148476   1.358   5.496   4.118
16078WAT     H248477   1.240   5.386   4.091
16079WAT      O48478   9.583   2.771   5.318
16079WAT     H148479   9.498   2.805   5.278
16079WAT     H248480   9.660   2.799   5.261
16080WAT      O48481   0.599   4.552   3.237
16080WAT     H148482   0.617   4.495   3.156
16080WAT     H248483   0.546   4.632   3.209
16081WAT      O48484   5.953   0.162   9.090
16081WAT     H148485   5.925   0.257   9.072
16081WAT     H248486   6.050   0.152   9.069
16082WAT      O48487   8.875   3.095   9.014
16082WAT     H148488   8.918   3.063   9.099
16082WAT     H248489   8.933   3.164   8.972
16083WAT      O48490   6.850   8.652   0.149
16083WAT     H148491   6.765   8.684   0.105
16083WAT     H248492   6.920   8.723   0.140
16084WAT      O48493   7.121   6.529   9.259
16084WAT     H148494   7.037   6.508   9.210
16084WAT     H248495   7.164   6.609   9.219
16085WAT      O48496   4.388   0.376   2.348
16085WAT     H148497   4.394   0.461   2.400
16085WAT     H248498   4.385   0.397   2.250
16086WAT      O48499   7.386   0.119   3.037
16086WAT     H148500   7.409   0.151   3.129
16086WAT     H248501   7.470   0.100   2.987
16087WAT      O48502   4.933   8.374   8.106
16087WAT     H148503   4.877   8.371   8.189
16087WAT     H248504   4.950   8.469   8.080
16088WAT      O48505   1.090   5.842   7.421
16088WAT     H148506   1.047   5.925   7.386
16088WAT     H248507   1.173   5.822   7.368
16089WAT      O48508   2.208   9.038   8.661
16089WAT     H148509   2.200   8.982   8.744
16089WAT     H248510   2.289   9.097   8.669
16090WAT      O48511   2.971   0.165   2.133
16090WAT     H148512   2.889   0.191   2.183
16090WAT     H248513   2.988   0.067   2.145
16091WAT      O48514   5.998   0.428   2.333
16091WAT     H148515   5.988   0.329   2.327
16091WAT     H248516   5.908   0.471   2.326
16092WAT      O48517   3.203   6.577   0.202
16092WAT     H148518   3.259   6.646   0.248
16092WAT     H248519   3.110   6.580   0.238
16093WAT      O48520   9.752   9.143   7.474
16093WAT     H148521   9.704   9.177   7.554
16093WAT     H248522   9.839   9.192   7.464
16094WAT      O48523   6.326   1.242   0.902
16094WAT     H148524   6.426   1.244   0.905
16094WAT     H248525   6.290   1.249   0.994
16095WAT      O48526   0.620   4.614   6.400
16095WAT     H148527   0.553   4.585   6.468
16095WAT     H248528   0.598   4.573   6.312
16096WAT      O48529   9.324   1.157   2.767
16096WAT     H148530   9.349   1.108   2.683
16096WAT     H248531   9.326   1.256   2.750
16097WAT      O48532   8.317   3.047   0.069
16097WAT     H148533   8.262   2.967   0.094
16097WAT     H248534   8.371   3.076   0.148
16098WAT      O48535   6.573   4.483   5.230
16098WAT     H148536   6.497   4.515   5.173
16098WAT     H248537   6.538   4.420   5.300
16099WAT      O48538   2.430   4.923   8.258
16099WAT     H148539   2.516   4.874   8.239
16099WAT     H248540   2.396   4.897   8.348
16100WAT      O48541   8.573   6.772   3.004
16100WAT     H148542   8.479   6.740   2.999
16100WAT     H248543   8.630   6.719   2.940
16101WAT      O48544   0.763   1.773   4.089
16101WAT     H148545   0.767   1.750   3.992
16101WAT     H248546   0.741   1.691   4.142
16102WAT      O48547   5.383   2.228   7.408
16102WAT     H148548   5.355   2.143   7.364
16102WAT     H248549   5.409   2.210   7.503
16103WAT      O48550   2.157   7.613   9.149
16103WAT     H148551   2.111   7.579   9.067
16103WAT     H248552   2.089   7.648   9.213
16104WAT      O48553   1.070   6.805   4.818
16104WAT     H148554   1.132   6.730   4.841
16104WAT     H248555   1.109   6.858   4.742
16105WAT      O48556   5.900   3.263   3.190
16105WAT     H148557   5.979   3.258   3.128
16105WAT     H248558   5.819   3.292   3.140
16106WAT      O48559   1.708   3.798   1.065
16106WAT     H148560   1.621   3.800   1.115
16106WAT     H248561   1.782   3.823   1.127
16107WAT      O48562   7.672   6.945   8.491
16107WAT     H148563   7.592   6.896   8.526
16107WAT     H248564   7.655   6.971   8.396
16108WAT      O48565   1.112   2.320   7.770
16108WAT     H148566   1.169   2.270   7.704
16108WAT     H248567   1.021   2.279   7.773
16109WAT      O48568   4.942   9.232   5.883
16109WAT     H148569   5.016   9.222   5.816
16109WAT     H248570   4.941   9.326   5.917
16110WAT      O48571   9.700   9.534   6.785
16110WAT     H148572   9.666   9.458   6.729
16110WAT     H248573   9.641   9.614   6.771
16111WAT      O48574   3.370   0.094   9.637
16111WAT     H148575   3.376   0.170   9.573
16111WAT     H248576   3.411   0.120   9.724
16112WAT      O48577   1.382   5.820   3.995
16112WAT     H148578   1.362   5.784   3.904
16112WAT     H248579   1.395   5.919   3.990
16113WAT      O48580   4.742   4.405   6.496
16113WAT     H148581   4.713   4.346   6.572
16113WAT     H248582   4.679   4.482   6.488
16114WAT      O48583   9.387   3.456   5.557
16114WAT     H148584   9.399   3.504   5.471
16114WAT     H248585   9.347   3.366   5.539
16115WAT      O48586   4.308   6.178   1.579
16115WAT     H148587   4.360   6.234   1.643
16115WAT     H248588   4.360   6.167   1.494
16116WAT      O48589   6.152   8.336   9.051
16116WAT     H148590   6.156   8.434   9.035
16116WAT     H248591   6.123   8.290   8.967
16117WAT      O48592   9.302   4.966   8.232
16117WAT     H148593   9.238   4.925   8.167
16117WAT     H248594   9.362   4.895   8.270
16118WAT      O48595   1.736   4.869   1.919
16118WAT     H148596   1.717   4.955   1.872
16118WAT     H248597   1.661   4.805   1.902
16119WAT      O48598   3.507   5.181   8.476
16119WAT     H148599   3.440   5.137   8.536
16119WAT     H248600   3.483   5.278   8.465
16120WAT      O48601   6.062   8.532   0.739
16120WAT     H148602   6.065   8.568   0.832
16120WAT     H248603   6.143   8.562   0.689
16121WAT      O48604   5.057   3.309   8.318
16121WAT     H148605   4.984   3.292   8.384
16121WAT     H248606   5.142   3.266   8.351
16122WAT      O48607   7.427   3.659   5.746
16122WAT     H148608   7.432   3.754   5.715
16122WAT     H248609   7.475   3.650   5.833
16123WAT      O48610   7.184   0.924   6.074
16123WAT     H148611   7.267   0.979   6.066
16123WAT     H248612   7.190   0.846   6.011
16124WAT      O48613   8.703   8.306   4.224
16124WAT     H148614   8.611   8.309   4.184
16124WAT     H248615   8.755   8.233   4.181
16125WAT      O48616   6.194   2.841   8.128
16125WAT     H148617   6.270   2.805   8.074
16125WAT     H248618   6.207   2.817   8.224
16126WAT      O48619   9.234   3.355   8.662
16126WAT     H148620   9.188   3.309   8.738
16126WAT     H248621   9.327   3.318   8.652
16127WAT      O48622   5.181   1.528   1.738
16127WAT     H148623   5.229   1.593   1.680
16127WAT     H248624   5.237   1.507   1.818
16128WAT      O48625   7.978   7.909   7.193
16128WAT     H148626   8.069   7.870   7.206
16128WAT     H248627   7.972   7.951   7.102
16129WAT      O48628   2.927   2.614   2.835
16129WAT     H148629   2.985   2.665   2.772
16129WAT     H248630   2.984   2.565   2.900
16130WAT      O48631   0.777   1.805   1.466
16130WAT     H148632   0.752   1.806   1.370
16130WAT     H248633   0.875   1.821   1.475
16131WAT      O48634   0.752   2.182   5.987
16131WAT     H148635   0.784   2.233   6.067
16131WAT     H248636   0.831   2.157   5.930
16132WAT      O48637   6.883   3.555   9.800
16132WAT     H148638   6.921   3.465   9.775
16132WAT     H248639   6.954   3.610   9.843
16133WAT      O48640   1.247   3.444   3.346
16133WAT     H148641   1.225   3.362   3.294
16133WAT     H248642   1.208   3.524   3.299
16134WAT      O48643   6.174   8.792   5.006
16134WAT     H148644   6.090   8.738   5.011
16134WAT     H248645   6.253   8.730   5.002
16135WAT      O48646   7.313   2.348   3.511
16135WAT     H148647   7.409   2.334   3.487
16135WAT     H248648   7.299   2.324   3.607
16136WAT      O48649   7.801   5.014   8.310
16136WAT     H148650   7.777   5.056   8.398
16136WAT     H248651   7.862   5.075   8.259
16137WAT      O48652   9.430   8.746   3.523
16137WAT     H148653   9.490   8.681   3.570
16137WAT     H248654   9.385   8.700   3.447
16138WAT      O48655   8.758   8.442   1.148
16138WAT     H148656   8.781   8.354   1.107
16138WAT     H248657   8.775   8.515   1.081
16139WAT      O48658   1.696   9.673   5.333
16139WAT     H148659   1.751   9.627   5.263
16139WAT     H248660   1.607   9.628   5.341
16140WAT      O48661   9.371   7.350   1.641
16140WAT     H148662   9.342   7.389   1.728
16140WAT     H248663   9.327   7.261   1.627
16141WAT      O48664   9.468   0.165   0.615
16141WAT     H148665   9.488   0.068   0.630
16141WAT     H248666   9.533   0.203   0.550
16142WAT      O48667   0.452   5.753   9.568
16142WAT     H148668   0.419   5.679   9.510
16142WAT     H248669   0.473   5.833   9.511
16143WAT      O48670   6.884   7.589   1.962
16143WAT     H148671   6.971   7.602   1.914
16143WAT     H248672   6.892   7.623   2.055
16144WAT      O48673   4.045   5.023   6.868
16144WAT     H148674   4.019   4.934   6.830
16144WAT     H248675   4.141   5.021   6.895
16145WAT      O48676   7.670   5.861   6.017
16145WAT     H148677   7.643   5.890   5.925
16145WAT     H248678   7.596   5.883   6.081
16146WAT      O48679   9.374   6.735   3.597
16146WAT     H148680   9.408   6.798   3.527
16146WAT     H248681   9.294   6.686   3.561
16147WAT      O48682   6.697   7.501   6.048
16147WAT     H148683   6.670   7.405   6.042
16147WAT     H248684   6.644   7.546   6.120
16148WAT      O48685   3.990   9.441   2.092
16148WAT     H148686   3.944   9.476   2.174
16148WAT     H248687   3.978   9.342   2.088
16149WAT      O48688   9.021   1.343   1.469
16149WAT     H148689   9.094   1.341   1.538
16149WAT     H248690   9.058   1.373   1.382
16150WAT      O48691   8.718   6.227   5.176
16150WAT     H148692   8.782   6.289   5.223
16150WAT     H248693   8.627   6.268   5.176
16151WAT      O48694   3.594   7.363   3.818
16151WAT     H148695   3.500   7.374   3.787
16151WAT     H248696   3.597   7.300   3.895
16152WAT      O48697   1.826   0.543   9.257
16152WAT     H148698   1.900   0.516   9.319
16152WAT     H248699   1.746   0.487   9.274
16153WAT      O48700   6.823   4.157   0.500
16153WAT     H148701   6.857   4.119   0.414
16153WAT     H248702   6.819   4.256   0.493
16154WAT      O48703   6.648   5.263   7.423
16154WAT     H148704   6.622   5.251   7.327
16154WAT     H248705   6.714   5.192   7.448
16155WAT      O48706   7.562   7.914   5.592
16155WAT     H148707   7.587   8.005   5.625
16155WAT     H248708   7.584   7.846   5.662
16156WAT      O48709   2.823   9.361   1.344
16156WAT     H148710   2.914   9.376   1.382
16156WAT     H248711   2.761   9.433   1.375
16157WAT      O48712   8.251   9.726   9.262
16157WAT     H148713   8.226   9.681   9.348
16157WAT     H248714   8.350   9.734   9.257
16158WAT      O48715   2.976   3.618   4.152
16158WAT     H148716   3.006   3.714   4.154
16158WAT     H248717   3.002   3.577   4.065
16159WAT      O48718   4.002   1.608   4.351
16159WAT     H148719   4.091   1.612   4.396
16159WAT     H248720   4.009   1.645   4.259
16160WAT      O48721   6.790   2.400   6.852
16160WAT     H148722   6.711   2.458   6.832
16160WAT     H248723   6.873   2.456   6.856
16161WAT      O48724   1.957   6.286   6.411
16161WAT     H148725   1.930   6.295   6.315
16161WAT     H248726   1.876   6.300   6.469
16162WAT      O48727   9.525   8.734   2.001
16162WAT     H148728   9.533   8.636   2.020
16162WAT     H248729   9.440   8.752   1.952
16163WAT      O48730   8.600   3.864   4.965
16163WAT     H148731   8.519   3.806   4.958
16163WAT     H248732   8.589   3.945   4.907
16164WAT      O48733   1.146   0.666   7.122
16164WAT     H148734   1.211   0.680   7.047
16164WAT     H248735   1.090   0.585   7.103
16165WAT      O48736   0.068   0.732   4.346
16165WAT     H148737   0.164   0.721   4.374
16165WAT     H248738   0.065   0.772   4.255
16166WAT      O48739   7.557   8.441   0.324
16166WAT     H148740   7.544   8.413   0.419
16166WAT     H248741   7.512   8.376   0.264
16167WAT      O48742   2.056   3.398   4.055
16167WAT     H148743   2.044   3.413   4.153
16167WAT     H248744   2.123   3.326   4.040
16168WAT      O48745   4.794   2.604   6.773
16168WAT     H148746   4.751   2.544   6.841
16168WAT     H248747   4.860   2.665   6.819
16169WAT      O48748   6.586   1.267   0.914
16169WAT     H148749   6.642   1.261   0.831
16169WAT     H248750   6.646   1.270   0.994
16170WAT      O48751   4.483   5.343   1.829
16170WAT     H148752   4.476   5.434   1.871
16170WAT     H248753   4.465   5.273   1.898
16171WAT      O48754   2.714   2.650   2.365
16171WAT     H148755   2.663   2.634   2.449
16171WAT     H248756   2.801   2.600   2.368
16172WAT      O48757   8.615   2.977   6.315
16172WAT     H148758   8.529   2.932   6.293
16172WAT     H248759   8.680   2.909   6.349
16173WAT      O48760   7.342   0.834   8.343
16173WAT     H148761   7.345   0.786   8.255
16173WAT     H248762   7.373   0.928   8.331
16174WAT      O48763   4.400   0.926   7.285
16174WAT     H148764   4.339   0.897   7.357
16174WAT     H248765   4.384   1.023   7.264
16175WAT      O48766   9.599   1.631   2.788
16175WAT     H148767   9.526   1.679   2.739
16175WAT     H248768   9.646   1.569   2.725
16176WAT      O48769   7.102   4.505   0.840
16176WAT     H148770   7.191   4.519   0.883
16176WAT     H248771   7.110   4.521   0.741
16177WAT      O48772   7.297   8.356   7.665
16177WAT     H148773   7.248   8.430   7.620
16177WAT     H248774   7.290   8.273   7.610
16178WAT      O48775   1.177   2.473   7.984
16178WAT     H148776   1.172   2.393   8.044
16178WAT     H248777   1.142   2.449   7.894
16179WAT      O48778   3.702   2.948   5.532
16179WAT     H148779   3.682   2.850   5.527
16179WAT     H248780   3.625   2.999   5.493
16180WAT      O48781   5.550   9.081   0.968
16180WAT     H148782   5.513   9.089   0.876
16180WAT     H248783   5.641   9.039   0.965
16181WAT      O48784   1.550   4.107   9.545
16181WAT     H148785   1.537   4.149   9.455
16181WAT     H248786   1.566   4.179   9.613
16182WAT      O48787   0.542   3.447   4.414
16182WAT     H148788   0.567   3.384   4.340
16182WAT     H248789   0.494   3.396   4.486
16183WAT      O48790   0.871   4.427   9.175
16183WAT     H148791   0.939   4.484   9.129
16183WAT     H248792   0.916   4.347   9.215
16184WAT      O48793   1.380   6.767   0.942
16184WAT     H148794   1.466   6.815   0.927
16184WAT     H248795   1.378   6.684   0.885
16185WAT      O48796   2.164   7.046   1.423
16185WAT     H148797   2.129   7.088   1.507
16185WAT     H248798   2.222   6.969   1.446
16186WAT      O48799   8.347   2.915   2.171
16186WAT     H148800   8.446   2.930   2.163
16186WAT     H248801   8.323   2.901   2.267
16187WAT      O48802   1.047   4.951   8.736
16187WAT     H148803   1.095   5.039   8.741
16187WAT     H248804   1.076   4.892   8.811
16188WAT      O48805   7.470   7.209   0.227
16188WAT     H148806   7.497   7.305   0.233
16188WAT     H248807   7.470   7.180   0.132
16189WAT      O48808   7.851   2.102   9.523
16189WAT     H148809   7.929   2.046   9.495
16189WAT     H248810   7.820   2.156   9.444
16190WAT      O48811   4.690   6.031   2.303
16190WAT     H148812   4.593   6.050   2.315
16190WAT     H248813   4.701   5.950   2.246
16191WAT      O48814   7.462   2.983   9.498
16191WAT     H148815   7.558   2.989   9.525
16191WAT     H248816   7.406   3.037   9.561
16192WAT      O48817   2.095   7.289   4.553
16192WAT     H148818   2.059   7.365   4.499
16192WAT     H248819   2.138   7.222   4.492
16193WAT      O48820   9.715   8.042   1.083
16193WAT     H148821   9.801   7.992   1.087
16193WAT     H248822   9.640   7.982   1.113
16194WAT      O48823   3.572   0.184   7.298
16194WAT     H148824   3.618   0.116   7.355
16194WAT     H248825   3.528   0.252   7.357
16195WAT      O48826   5.203   4.705   4.821
16195WAT     H148827   5.186   4.713   4.919
16195WAT     H248828   5.301   4.706   4.803
16196WAT      O48829   4.267   8.787   5.837
16196WAT     H148830   4.362   8.766   5.862
16196WAT     H248831   4.265   8.826   5.745
16197WAT      O48832   8.334   7.238   8.890
16197WAT     H148833   8.347   7.146   8.927
16197WAT     H248834   8.385   7.247   8.804
16198WAT      O48835   9.298   2.561   7.400
16198WAT     H148836   9.326   2.465   7.392
16198WAT     H248837   9.208   2.573   7.359
16199WAT      O48838   7.232   2.713   4.970
16199WAT     H148839   7.287   2.681   4.892
16199WAT     H248840   7.275   2.683   5.055
16200WAT      O48841   0.412   3.664   6.650
16200WAT     H148842   0.341   3.692   6.714
16200WAT     H248843   0.376   3.667   6.557
16201WAT      O48844   2.720   7.072   4.369
16201WAT     H148845   2.673   6.989   4.339
16201WAT     H248846   2.736   7.132   4.291
16202WAT      O48847   6.739   2.157   3.129
16202WAT     H148848   6.794   2.115   3.058
16202WAT     H248849   6.788   2.154   3.216
16203WAT      O48850   6.603   1.468   0.505
16203WAT     H148851   6.565   1.399   0.444
16203WAT     H248852   6.702   1.468   0.499
16204WAT      O48853   0.879   0.809   8.649
16204WAT     H148854   0.808   0.807   8.578
16204WAT     H248855   0.860   0.882   8.714
16205WAT      O48856   0.633   4.812   1.163
16205WAT     H148857   0.707   4.788   1.099
16205WAT     H248858   0.629   4.911   1.172
16206WAT      O48859   0.753   4.988   4.137
16206WAT     H148860   0.696   4.924   4.190
16206WAT     H248861   0.845   4.991   4.176
16207WAT      O48862   6.008   4.848   2.235
16207WAT     H148863   5.982   4.805   2.322
16207WAT     H248864   5.943   4.822   2.164
16208WAT      O48865   5.144   1.752   4.968
16208WAT     H148866   5.186   1.793   5.049
16208WAT     H248867   5.124   1.656   4.985
16209WAT      O48868   5.139   3.295   6.626
16209WAT     H148869   5.182   3.248   6.703
16209WAT     H248870   5.208   3.348   6.576
16210WAT      O48871   0.407   4.918   8.689
16210WAT     H148872   0.497   4.950   8.718
16210WAT     H248873   0.337   4.981   8.723
16211WAT      O48874   0.176   5.745   2.327
16211WAT     H148875   0.257   5.771   2.274
16211WAT     H248876   0.094   5.765   2.273
16212WAT      O48877   3.162   6.475   2.991
16212WAT     H148878   3.099   6.532   3.044
16212WAT     H248879   3.256   6.505   3.008
16213WAT      O48880   9.753   2.805   5.553
16213WAT     H148881   9.678   2.790   5.489
16213WAT     H248882   9.766   2.904   5.567
16214WAT      O48883   2.603   0.147   2.416
16214WAT     H148884   2.608   0.160   2.515
16214WAT     H248885   2.515   0.182   2.383
16215WAT      O48886   4.171   2.475   1.684
16215WAT     H148887   4.072   2.473   1.690
16215WAT     H248888   4.211   2.413   1.752
16216WAT      O48889   7.221   9.303   9.252
16216WAT     H148890   7.202   9.319   9.348
16216WAT     H248891   7.252   9.209   9.239
16217WAT      O48892   1.483   0.729   0.267
16217WAT     H148893   1.557   0.794   0.282
16217WAT     H248894   1.519   0.636   0.267
16218WAT      O48895   6.687   0.449   0.478
16218WAT     H148896   6.699   0.404   0.566
16218WAT     H248897   6.706   0.383   0.405
16219WAT      O48898   7.798   6.777   0.438
16219WAT     H148899   7.755   6.791   0.349
16219WAT     H248900   7.728   6.775   0.510
16220WAT      O48901   3.115   3.387   1.519
16220WAT     H148902   3.161   3.301   1.538
16220WAT     H248903   3.093   3.393   1.422
16221WAT      O48904   6.215   6.740   5.915
16221WAT     H148905   6.124   6.705   5.889
16221WAT     H248906   6.282   6.666   5.910
16222WAT      O48907   0.589   7.699   6.916
16222WAT     H148908   0.536   7.671   6.837
16222WAT     H248909   0.584   7.629   6.987
16223WAT      O48910   3.144   7.245   9.014
16223WAT     H148911   3.142   7.266   8.917
16223WAT     H248912   3.072   7.295   9.061
16224WAT      O48913   6.735   3.159   0.377
16224WAT     H148914   6.786   3.245   0.373
16224WAT     H248915   6.779   3.098   0.443
16225WAT      O48916   6.349   4.434   3.130
16225WAT     H148917   6.337   4.500   3.055
16225WAT     H248918   6.348   4.341   3.093
16226WAT      O48919   0.982   7.820   2.766
16226WAT     H148920   1.022   7.866   2.845
16226WAT     H248921   0.882   7.817   2.777
16227WAT      O48922   9.481   5.407   7.054
16227WAT     H148923   9.429   5.457   6.985
16227WAT     H248924   9.504   5.316   7.019
16228WAT      O48925   8.271   1.838   9.160
16228WAT     H148926   8.294   1.828   9.257
16228WAT     H248927   8.306   1.760   9.109
16229WAT      O48928   6.139   6.626   1.871
16229WAT     H148929   6.086   6.568   1.933
16229WAT     H248930   6.234   6.628   1.900
16230WAT      O48931   3.510   8.718   0.024
16230WAT     H148932   3.467   8.637  -0.016
16230WAT     H248933   3.485   8.799  -0.030
16231WAT      O48934   6.625   8.017   2.442
16231WAT     H148935   6.690   8.074   2.493
16231WAT     H248936   6.650   7.921   2.451
16232WAT      O48937   1.270   7.007   6.946
16232WAT     H148938   1.292   7.039   6.853
16232WAT     H248939   1.330   7.053   7.011
16233WAT      O48940   0.515   3.710   0.287
16233WAT     H148941   0.579   3.775   0.328
16233WAT     H248942   0.550   3.617   0.296
16234WAT      O48943   3.761   7.694   3.184
16234WAT     H148944   3.809   7.765   3.133
16234WAT     H248945   3.671   7.727   3.213
16235WAT      O48946   7.708   8.411   2.021
16235WAT     H148947   7.754   8.419   1.932
16235WAT     H248948   7.636   8.341   2.014
16236WAT      O48949   0.684   8.303   8.797
16236WAT     H148950   0.610   8.236   8.798
16236WAT     H248951   0.726   8.306   8.707
16237WAT      O48952   5.454   5.888   7.076
16237WAT     H148953   5.442   5.809   7.136
16237WAT     H248954   5.535   5.939   7.104
16238WAT      O48955   3.256   1.806   7.757
16238WAT     H148956   3.344   1.853   7.760
16238WAT     H248957   3.271   1.707   7.762
16239WAT      O48958   1.714   3.148   6.682
16239WAT     H148959   1.677   3.064   6.644
16239WAT     H248960   1.789   3.181   6.625
16240WAT      O48961   2.203   6.655   5.334
16240WAT     H148962   2.276   6.718   5.360
16240WAT     H248963   2.114   6.700   5.346
16241WAT      O48964   2.293   5.179   9.355
16241WAT     H148965   2.302   5.221   9.265
16241WAT     H248966   2.306   5.249   9.426
16242WAT      O48967   1.166   3.785   2.134
16242WAT     H148968   1.236   3.740   2.079
16242WAT     H248969   1.109   3.716   2.179
16243WAT      O48970   1.021   0.979   2.929
16243WAT     H148971   1.058   1.037   2.856
16243WAT     H248972   0.960   1.033   2.987
16244WAT      O48973   2.946   3.771   0.302
16244WAT     H148974   2.930   3.786   0.399
16244WAT     H248975   2.977   3.857   0.260
16245WAT      O48976   6.089   5.006   8.980
16245WAT     H148977   6.093   5.106   8.988
16245WAT     H248978   6.008   4.980   8.928
16246WAT      O48979   7.616   0.404   8.377
16246WAT     H148980   7.572   0.479   8.328
16246WAT     H248981   7.546   0.345   8.416
16247WAT      O48982   2.241   0.480   8.030
16247WAT     H148983   2.241   0.421   8.111
16247WAT     H248984   2.147   0.498   8.002
16248WAT      O48985   7.836   4.495   0.056
16248WAT     H148986   7.871   4.406   0.026
16248WAT     H248987   7.751   4.483   0.106
16249WAT      O48988   4.256   0.871   9.833
16249WAT     H148989   4.243   0.895   9.930
16249WAT     H248990   4.188   0.918   9.778
16250WAT      O48991   1.727   3.002   4.955
16250WAT     H148992   1.688   3.044   5.037
16250WAT     H248993   1.774   2.918   4.980
16251WAT      O48994   2.200   8.360   9.182
16251WAT     H148995   2.196   8.268   9.144
16251WAT     H248996   2.195   8.355   9.282
16252WAT      O48997   1.814   2.371   2.094
16252WAT     H148998   1.891   2.312   2.116
16252WAT     H248999   1.785   2.355   2.000
16253WAT      O49000   3.451   9.360   3.162
16253WAT     H149001   3.471   9.287   3.228
16253WAT     H249002   3.376   9.415   3.197
16254WAT      O49003   0.506   5.928   4.763
16254WAT     H149004   0.463   5.838   4.765
16254WAT     H249005   0.446   5.993   4.716
16255WAT      O49006   1.512   5.690   6.837
16255WAT     H149007   1.454   5.769   6.819
16255WAT     H249008   1.550   5.697   6.929
16256WAT      O49009   8.946   7.770   2.212
16256WAT     H149010   8.857   7.805   2.240
16256WAT     H249011   8.934   7.699   2.142
16257WAT      O49012   2.453   0.864   6.574
16257WAT     H149013   2.424   0.769   6.563
16257WAT     H249014   2.481   0.880   6.669
16258WAT      O49015   2.215   5.979   9.034
16258WAT     H149016   2.245   5.918   8.960
16258WAT     H249017   2.252   5.947   9.121
16259WAT      O49018   6.190   6.038   6.948
16259WAT     H149019   6.217   6.061   7.042
16259WAT     H249020   6.112   5.975   6.950
16260WAT      O49021   1.267   4.443   6.149
16260WAT     H149022   1.296   4.361   6.198
16260WAT     H249023   1.167   4.445   6.144
16261WAT      O49024   1.286   6.643   4.826
16261WAT     H149025   1.332   6.730   4.813
16261WAT     H249026   1.335   6.572   4.775
16262WAT      O49027   3.081   6.039   0.213
16262WAT     H149028   3.033   5.981   0.147
16262WAT     H249029   3.175   6.005   0.225
16263WAT      O49030   5.370   8.872   2.105
16263WAT     H149031   5.429   8.875   2.186
16263WAT     H249032   5.293   8.811   2.123
16264WAT      O49033   0.202   0.947   0.647
16264WAT     H149034   0.289   0.899   0.643
16264WAT     H249035   0.136   0.902   0.586
16265WAT      O49036   5.482   8.945   3.064
16265WAT     H149037   5.417   9.015   3.034
16265WAT     H249038   5.499   8.881   2.989
16266WAT      O49039   0.292   0.307   2.639
16266WAT     H149040   0.210   0.342   2.594
16266WAT     H249041   0.361   0.286   2.570
16267WAT      O49042   0.315   4.911   5.598
16267WAT     H149043   0.371   4.829   5.615
16267WAT     H249044   0.356   4.964   5.524
16268WAT      O49045   7.890   5.249   1.004
16268WAT     H149046   7.888   5.189   1.084
16268WAT     H249047   7.985   5.268   0.979
16269WAT      O49048   4.337   5.422   3.633
16269WAT     H149049   4.346   5.518   3.659
16269WAT     H249050   4.241   5.400   3.620
16270WAT      O49051   3.604   3.284   8.059
16270WAT     H149052   3.690   3.282   8.009
16270WAT     H249053   3.563   3.375   8.052
16271WAT      O49054   6.504   5.115   1.349
16271WAT     H149055   6.562   5.168   1.410
16271WAT     H249056   6.561   5.062   1.286
16272WAT      O49057   5.830   0.470   8.020
16272WAT     H149058   5.772   0.551   8.020
16272WAT     H249059   5.872   0.459   7.930
16273WAT      O49060   6.057   8.787   3.639
16273WAT     H149061   6.023   8.706   3.686
16273WAT     H249062   6.018   8.792   3.548
16274WAT      O49063   7.075   2.258   7.105
16274WAT     H149064   7.000   2.313   7.140
16274WAT     H249065   7.149   2.317   7.075
16275WAT      O49066   1.783   6.008   5.424
16275WAT     H149067   1.834   6.025   5.509
16275WAT     H249068   1.829   5.937   5.371
16276WAT      O49069   4.786   7.942   6.458
16276WAT     H149070   4.809   7.993   6.375
16276WAT     H249071   4.863   7.882   6.482
16277WAT      O49072   5.542   2.876   2.819
16277WAT     H149073   5.594   2.960   2.833
16277WAT     H249074   5.455   2.898   2.774
16278WAT      O49075   7.588   5.384   7.263
16278WAT     H149076   7.593   5.474   7.221
16278WAT     H249077   7.556   5.317   7.195
16279WAT      O49078   9.012   8.333   2.947
16279WAT     H149079   8.933   8.391   2.970
16279WAT     H249080   8.997   8.290   2.859
16280WAT      O49081   3.833   8.112   5.792
16280WAT     H149082   3.798   8.191   5.741
16280WAT     H249083   3.911   8.141   5.848
16281WAT      O49084   0.182   5.250   6.783
16281WAT     H149085   0.182   5.213   6.876
16281WAT     H249086   0.131   5.189   6.723
16282WAT      O49087   2.205   5.024   1.509
16282WAT     H149088   2.249   4.940   1.476
16282WAT     H249089   2.196   5.089   1.434
16283WAT      O49090   7.856   3.692   9.849
16283WAT     H149091   7.922   3.759   9.885
16283WAT     H249092   7.767   3.736   9.837
16284WAT      O49093   4.213   7.122   1.789
16284WAT     H149094   4.299   7.079   1.819
16284WAT     H249095   4.234   7.205   1.737
16285WAT      O49096   9.541   1.112   9.885
16285WAT     H149097   9.570   1.018   9.902
16285WAT     H249098   9.592   1.149   9.807
16286WAT      O49099   7.356   7.117   0.461
16286WAT     H149100   7.414   7.129   0.380
16286WAT     H249101   7.290   7.191   0.466
16287WAT      O49102   0.277   0.839   2.231
16287WAT     H149103   0.284   0.842   2.331
16287WAT     H249104   0.184   0.863   2.203
16288WAT      O49105   7.687   6.425   8.592
16288WAT     H149106   7.771   6.467   8.558
16288WAT     H249107   7.672   6.452   8.687
16289WAT      O49108   1.717   1.108   0.181
16289WAT     H149109   1.724   1.066   0.090
16289WAT     H249110   1.631   1.158   0.188
16290WAT      O49111   8.824   7.832   6.984
16290WAT     H149112   8.844   7.833   6.886
16290WAT     H249113   8.867   7.911   7.028
16291WAT      O49114   2.427   0.885   0.205
16291WAT     H149115   2.524   0.892   0.230
16291WAT     H249116   2.373   0.944   0.264
16292WAT      O49117   1.527   4.518   2.071
16292WAT     H149118   1.528   4.497   1.973
16292WAT     H249119   1.579   4.449   2.121
16293WAT      O49120   5.331   6.391   3.969
16293WAT     H149121   5.308   6.371   4.064
16293WAT     H249122   5.403   6.461   3.966
16294WAT      O49123   2.100   5.043   7.264
16294WAT     H149124   2.091   5.142   7.250
16294WAT     H249125   2.153   5.026   7.347
16295WAT      O49126   5.918   8.637   1.574
16295WAT     H149127   5.929   8.538   1.585
16295WAT     H249128   5.931   8.682   1.662
16296WAT      O49129   6.218   5.416   8.027
16296WAT     H149130   6.259   5.507   8.038
16296WAT     H249131   6.281   5.357   7.976
16297WAT      O49132   2.686   7.817   3.671
16297WAT     H149133   2.721   7.732   3.632
16297WAT     H249134   2.755   7.857   3.731
16298WAT      O49135   1.849   7.140   1.653
16298WAT     H149136   1.835   7.045   1.628
16298WAT     H249137   1.828   7.153   1.750
16299WAT      O49138   9.038   1.928   5.407
16299WAT     H149139   8.947   1.927   5.446
16299WAT     H249140   9.102   1.968   5.472
16300WAT      O49141   1.531   7.318   0.025
16300WAT     H149142   1.438   7.347   0.003
16300WAT     H249143   1.574   7.279  -0.057
16301WAT      O49144   8.969   1.182   5.816
16301WAT     H149145   9.049   1.206   5.871
16301WAT     H249146   8.911   1.119   5.868
16302WAT      O49147   1.095   2.409   1.300
16302WAT     H149148   1.050   2.348   1.235
16302WAT     H249149   1.059   2.392   1.392
16303WAT      O49150   8.785   6.311   8.979
16303WAT     H149151   8.868   6.363   8.998
16303WAT     H249152   8.740   6.349   8.898
16304WAT      O49153   2.453   8.854   0.803
16304WAT     H149154   2.539   8.805   0.820
16304WAT     H249155   2.469   8.929   0.740
16305WAT      O49156   5.544   7.382   8.026
16305WAT     H149157   5.480   7.421   8.093
16305WAT     H249158   5.495   7.357   7.943
16306WAT      O49159   7.057   9.821   8.058
16306WAT     H149160   7.025   9.803   7.965
16306WAT     H249161   7.155   9.798   8.064
16307WAT      O49162   8.850   9.095   1.450
16307WAT     H149163   8.838   9.137   1.360
16307WAT     H249164   8.888   9.003   1.439
16308WAT      O49165   7.022   2.767   1.086
16308WAT     H149166   6.961   2.718   1.025
16308WAT     H249167   7.109   2.785   1.040
16309WAT      O49168   9.646   1.128   6.647
16309WAT     H149169   9.560   1.107   6.600
16309WAT     H249170   9.627   1.155   6.741
16310WAT      O49171   8.992   6.857   3.989
16310WAT     H149172   9.046   6.899   4.062
16310WAT     H249173   9.052   6.838   3.911
16311WAT      O49174   7.152   6.221   8.963
16311WAT     H149175   7.138   6.318   8.942
16311WAT     H249176   7.248   6.197   8.948
16312WAT      O49177   9.036   3.883   5.116
16312WAT     H149178   9.084   3.853   5.198
16312WAT     H249179   8.957   3.825   5.099
16313WAT      O49180   0.608   6.688   7.934
16313WAT     H149181   0.655   6.775   7.922
16313WAT     H249182   0.587   6.674   8.031
16314WAT      O49183   2.350   8.680   0.447
16314WAT     H149184   2.421   8.740   0.485
16314WAT     H249185   2.376   8.585   0.464
16315WAT      O49186   0.783   3.612   1.197
16315WAT     H149187   0.690   3.640   1.221
16315WAT     H249188   0.832   3.586   1.281
16316WAT      O49189   6.422   5.976   4.123
16316WAT     H149190   6.386   5.893   4.081
16316WAT     H249191   6.522   5.979   4.112
16317WAT      O49192   7.213   4.401   1.796
16317WAT     H149193   7.311   4.401   1.814
16317WAT     H249194   7.173   4.488   1.826
16318WAT      O49195   8.014   3.306   8.481
16318WAT     H149196   7.963   3.345   8.405
16318WAT     H249197   8.063   3.225   8.451
16319WAT      O49198   0.396   8.429   7.094
16319WAT     H149199   0.445   8.397   7.012
16319WAT     H249200   0.437   8.387   7.175
16320WAT      O49201   6.748   6.907   2.065
16320WAT     H149202   6.685   6.943   1.997
16320WAT     H249203   6.746   6.807   2.062
16321WAT      O49204   8.572   4.155   6.267
16321WAT     H149205   8.476   4.182   6.275
16321WAT     H249206   8.604   4.121   6.356
16322WAT      O49207   9.644   2.075   7.746
16322WAT     H149208   9.738   2.065   7.712
16322WAT     H249209   9.622   1.999   7.807
16323WAT      O49210   4.850   5.439   7.608
16323WAT     H149211   4.943   5.436   7.646
16323WAT     H249212   4.852   5.406   7.514
16324WAT      O49213   9.792   4.409   1.659
16324WAT     H149214   9.706   4.424   1.609
16324WAT     H249215   9.868   4.445   1.606
16325WAT      O49216   2.750   4.298   5.784
16325WAT     H149217   2.807   4.217   5.770
16325WAT     H249218   2.705   4.293   5.873
16326WAT      O49219   9.156   0.910   1.056
16326WAT     H149220   9.099   0.991   1.040
16326WAT     H249221   9.123   0.862   1.137
16327WAT      O49222   5.624   5.499   6.824
16327WAT     H149223   5.582   5.409   6.818
16327WAT     H249224   5.690   5.500   6.899
16328WAT      O49225   9.859   8.622   0.613
16328WAT     H149226   9.897   8.701   0.567
16328WAT     H249227   9.903   8.611   0.703
16329WAT      O49228   4.422   2.696   6.251
16329WAT     H149229   4.453   2.746   6.332
16329WAT     H249230   4.410   2.761   6.176
16330WAT      O49231   3.846   2.647   7.377
16330WAT     H149232   3.757   2.682   7.349
16330WAT     H249233   3.905   2.723   7.404
16331WAT      O49234   3.897   9.720   1.639
16331WAT     H149235   3.886   9.788   1.567
16331WAT     H249236   3.924   9.632   1.599
16332WAT      O49237   3.874   5.637   4.845
16332WAT     H149238   3.797   5.699   4.829
16332WAT     H249239   3.960   5.687   4.834
16333WAT      O49240   7.958   7.505   2.125
16333WAT     H149241   8.013   7.438   2.175
16333WAT     H249242   7.967   7.594   2.168
16334WAT      O49243   3.779   8.319   0.180
16334WAT     H149244   3.852   8.378   0.147
16334WAT     H249245   3.726   8.367   0.250
16335WAT      O49246   8.422   1.878   9.667
16335WAT     H149247   8.427   1.786   9.705
16335WAT     H249248   8.420   1.944   9.742
16336WAT      O49249   2.807   2.358   5.807
16336WAT     H149250   2.842   2.340   5.899
16336WAT     H249251   2.771   2.273   5.768
16337WAT      O49252   1.365   7.260   3.803
16337WAT     H149253   1.452   7.281   3.760
16337WAT     H249254   1.301   7.224   3.735
16338WAT      O49255   6.201   2.921   5.239
16338WAT     H149256   6.118   2.909   5.185
16338WAT     H249257   6.184   2.892   5.333
16339WAT      O49258   1.067   7.993   1.978
16339WAT     H149259   1.051   8.086   2.010
16339WAT     H249260   1.003   7.931   2.024
16340WAT      O49261   5.011   5.779   2.571
16340WAT     H149262   5.088   5.810   2.627
16340WAT     H249263   4.963   5.705   2.619
16341WAT      O49264   8.765   7.329   6.575
16341WAT     H149265   8.745   7.397   6.504
16341WAT     H249266   8.863   7.327   6.593
16342WAT      O49267   5.064   2.703   2.466
16342WAT     H149268   5.110   2.655   2.541
16342WAT     H249269   5.091   2.799   2.465
16343WAT      O49270   6.191   8.350   3.760
16343WAT     H149271   6.246   8.433   3.746
16343WAT     H249272   6.208   8.286   3.686
16344WAT      O49273   5.850   4.934   4.893
16344WAT     H149274   5.839   4.843   4.934
16344WAT     H249275   5.794   4.940   4.810
16345WAT      O49276   7.206   5.538   8.450
16345WAT     H149277   7.109   5.544   8.474
16345WAT     H249278   7.221   5.581   8.361
16346WAT      O49279   8.545   4.823   5.143
16346WAT     H149280   8.484   4.892   5.103
16346WAT     H249281   8.638   4.861   5.150
16347WAT      O49282   6.482   2.805   2.784
16347WAT     H149283   6.472   2.887   2.841
16347WAT     H249284   6.562   2.754   2.814
16348WAT      O49285   9.422   6.093   3.159
16348WAT     H149286   9.472   6.103   3.073
16348WAT     H249287   9.474   6.036   3.222
16349WAT      O49288   5.746   6.531   8.540
16349WAT     H149289   5.684   6.463   8.578
16349WAT     H249290   5.715   6.557   8.448
16350WAT      O49291   3.495   3.100   7.871
16350WAT     H149292   3.506   3.161   7.950
16350WAT     H249293   3.473   3.008   7.904
16351WAT      O49294   6.556   1.541   4.355
16351WAT     H149295   6.506   1.622   4.387
16351WAT     H249296   6.546   1.533   4.256
16352WAT      O49297   3.993   7.611   2.414
16352WAT     H149298   4.074   7.554   2.427
16352WAT     H249299   3.968   7.655   2.501
16353WAT      O49300   6.785   2.284   8.536
16353WAT     H149301   6.879   2.309   8.562
16353WAT     H249302   6.735   2.253   8.616
16354WAT      O49303   3.308   0.377   2.464
16354WAT     H149304   3.270   0.467   2.443
16354WAT     H249305   3.382   0.387   2.531
16355WAT      O49306   0.079   2.705   9.353
16355WAT     H149307   0.004   2.766   9.378
16355WAT     H249308   0.155   2.719   9.417
16356WAT      O49309   2.260   4.081   7.797
16356WAT     H149310   2.337   4.100   7.858
16356WAT     H249311   2.174   4.099   7.845
16357WAT      O49312   8.595   0.220   3.748
16357WAT     H149313   8.611   0.306   3.699
16357WAT     H249314   8.544   0.157   3.690
16358WAT      O49315   4.981   4.993   9.822
16358WAT     H149316   4.889   5.004   9.859
16358WAT     H249317   5.048   5.036   9.883
16359WAT      O49318   9.405   6.766   2.105
16359WAT     H149319   9.368   6.799   2.192
16359WAT     H249320   9.502   6.788   2.101
16360WAT      O49321   2.633   7.083   8.047
16360WAT     H149322   2.730   7.072   8.068
16360WAT     H249323   2.591   6.994   8.033
16361WAT      O49324   7.477   8.452   7.182
16361WAT     H149325   7.467   8.497   7.271
16361WAT     H249326   7.402   8.387   7.170
16362WAT      O49327   3.150   7.423   9.314
16362WAT     H149328   3.196   7.334   9.307
16362WAT     H249329   3.191   7.487   9.250
16363WAT      O49330   6.906   6.727   1.825
16363WAT     H149331   6.848   6.702   1.902
16363WAT     H249332   6.911   6.827   1.818
16364WAT      O49333   3.353   3.234   9.722
16364WAT     H149334   3.377   3.252   9.627
16364WAT     H249335   3.282   3.299   9.751
16365WAT      O49336   1.239   2.711   0.059
16365WAT     H149337   1.272   2.788   0.113
16365WAT     H249338   1.305   2.690  -0.013
16366WAT      O49339   2.090   1.742   3.684
16366WAT     H149340   2.033   1.823   3.672
16366WAT     H249341   2.176   1.753   3.634
16367WAT      O49342   8.138   6.346   5.752
16367WAT     H149343   8.061   6.290   5.719
16367WAT     H249344   8.202   6.360   5.677
16368WAT      O49345   4.409   3.899   0.278
16368WAT     H149346   4.373   3.820   0.228
16368WAT     H249347   4.352   3.917   0.358
16369WAT      O49348   0.047   9.781   8.544
16369WAT     H149349   0.033   9.768   8.642
16369WAT     H249350   0.145   9.788   8.526
16370WAT      O49351   5.799   5.906   3.822
16370WAT     H149352   5.724   5.971   3.808
16370WAT     H249353   5.851   5.931   3.903
16371WAT      O49354   5.874   9.723   4.769
16371WAT     H149355   5.846   9.815   4.741
16371WAT     H249356   5.816   9.655   4.723
16372WAT      O49357   3.411   7.472   6.850
16372WAT     H149358   3.333   7.479   6.912
16372WAT     H249359   3.474   7.402   6.883
16373WAT      O49360   3.832   1.551   7.760
16373WAT     H149361   3.782   1.503   7.688
16373WAT     H249362   3.815   1.505   7.847
16374WAT      O49363   5.713   6.622   1.538
16374WAT     H149364   5.767   6.567   1.602
16374WAT     H249365   5.634   6.568   1.506
16375WAT      O49366   5.214   9.538   3.497
16375WAT     H149367   5.150   9.582   3.433
16375WAT     H249368   5.285   9.490   3.446
16376WAT      O49369   7.300   3.199   1.769
16376WAT     H149370   7.388   3.216   1.726
16376WAT     H249371   7.227   3.238   1.713
16377WAT      O49372   6.774   4.890   4.478
16377WAT     H149373   6.840   4.822   4.444
16377WAT     H249374   6.822   4.976   4.498
16378WAT      O49375   3.393   1.707   5.053
16378WAT     H149376   3.389   1.739   4.958
16378WAT     H249377   3.471   1.646   5.065
16379WAT      O49378   3.866   8.565   6.491
16379WAT     H149379   3.826   8.599   6.575
16379WAT     H249380   3.796   8.519   6.436
16380WAT      O49381   2.615   2.661   7.393
16380WAT     H149382   2.636   2.586   7.331
16380WAT     H249383   2.615   2.747   7.342
16381WAT      O49384   1.749   9.464   8.799
16381WAT     H149385   1.828   9.404   8.784
16381WAT     H249386   1.779   9.559   8.806
16382WAT      O49387   1.293   8.096   2.858
16382WAT     H149388   1.356   8.053   2.793
16382WAT     H249389   1.224   8.149   2.808
16383WAT      O49390   5.499   6.725   7.174
16383WAT     H149391   5.476   6.821   7.161
16383WAT     H249392   5.450   6.688   7.253
16384WAT      O49393   2.475   2.036   3.319
16384WAT     H149394   2.512   1.997   3.235
16384WAT     H249395   2.465   2.135   3.307
16385WAT      O49396   4.021   4.753   9.225
16385WAT     H149397   4.092   4.820   9.250
16385WAT     H249398   4.040   4.719   9.133
16386WAT      O49399   0.102   6.415   4.511
16386WAT     H149400   0.018   6.470   4.512
16386WAT     H249401   0.138   6.410   4.418
16387WAT      O49402   4.897   0.672   2.620
16387WAT     H149403   4.960   0.605   2.580
16387WAT     H249404   4.807   0.661   2.580
16388WAT      O49405   7.125   1.624   6.919
16388WAT     H149406   7.171   1.680   6.988
16388WAT     H249407   7.115   1.676   6.834
16389WAT      O49408   0.275   7.138   7.491
16389WAT     H149409   0.331   7.091   7.560
16389WAT     H249410   0.268   7.234   7.515
16390WAT      O49411   2.167   7.414   6.084
16390WAT     H149412   2.105   7.425   6.161
16390WAT     H249413   2.262   7.412   6.117
16391WAT      O49414   5.600   1.468   3.560
16391WAT     H149415   5.665   1.541   3.540
16391WAT     H249416   5.507   1.505   3.558
16392WAT      O49417   3.850   3.169   6.372
16392WAT     H149418   3.808   3.147   6.460
16392WAT     H249419   3.950   3.169   6.382
16393WAT      O49420   0.087   0.244   0.174
16393WAT     H149421   0.084   0.173   0.244
16393WAT     H249422   0.048   0.209   0.089
16394WAT      O49423   3.431   9.232   8.983
16394WAT     H149424   3.390   9.323   8.996
16394WAT     H249425   3.360   9.168   8.954
16395WAT      O49426   3.252   5.009   6.839
16395WAT     H149427   3.320   4.938   6.820
16395WAT     H249428   3.260   5.081   6.770
16396WAT      O49429   0.274   1.562   9.308
16396WAT     H149430   0.282   1.654   9.269
16396WAT     H249431   0.255   1.496   9.235
16397WAT      O49432   8.881   0.291   1.814
16397WAT     H149433   8.974   0.272   1.845
16397WAT     H249434   8.872   0.264   1.718
16398WAT      O49435   2.099   8.238   1.526
16398WAT     H149436   2.147   8.204   1.607
16398WAT     H249437   2.009   8.272   1.552
16399WAT      O49438   2.349   4.770   1.444
16399WAT     H149439   2.430   4.753   1.387
16399WAT     H249440   2.278   4.703   1.423
16400WAT      O49441   1.464   7.202   5.035
16400WAT     H149442   1.519   7.132   5.081
16400WAT     H249443   1.523   7.279   5.009
16401WAT      O49444   6.136   4.274   1.275
16401WAT     H149445   6.083   4.315   1.200
16401WAT     H249446   6.080   4.206   1.322
16402WAT      O49447   2.240   1.646   5.665
16402WAT     H149448   2.259   1.644   5.566
16402WAT     H249449   2.207   1.737   5.690
16403WAT      O49450   1.020   0.803   0.539
16403WAT     H149451   0.964   0.870   0.587
16403WAT     H249452   1.115   0.834   0.537
16404WAT      O49453   3.730   8.337   6.823
16404WAT     H149454   3.808   8.290   6.866
16404WAT     H249455   3.662   8.358   6.893
16405WAT      O49456   4.926   4.588   8.984
16405WAT     H149457   4.988   4.631   9.050
16405WAT     H249458   4.970   4.508   8.944
16406WAT      O49459   9.116   1.011   8.736
16406WAT     H149460   9.111   0.943   8.809
16406WAT     H249461   9.205   1.056   8.738
16407WAT      O49462   4.518   3.603   5.942
16407WAT     H149463   4.605   3.608   5.893
16407WAT     H249464   4.530   3.552   6.027
16408WAT      O49465   5.265   6.739   8.273
16408WAT     H149466   5.255   6.786   8.361
16408WAT     H249467   5.360   6.744   8.243
16409WAT      O49468   3.310   3.002   6.011
16409WAT     H149469   3.270   2.944   5.940
16409WAT     H249470   3.362   3.076   5.969
16410WAT      O49471   8.900   0.501   3.294
16410WAT     H149472   8.940   0.525   3.205
16410WAT     H249473   8.899   0.402   3.304
16411WAT      O49474   6.663   7.752   9.468
16411WAT     H149475   6.641   7.721   9.560
16411WAT     H249476   6.578   7.760   9.415
16412WAT      O49477   7.567   8.660   5.300
16412WAT     H149478   7.626   8.741   5.290
16412WAT     H249479   7.472   8.689   5.310
16413WAT      O49480   2.025   8.968   0.392
16413WAT     H149481   2.092   8.960   0.465
16413WAT     H249482   1.946   8.910   0.413
16414WAT      O49483   3.771   5.250   1.988
16414WAT     H149484   3.722   5.223   1.905
16414WAT     H249485   3.816   5.338   1.973
16415WAT      O49486   5.892   7.531   7.027
16415WAT     H149487   5.944   7.541   7.112
16415WAT     H249488   5.815   7.470   7.042
16416WAT      O49489   9.471   0.528   4.735
16416WAT     H149490   9.375   0.546   4.758
16416WAT     H249491   9.518   0.615   4.720
16417WAT      O49492   6.890   1.818   9.217
16417WAT     H149493   6.916   1.877   9.140
16417WAT     H249494   6.970   1.764   9.246
16418WAT      O49495   9.274   6.036   5.412
16418WAT     H149496   9.319   6.029   5.323
16418WAT     H249497   9.340   6.018   5.485
16419WAT      O49498   9.614   4.207   4.110
16419WAT     H149499   9.699   4.246   4.146
16419WAT     H249500   9.603   4.235   4.014
16420WAT      O49501   1.559   5.113   5.668
16420WAT     H149502   1.480   5.116   5.730
16420WAT     H249503   1.585   5.206   5.642
16421WAT      O49504   2.823   6.226   0.724
16421WAT     H149505   2.832   6.134   0.687
16421WAT     H249506   2.914   6.265   0.739
16422WAT      O49507   9.838   0.545   4.497
16422WAT     H149508   9.875   0.614   4.435
16422WAT     H249509   9.834   0.457   4.450
16423WAT      O49510   5.721   1.219   0.495
16423WAT     H149511   5.740   1.217   0.593
16423WAT     H249512   5.703   1.313   0.467
16424WAT      O49513   0.959   2.488   0.913
16424WAT     H149514   0.879   2.430   0.894
16424WAT     H249515   1.040   2.449   0.869
16425WAT      O49516   6.126   0.685   5.829
16425WAT     H149517   6.205   0.645   5.782
16425WAT     H249518   6.066   0.613   5.862
16426WAT      O49519   9.549   5.090   2.757
16426WAT     H149520   9.581   4.996   2.753
16426WAT     H249521   9.455   5.095   2.724
16427WAT      O49522   5.173   3.060   9.001
16427WAT     H149523   5.094   3.058   8.940
16427WAT     H249524   5.145   3.032   9.093
16428WAT      O49525   4.491   7.209   0.414
16428WAT     H149526   4.521   7.273   0.485
16428WAT     H249527   4.541   7.228   0.330
16429WAT      O49528   6.887   6.083   1.792
16429WAT     H149529   6.848   6.174   1.776
16429WAT     H249530   6.984   6.092   1.815
16430WAT      O49531   8.704   5.549   7.493
16430WAT     H149532   8.758   5.491   7.554
16430WAT     H249533   8.643   5.492   7.439
16431WAT      O49534   0.813   2.428   7.614
16431WAT     H149535   0.780   2.399   7.524
16431WAT     H249536   0.795   2.357   7.681
16432WAT      O49537   0.517   5.610   7.944
16432WAT     H149538   0.467   5.527   7.922
16432WAT     H249539   0.512   5.673   7.866
16433WAT      O49540   0.235   2.127   1.647
16433WAT     H149541   0.217   2.199   1.714
16433WAT     H249542   0.334   2.114   1.638
16434WAT      O49543   5.229   6.511   6.585
16434WAT     H149544   5.320   6.552   6.579
16434WAT     H249545   5.175   6.539   6.505
16435WAT      O49546   9.747   8.009   4.719
16435WAT     H149547   9.726   8.042   4.811
16435WAT     H249548   9.812   8.071   4.675
16436WAT      O49549   9.394   1.824   2.063
16436WAT     H149550   9.371   1.919   2.042
16436WAT     H249551   9.446   1.821   2.149
16437WAT      O49552   9.267   5.196   6.484
16437WAT     H149553   9.191   5.256   6.507
16437WAT     H249554   9.328   5.243   6.419
16438WAT      O49555   9.889   7.327   0.813
16438WAT     H149556   9.797   7.323   0.774
16438WAT     H249557   9.955   7.293   0.746
16439WAT      O49558   1.050   5.645   5.015
16439WAT     H149559   0.977   5.612   4.955
16439WAT     H249560   1.081   5.735   4.984
16440WAT      O49561   7.284   0.338   7.194
16440WAT     H149562   7.202   0.305   7.241
16440WAT     H249563   7.266   0.342   7.095
16441WAT      O49564   5.672   8.123   9.033
16441WAT     H149565   5.716   8.129   9.123
16441WAT     H249566   5.691   8.034   8.992
16442WAT      O49567   3.223   6.470   3.697
16442WAT     H149568   3.284   6.531   3.646
16442WAT     H249569   3.233   6.488   3.795
16443WAT      O49570   2.188   1.729   2.853
16443WAT     H149571   2.235   1.660   2.797
16443WAT     H249572   2.111   1.687   2.901
16444WAT      O49573   1.592   1.776   3.004
16444WAT     H149574   1.668   1.746   2.945
16444WAT     H249575   1.603   1.737   3.095
16445WAT      O49576   7.662   4.265   6.827
16445WAT     H149577   7.632   4.358   6.810
16445WAT     H249578   7.751   4.266   6.873
16446WAT      O49579   8.972   8.931   7.116
16446WAT     H149580   9.071   8.934   7.130
16446WAT     H249581   8.926   8.965   7.197
16447WAT      O49582   7.231   2.359   3.754
16447WAT     H149583   7.258   2.281   3.809
16447WAT     H249584   7.135   2.381   3.771
16448WAT      O49585   4.897   7.335   5.919
16448WAT     H149586   4.924   7.377   6.006
16448WAT     H249587   4.927   7.392   5.843
16449WAT      O49588   9.467   5.426   9.715
16449WAT     H149589   9.462   5.525   9.729
16449WAT     H249590   9.398   5.382   9.772
16450WAT      O49591   4.407   6.104   3.791
16450WAT     H149592   4.495   6.139   3.822
16450WAT     H249593   4.357   6.067   3.868
16451WAT      O49594   0.289   1.488   7.957
16451WAT     H149595   0.296   1.524   7.864
16451WAT     H249596   0.360   1.418   7.971
16452WAT      O49597   7.952   6.377   5.332
16452WAT     H149598   8.010   6.458   5.322
16452WAT     H249599   8.003   6.305   5.379
16453WAT      O49600   9.531   0.930   2.724
16453WAT     H149601   9.624   0.903   2.698
16453WAT     H249602   9.494   0.864   2.788
16454WAT      O49603   9.497   2.639   6.697
16454WAT     H149604   9.587   2.682   6.686
16454WAT     H249605   9.444   2.651   6.613
16455WAT      O49606   8.870   5.007   9.600
16455WAT     H149607   8.935   5.010   9.525
16455WAT     H249608   8.787   4.959   9.571
16456WAT      O49609   0.291   7.130   6.245
16456WAT     H149610   0.252   7.166   6.330
16456WAT     H249611   0.390   7.127   6.252
16457WAT      O49612   0.568   3.605   5.972
16457WAT     H149613   0.562   3.538   5.898
16457WAT     H249614   0.492   3.591   6.036
16458WAT      O49615   3.292   1.143   9.270
16458WAT     H149616   3.255   1.195   9.347
16458WAT     H249617   3.353   1.201   9.217
16459WAT      O49618   0.300   5.777   3.830
16459WAT     H149619   0.392   5.756   3.798
16459WAT     H249620   0.305   5.818   3.921
16460WAT      O49621   6.937   3.555   2.279
16460WAT     H149622   6.866   3.511   2.334
16460WAT     H249623   7.014   3.580   2.338
16461WAT      O49624   2.817   3.827   8.573
16461WAT     H149625   2.763   3.759   8.523
16461WAT     H249626   2.875   3.781   8.640
16462WAT      O49627   8.585   4.004   2.409
16462WAT     H149628   8.512   4.036   2.469
16462WAT     H249629   8.545   3.963   2.327
16463WAT      O49630   7.190   0.927   2.112
16463WAT     H149631   7.176   0.880   2.025
16463WAT     H249632   7.193   0.859   2.186
16464WAT      O49633   7.083   0.775   4.897
16464WAT     H149634   7.110   0.860   4.941
16464WAT     H249635   6.983   0.769   4.895
16465WAT      O49636   8.723   8.908   2.414
16465WAT     H149637   8.799   8.960   2.453
16465WAT     H249638   8.649   8.902   2.482
16466WAT      O49639   9.335   4.309   7.450
16466WAT     H149640   9.326   4.387   7.389
16466WAT     H249641   9.304   4.226   7.403
16467WAT      O49642   7.943   2.625   0.280
16467WAT     H149643   8.003   2.568   0.224
16467WAT     H249644   7.942   2.590   0.374
16468WAT      O49645   5.834   9.202   9.107
16468WAT     H149646   5.920   9.209   9.158
16468WAT     H249647   5.842   9.129   9.039
16469WAT      O49648   6.443   8.780   7.237
16469WAT     H149649   6.363   8.722   7.243
16469WAT     H249650   6.447   8.840   7.317
16470WAT      O49651   8.127   5.244   1.603
16470WAT     H149652   8.092   5.319   1.548
16470WAT     H249653   8.176   5.281   1.682
16471WAT      O49654   2.362   8.836   8.218
16471WAT     H149655   2.416   8.921   8.221
16471WAT     H249656   2.328   8.816   8.310
16472WAT      O49657   9.306   6.517   0.332
16472WAT     H149658   9.236   6.541   0.265
16472WAT     H249659   9.270   6.529   0.425
16473WAT      O49660   4.100   2.155   9.596
16473WAT     H149661   4.179   2.109   9.555
16473WAT     H249662   4.085   2.242   9.549
16474WAT      O49663   1.333   5.484   9.772
16474WAT     H149664   1.264   5.436   9.717
16474WAT     H249665   1.396   5.418   9.813
16475WAT      O49666   4.715   5.966   9.847
16475WAT     H149667   4.737   6.062   9.825
16475WAT     H249668   4.616   5.952   9.842
16476WAT      O49669   3.186   4.381   7.011
16476WAT     H149670   3.169   4.387   7.110
16476WAT     H249671   3.236   4.298   6.990
16477WAT      O49672   2.798   6.757   7.059
16477WAT     H149673   2.715   6.702   7.054
16477WAT     H249674   2.817   6.796   6.969
16478WAT      O49675   3.418   1.816   4.809
16478WAT     H149676   3.504   1.859   4.834
16478WAT     H249677   3.429   1.766   4.723
16479WAT      O49678   0.718   4.422   5.491
16479WAT     H149679   0.758   4.482   5.421
16479WAT     H249680   0.693   4.335   5.448
16480WAT      O49681   8.811   5.785   3.138
16480WAT     H149682   8.879   5.853   3.109
16480WAT     H249683   8.752   5.762   3.061
16481WAT      O49684   2.499   1.113   7.270
16481WAT     H149685   2.494   1.033   7.330
16481WAT     H249686   2.421   1.112   7.207
16482WAT      O49687   7.614   4.414   4.314
16482WAT     H149688   7.707   4.390   4.341
16482WAT     H249689   7.612   4.509   4.282
16483WAT      O49690   1.536   0.693   6.411
16483WAT     H149691   1.555   0.595   6.404
16483WAT     H249692   1.535   0.721   6.507
16484WAT      O49693   4.980   5.372   5.465
16484WAT     H149694   4.895   5.337   5.426
16484WAT     H249695   4.977   5.362   5.564
16485WAT      O49696   1.864   2.411   0.109
16485WAT     H149697   1.902   2.498   0.077
16485WAT     H249698   1.853   2.414   0.208
16486WAT      O49699   6.982   5.837   1.441
16486WAT     H149700   7.043   5.775   1.491
16486WAT     H249701   6.898   5.851   1.495
16487WAT      O49702   4.185   9.658   3.303
16487WAT     H149703   4.134   9.734   3.265
16487WAT     H249704   4.280   9.686   3.319
16488WAT      O49705   8.741   1.345   1.439
16488WAT     H149706   8.703   1.438   1.448
16488WAT     H249707   8.840   1.348   1.450
16489WAT      O49708   2.581   4.228   9.103
16489WAT     H149709   2.516   4.206   9.030
16489WAT     H249710   2.667   4.181   9.086
16490WAT      O49711   2.664   3.665   8.427
16490WAT     H149712   2.688   3.568   8.422
16490WAT     H249713   2.683   3.708   8.338
16491WAT      O49714   3.402   0.509   0.927
16491WAT     H149715   3.446   0.515   0.838
16491WAT     H249716   3.471   0.522   0.999
16492WAT      O49717   0.397   0.761   7.251
16492WAT     H149718   0.408   0.731   7.346
16492WAT     H249719   0.477   0.735   7.198
16493WAT      O49720   1.654   8.375   6.447
16493WAT     H149721   1.586   8.343   6.513
16493WAT     H249722   1.738   8.322   6.456
16494WAT      O49723   8.485   4.785   7.992
16494WAT     H149724   8.576   4.826   7.998
16494WAT     H249725   8.478   4.732   7.907
16495WAT      O49726   6.923   9.186   3.399
16495WAT     H149727   7.000   9.126   3.376
16495WAT     H249728   6.898   9.240   3.319
16496WAT      O49729   4.329   7.724   0.354
16496WAT     H149730   4.235   7.753   0.337
16496WAT     H249731   4.331   7.651   0.421
16497WAT      O49732   3.930   6.680   7.151
16497WAT     H149733   3.890   6.595   7.184
16497WAT     H249734   3.888   6.706   7.064
16498WAT      O49735   8.525   1.430   6.093
16498WAT     H149736   8.485   1.441   6.184
16498WAT     H249737   8.523   1.517   6.044
16499WAT      O49738   2.590   1.414   5.516
16499WAT     H149739   2.569   1.316   5.518
16499WAT     H249740   2.689   1.427   5.504
16500WAT      O49741   4.192   1.530   5.455
16500WAT     H149742   4.226   1.624   5.461
16500WAT     H249743   4.145   1.506   5.540
16501WAT      O49744   8.820   4.536   8.505
16501WAT     H149745   8.880   4.527   8.425
16501WAT     H249746   8.873   4.572   8.582
16502WAT      O49747   0.202   2.344   3.876
16502WAT     H149748   0.255   2.281   3.932
16502WAT     H249749   0.106   2.314   3.875
16503WAT      O49750   4.623   9.320   1.205
16503WAT     H149751   4.582   9.269   1.129
16503WAT     H249752   4.716   9.286   1.222
16504WAT      O49753   4.332   5.181   1.352
16504WAT     H149754   4.254   5.193   1.414
16504WAT     H249755   4.381   5.097   1.375
16505WAT      O49756   3.341   0.310   5.759
16505WAT     H149757   3.376   0.225   5.797
16505WAT     H249758   3.349   0.307   5.659
16506WAT      O49759   7.451   8.880   0.224
16506WAT     H149760   7.491   8.949   0.284
16506WAT     H249761   7.401   8.813   0.279
16507WAT      O49762   9.383   0.349   1.058
16507WAT     H149763   9.296   0.367   1.012
16507WAT     H249764   9.425   0.268   1.018
16508WAT      O49765   1.980   9.573   6.582
16508WAT     H149766   2.024   9.493   6.540
16508WAT     H249767   1.920   9.543   6.656
16509WAT      O49768   2.674   3.338   4.753
16509WAT     H149769   2.729   3.311   4.833
16509WAT     H249770   2.718   3.415   4.707
16510WAT      O49771   2.172   0.289   3.340
16510WAT     H149772   2.260   0.329   3.363
16510WAT     H249773   2.186   0.199   3.298
16511WAT      O49774   1.123   5.249   6.186
16511WAT     H149775   1.078   5.209   6.266
16511WAT     H249776   1.208   5.200   6.168
16512WAT      O49777   7.337   0.033   8.334
16512WAT     H149778   7.346  -0.024   8.252
16512WAT     H249779   7.244   0.068   8.341
16513WAT      O49780   4.193   9.080   6.797
16513WAT     H149781   4.137   9.038   6.868
16513WAT     H249782   4.160   9.053   6.707
16514WAT      O49783   4.148   6.342   9.336
16514WAT     H149784   4.056   6.379   9.326
16514WAT     H249785   4.143   6.254   9.384
16515WAT      O49786   6.608   1.666   1.272
16515WAT     H149787   6.700   1.654   1.309
16515WAT     H249788   6.562   1.739   1.322
16516WAT      O49789   8.637   4.042   8.844
16516WAT     H149790   8.544   4.005   8.852
16516WAT     H249791   8.649   4.082   8.753
16517WAT      O49792   3.347   6.647   2.095
16517WAT     H149793   3.331   6.650   2.193
16517WAT     H249794   3.280   6.704   2.048
16518WAT      O49795   3.469   6.282   2.055
16518WAT     H149796   3.492   6.186   2.040
16518WAT     H249797   3.421   6.317   1.974
16519WAT      O49798   6.066   7.130   9.133
16519WAT     H149799   6.117   7.055   9.090
16519WAT     H249800   6.033   7.101   9.223
16520WAT      O49801   5.291   0.764   9.536
16520WAT     H149802   5.207   0.723   9.500
16520WAT     H249803   5.370   0.712   9.505
16521WAT      O49804   4.374   5.690   3.704
16521WAT     H149805   4.415   5.681   3.795
16521WAT     H249806   4.372   5.787   3.678
16522WAT      O49807   6.682   3.457   7.712
16522WAT     H149808   6.701   3.367   7.674
16522WAT     H249809   6.759   3.518   7.695
16523WAT      O49810   4.191   6.308   6.294
16523WAT     H149811   4.119   6.309   6.225
16523WAT     H249812   4.153   6.332   6.383
16524WAT      O49813   9.299   0.382   3.248
16524WAT     H149814   9.249   0.301   3.277
16524WAT     H249815   9.272   0.407   3.155
16525WAT      O49816   0.944   9.232   4.630
16525WAT     H149817   0.915   9.205   4.721
16525WAT     H249818   1.002   9.313   4.635
16526WAT      O49819   3.814   6.311   0.424
16526WAT     H149820   3.730   6.275   0.466
16526WAT     H249821   3.794   6.399   0.380
16527WAT      O49822   6.269   6.843   5.352
16527WAT     H149823   6.178   6.862   5.317
16527WAT     H249824   6.268   6.847   5.452
16528WAT      O49825   0.371   4.609   4.166
16528WAT     H149826   0.388   4.546   4.241
16528WAT     H249827   0.432   4.587   4.089
16529WAT      O49828   7.477   2.536   0.917
16529WAT     H149829   7.525   2.513   1.002
16529WAT     H249830   7.387   2.493   0.916
16530WAT      O49831   0.802   1.064   7.741
16530WAT     H149832   0.895   1.057   7.705
16530WAT     H249833   0.770   0.973   7.769
16531WAT      O49834   2.201   7.695   7.148
16531WAT     H149835   2.237   7.721   7.058
16531WAT     H249836   2.236   7.605   7.173
16532WAT      O49837   1.708   8.851   6.707
16532WAT     H149838   1.787   8.816   6.757
16532WAT     H249839   1.688   8.944   6.739
16533WAT      O49840   0.165   1.314   1.355
16533WAT     H149841   0.139   1.260   1.435
16533WAT     H249842   0.090   1.377   1.331
16534WAT      O49843   8.088   4.575   3.497
16534WAT     H149844   8.100   4.575   3.596
16534WAT     H249845   8.045   4.489   3.469
16535WAT      O49846   0.288   5.135   2.289
16535WAT     H149847   0.204   5.138   2.234
16535WAT     H249848   0.265   5.106   2.382
16536WAT      O49849   8.933   7.402   0.943
16536WAT     H149850   8.887   7.384   1.030
16536WAT     H249851   8.934   7.319   0.887
16537WAT      O49852   0.280   9.100   3.310
16537WAT     H149853   0.225   9.019   3.333
16537WAT     H249854   0.339   9.123   3.387
16538WAT      O49855   4.936   1.208   6.305
16538WAT     H149856   4.883   1.277   6.256
16538WAT     H249857   4.881   1.171   6.380
16539WAT      O49858   9.542   9.196   1.555
16539WAT     H149859   9.450   9.224   1.531
16539WAT     H249860   9.565   9.228   1.647
16540WAT      O49861   6.571   8.507   1.185
16540WAT     H149862   6.615   8.526   1.273
16540WAT     H249863   6.479   8.546   1.185
16541WAT      O49864   2.981   2.400   3.462
16541WAT     H149865   3.056   2.464   3.444
16541WAT     H249866   2.933   2.379   3.376
16542WAT      O49867   1.683   7.260   7.940
16542WAT     H149868   1.764   7.318   7.928
16542WAT     H249869   1.681   7.189   7.869
16543WAT      O49870   1.315   6.176   0.077
16543WAT     H149871   1.355   6.251   0.130
16543WAT     H249872   1.345   6.088   0.115
16544WAT      O49873   7.138   6.599   0.098
16544WAT     H149874   7.085   6.559   0.022
16544WAT     H249875   7.098   6.688   0.122
16545WAT      O49876   0.175   5.528   1.313
16545WAT     H149877   0.239   5.523   1.236
16545WAT     H249878   0.207   5.595   1.380
16546WAT      O49879   7.841   4.314   7.036
16546WAT     H149880   7.767   4.381   7.044
16546WAT     H249881   7.857   4.271   7.125
16547WAT      O49882   4.050   6.304   4.667
16547WAT     H149883   4.031   6.399   4.642
16547WAT     H249884   3.970   6.263   4.711
16548WAT      O49885   3.124   2.457   2.941
16548WAT     H149886   3.190   2.420   3.006
16548WAT     H249887   3.111   2.391   2.866
16549WAT      O49888   5.923   1.639   9.890
16549WAT     H149889   5.966   1.595   9.811
16549WAT     H249890   5.824   1.627   9.886
16550WAT      O49891   0.704   0.819   6.122
16550WAT     H149892   0.764   0.774   6.056
16550WAT     H249893   0.670   0.752   6.188
16551WAT      O49894   0.721   3.371   3.336
16551WAT     H149895   0.797   3.314   3.367
16551WAT     H249896   0.645   3.313   3.308
16552WAT      O49897   2.673   0.557   4.188
16552WAT     H149898   2.738   0.583   4.259
16552WAT     H249899   2.711   0.579   4.098
16553WAT      O49900   7.845   0.288   8.779
16553WAT     H149901   7.825   0.347   8.700
16553WAT     H249902   7.807   0.197   8.763
16554WAT      O49903   5.733   8.571   9.649
16554WAT     H149904   5.800   8.640   9.675
16554WAT     H249905   5.763   8.481   9.682
16555WAT      O49906   5.266   2.091   3.133
16555WAT     H149907   5.254   2.016   3.198
16555WAT     H249908   5.351   2.077   3.081
16556WAT      O49909   2.783   2.419   4.148
16556WAT     H149910   2.866   2.386   4.101
16556WAT     H249911   2.800   2.423   4.246
16557WAT      O49912   3.006   3.242   3.923
16557WAT     H149913   2.982   3.147   3.904
16557WAT     H249914   3.086   3.245   3.983
16558WAT      O49915   8.578   4.829   2.516
16558WAT     H149916   8.629   4.744   2.520
16558WAT     H249917   8.610   4.890   2.589
16559WAT      O49918   5.565   5.661   0.411
16559WAT     H149919   5.632   5.597   0.449
16559WAT     H249920   5.505   5.693   0.485
16560WAT      O49921   5.587   1.237   2.816
16560WAT     H149922   5.499   1.191   2.820
16560WAT     H249923   5.628   1.237   2.907
16561WAT      O49924   0.514   5.787   7.718
16561WAT     H149925   0.475   5.874   7.688
16561WAT     H249926   0.612   5.787   7.700
16562WAT      O49927   0.198   5.521   2.474
16562WAT     H149928   0.174   5.585   2.401
16562WAT     H249929   0.297   5.506   2.474
16563WAT      O49930   3.460   8.937   9.355
16563WAT     H149931   3.526   8.930   9.281
16563WAT     H249932   3.497   8.895   9.437
16564WAT      O49933   7.349   9.635   1.364
16564WAT     H149934   7.251   9.653   1.356
16564WAT     H249935   7.385   9.678   1.446
16565WAT      O49936   7.153   9.781   4.671
16565WAT     H149937   7.170   9.726   4.753
16565WAT     H249938   7.095   9.859   4.694
16566WAT      O49939   8.830   9.230   7.072
16566WAT     H149940   8.737   9.194   7.086
16566WAT     H249941   8.875   9.178   6.999
16567WAT      O49942   2.859   4.203   7.703
16567WAT     H149943   2.938   4.254   7.737
16567WAT     H249944   2.847   4.121   7.758
16568WAT      O49945   8.856   3.990   6.858
16568WAT     H149946   8.891   4.020   6.769
16568WAT     H249947   8.807   3.903   6.847
16569WAT      O49948   9.822   5.997   8.126
16569WAT     H149949   9.888   6.055   8.078
16569WAT     H249950   9.740   6.050   8.147
16570WAT      O49951   0.502   9.410   3.645
16570WAT     H149952   0.599   9.433   3.646
16570WAT     H249953   0.466   9.412   3.738
16571WAT      O49954   5.143   2.168   5.832
16571WAT     H149955   5.229   2.117   5.826
16571WAT     H249956   5.159   2.263   5.806
16572WAT      O49957   2.215   1.914   6.343
16572WAT     H149958   2.146   1.848   6.374
16572WAT     H249959   2.235   1.978   6.418
16573WAT      O49960   9.821   6.216   3.866
16573WAT     H149961   9.851   6.282   3.934
16573WAT     H249962   9.889   6.211   3.792
16574WAT      O49963   3.914   8.531   1.458
16574WAT     H149964   3.884   8.626   1.471
16574WAT     H249965   3.869   8.492   1.378
16575WAT      O49966   9.688   5.842   4.052
16575WAT     H149967   9.614   5.782   4.082
16575WAT     H249968   9.658   5.898   3.975
16576WAT      O49969   8.221   4.048   5.715
16576WAT     H149970   8.262   4.086   5.798
16576WAT     H249971   8.203   4.121   5.650
16577WAT      O49972   3.082   9.787   5.143
16577WAT     H149973   3.105   9.814   5.050
16577WAT     H249974   3.098   9.689   5.155
16578WAT      O49975   0.172   7.597   5.690
16578WAT     H149976   0.195   7.531   5.761
16578WAT     H249977   0.195   7.689   5.721
16579WAT      O49978   8.656   8.942   8.628
16579WAT     H149979   8.618   8.849   8.632
16579WAT     H249980   8.740   8.945   8.682
16580WAT      O49981   7.635   4.890   9.878
16580WAT     H149982   7.650   4.793   9.861
16580WAT     H249983   7.724   4.935   9.889
16581WAT      O49984   1.760   6.259   6.608
16581WAT     H149985   1.675   6.208   6.592
16581WAT     H249986   1.822   6.204   6.662
16582WAT      O49987   2.888   1.275   2.340
16582WAT     H149988   2.791   1.287   2.317
16582WAT     H249989   2.905   1.306   2.433
16583WAT      O49990   2.589   6.648   1.550
16583WAT     H149991   2.574   6.746   1.536
16583WAT     H249992   2.594   6.602   1.462
16584WAT      O49993   9.295   3.450   9.759
16584WAT     H149994   9.222   3.507   9.797
16584WAT     H249995   9.274   3.429   9.663
16585WAT      O49996   8.295   1.971   4.077
16585WAT     H149997   8.205   1.978   4.035
16585WAT     H249998   8.286   1.958   4.175
16586WAT      O49999   2.256   8.010   7.147
16586WAT     H150000   2.304   8.072   7.085
16586WAT     H250001   2.249   7.920   7.105
16587WAT      O50002   8.057   2.531   7.514
16587WAT     H150003   8.143   2.551   7.561
16587WAT     H250004   7.997   2.611   7.517
16588WAT      O50005   5.292   0.930   3.976
16588WAT     H150006   5.340   0.905   3.891
16588WAT     H250007   5.237   1.011   3.960
16589WAT      O50008   0.637   3.231   5.185
16589WAT     H150009   0.734   3.204   5.182
16589WAT     H250010   0.620   3.280   5.271
16590WAT      O50011   0.556   0.507   5.274
16590WAT     H150012   0.643   0.484   5.232
16590WAT     H250013   0.544   0.606   5.276
16591WAT      O50014   1.182   8.854   9.236
16591WAT     H150015   1.240   8.935   9.243
16591WAT     H250016   1.126   8.845   9.318
16592WAT      O50017   1.675   6.292   1.078
16592WAT     H150018   1.638   6.317   0.989
16592WAT     H250019   1.635   6.204   1.107
16593WAT      O50020   6.839   1.070   4.238
16593WAT     H150021   6.903   1.008   4.284
16593WAT     H250022   6.877   1.163   4.239
16594WAT      O50023   4.165   8.222   2.551
16594WAT     H150024   4.253   8.267   2.535
16594WAT     H250025   4.169   8.128   2.519
16595WAT      O50026   4.057   3.719   0.601
16595WAT     H150027   3.977   3.691   0.653
16595WAT     H250028   4.071   3.657   0.524
16596WAT      O50029   4.040   6.840   3.842
16596WAT     H150030   4.129   6.879   3.864
16596WAT     H250031   4.022   6.762   3.901
16597WAT      O50032   5.642   1.405   6.255
16597WAT     H150033   5.577   1.395   6.331
16597WAT     H250034   5.712   1.472   6.280
16598WAT      O50035   5.053   2.282   0.988
16598WAT     H150036   4.981   2.351   0.984
16598WAT     H250037   5.023   2.198   0.943
16599WAT      O50038   0.448   4.044   1.440
16599WAT     H150039   0.483   4.071   1.350
16599WAT     H250040   0.349   4.057   1.443
16600WAT      O50041   5.367   9.841   9.512
16600WAT     H150042   5.338   9.874   9.602
16600WAT     H250043   5.314   9.760   9.488
16601WAT      O50044   9.197   1.131   0.408
16601WAT     H150045   9.256   1.102   0.483
16601WAT     H250046   9.171   1.052   0.354
16602WAT      O50047   5.732   7.354   0.941
16602WAT     H150048   5.633   7.349   0.957
16602WAT     H250049   5.773   7.265   0.962
16603WAT      O50050   7.066   1.776   3.162
16603WAT     H150051   7.113   1.735   3.240
16603WAT     H250052   7.076   1.876   3.166
16604WAT      O50053   6.280   7.678   9.606
16604WAT     H150054   6.235   7.736   9.674
16604WAT     H250055   6.260   7.582   9.625
16605WAT      O50056   8.063   7.200   9.300
16605WAT     H150057   7.999   7.227   9.227
16605WAT     H250058   8.011   7.173   9.381
16606WAT      O50059   5.446   7.734   7.064
16606WAT     H150060   5.530   7.750   7.115
16606WAT     H250061   5.392   7.662   7.108
16607WAT      O50062   6.985   7.397   6.928
16607WAT     H150063   7.027   7.482   6.897
16607WAT     H250064   6.939   7.352   6.851
16608WAT      O50065   0.475   2.436   3.136
16608WAT     H150066   0.468   2.343   3.170
16608WAT     H250067   0.385   2.478   3.134
16609WAT      O50068   6.855   8.094   3.191
16609WAT     H150069   6.855   8.174   3.252
16609WAT     H250070   6.912   8.114   3.111
16610WAT      O50071   1.098   8.647   3.876
16610WAT     H150072   1.078   8.592   3.795
16610WAT     H250073   1.181   8.612   3.920
16611WAT      O50074   4.120   7.476   5.889
16611WAT     H150075   4.072   7.400   5.932
16611WAT     H250076   4.097   7.479   5.792
16612WAT      O50077   6.208   6.775   8.716
16612WAT     H150078   6.173   6.752   8.807
16612WAT     H250079   6.154   6.850   8.677
16613WAT      O50080   6.464   6.428   2.697
16613WAT     H150081   6.468   6.329   2.703
16613WAT     H250082   6.372   6.459   2.722
16614WAT      O50083   9.008   7.280   6.317
16614WAT     H150084   9.096   7.290   6.270
16614WAT     H250085   8.993   7.184   6.340
16615WAT      O50086   7.501   4.163   6.615
16615WAT     H150087   7.563   4.181   6.691
16615WAT     H250088   7.553   4.163   6.529
16616WAT      O50089   5.269   6.534   2.430
16616WAT     H150090   5.173   6.564   2.435
16616WAT     H250091   5.310   6.539   2.521
16617WAT      O50092   0.142   6.533   3.308
16617WAT     H150093   0.148   6.434   3.296
16617WAT     H250094   0.170   6.579   3.224
16618WAT      O50095   1.862   5.141   5.031
16618WAT     H150096   1.830   5.230   5.002
16618WAT     H250097   1.947   5.118   4.984
16619WAT      O50098   9.309   8.722   7.568
16619WAT     H150099   9.340   8.793   7.504
16619WAT     H250100   9.382   8.655   7.581
16620WAT      O50101   2.407   3.042   7.220
16620WAT     H150102   2.311   3.033   7.191
16620WAT     H250103   2.455   3.103   7.157
16621WAT      O50104   9.366   1.872   4.230
16621WAT     H150105   9.375   1.899   4.326
16621WAT     H250106   9.271   1.850   4.211
16622WAT      O50107   9.059   3.466   8.059
16622WAT     H150108   9.067   3.557   8.100
16622WAT     H250109   8.990   3.469   7.986
16623WAT      O50110   7.010   4.828   0.081
16623WAT     H150111   7.069   4.847   0.159
16623WAT     H250112   7.066   4.818  -0.002
16624WAT      O50113   1.036   6.945   0.094
16624WAT     H150114   0.950   6.954   0.044
16624WAT     H250115   1.092   6.874   0.052
16625WAT      O50116   4.936   5.826   0.655
16625WAT     H150117   4.876   5.851   0.579
16625WAT     H250118   5.012   5.891   0.659
16626WAT      O50119   6.952   1.149   8.967
16626WAT     H150120   6.935   1.154   9.066
16626WAT     H250121   7.048   1.123   8.951
16627WAT      O50122   9.323   6.139   1.425
16627WAT     H150123   9.406   6.083   1.417
16627WAT     H250124   9.265   6.122   1.345
16628WAT      O50125   7.391   7.358   2.408
16628WAT     H150126   7.384   7.299   2.328
16628WAT     H250127   7.321   7.332   2.475
16629WAT      O50128   6.325   1.835   9.014
16629WAT     H150129   6.344   1.929   9.041
16629WAT     H250130   6.385   1.809   8.938
16630WAT      O50131   0.353   8.707   1.206
16630WAT     H150132   0.376   8.790   1.256
16630WAT     H250133   0.408   8.702   1.123
16631WAT      O50134   6.853   2.010   7.517
16631WAT     H150135   6.911   1.959   7.454
16631WAT     H250136   6.825   1.951   7.592
16632WAT      O50137   6.224   2.492   4.479
16632WAT     H150138   6.310   2.474   4.527
16632WAT     H250139   6.170   2.558   4.532
16633WAT      O50140   3.653   0.727   3.214
16633WAT     H150141   3.626   0.720   3.310
16633WAT     H250142   3.742   0.773   3.207
16634WAT      O50143   7.515   9.088   5.001
16634WAT     H150144   7.469   9.052   5.082
16634WAT     H250145   7.447   9.106   4.930
16635WAT      O50146   4.887   1.811   3.975
16635WAT     H150147   4.975   1.798   4.021
16635WAT     H250148   4.850   1.722   3.948
16636WAT      O50149   4.412   1.286   9.128
16636WAT     H150150   4.384   1.347   9.202
16636WAT     H250151   4.438   1.197   9.165
16637WAT      O50152   7.206   2.937   5.335
16637WAT     H150153   7.110   2.938   5.363
16637WAT     H250154   7.224   3.012   5.272
16638WAT      O50155   3.709   6.358   7.703
16638WAT     H150156   3.617   6.320   7.691
16638WAT     H250157   3.746   6.330   7.791
16639WAT      O50158   8.457   8.748   2.834
16639WAT     H150159   8.437   8.690   2.913
16639WAT     H250160   8.371   8.787   2.799
16640WAT      O50161   5.908   0.793   5.638
16640WAT     H150162   5.982   0.749   5.688
16640WAT     H250163   5.941   0.877   5.595
16641WAT      O50164   5.453   7.091   2.921
16641WAT     H150165   5.507   7.099   3.005
16641WAT     H250166   5.457   6.997   2.888
16642WAT      O50167   2.912   1.723   9.638
16642WAT     H150168   2.848   1.660   9.595
16642WAT     H250169   2.896   1.725   9.737
16643WAT      O50170   5.872   4.843   7.256
16643WAT     H150171   5.854   4.771   7.190
16643WAT     H250172   5.827   4.822   7.342
16644WAT      O50173   8.968   0.805   6.715
16644WAT     H150174   9.059   0.844   6.729
16644WAT     H250175   8.939   0.822   6.621
16645WAT      O50176   5.092   0.990   2.714
16645WAT     H150177   5.044   0.914   2.759
16645WAT     H250178   5.118   0.962   2.622
16646WAT      O50179   8.718   5.593   3.557
16646WAT     H150180   8.661   5.619   3.635
16646WAT     H250181   8.666   5.602   3.472
16647WAT      O50182   5.051   7.869   0.104
16647WAT     H150183   5.042   7.918   0.191
16647WAT     H250184   4.964   7.873   0.055
16648WAT      O50185   8.228   5.270   2.084
16648WAT     H150186   8.296   5.319   2.138
16648WAT     H250187   8.245   5.172   2.089
16649WAT      O50188   8.446   0.116   1.653
16649WAT     H150189   8.417   0.057   1.578
16649WAT     H250190   8.422   0.211   1.632
16650WAT      O50191   5.282   6.341   7.892
16650WAT     H150192   5.255   6.382   7.979
16650WAT     H250193   5.304   6.413   7.826
16651WAT      O50194   5.904   3.923   4.952
16651WAT     H150195   5.808   3.921   4.981
16651WAT     H250196   5.917   3.864   4.873
16652WAT      O50197   4.182   7.175   8.953
16652WAT     H150198   4.208   7.234   8.877
16652WAT     H250199   4.091   7.137   8.936
16653WAT      O50200   7.953   2.471   6.723
16653WAT     H150201   8.041   2.481   6.769
16653WAT     H250202   7.957   2.394   6.660
16654WAT      O50203   4.701   8.072   9.823
16654WAT     H150204   4.759   8.051   9.745
16654WAT     H250205   4.727   8.014   9.900
16655WAT      O50206   1.089   6.999   7.769
16655WAT     H150207   1.083   6.914   7.821
16655WAT     H250208   1.183   7.012   7.737
16656WAT      O50209   8.390   6.028   6.807
16656WAT     H150210   8.438   6.045   6.721
16656WAT     H250211   8.441   5.961   6.861
16657WAT      O50212   2.417   1.302   0.825
16657WAT     H150213   2.443   1.229   0.889
16657WAT     H250214   2.324   1.286   0.792
16658WAT      O50215   6.359   8.390   2.760
16658WAT     H150216   6.288   8.323   2.737
16658WAT     H250217   6.432   8.385   2.692
16659WAT      O50218   7.212   7.722   3.259
16659WAT     H150219   7.242   7.727   3.164
16659WAT     H250220   7.249   7.800   3.309
16660WAT      O50221   1.755   3.235   3.417
16660WAT     H150222   1.819   3.256   3.344
16660WAT     H250223   1.672   3.289   3.406
16661WAT      O50224   0.603   6.615   1.709
16661WAT     H150225   0.692   6.577   1.736
16661WAT     H250226   0.616   6.687   1.642
16662WAT      O50227   4.791   5.766   1.277
16662WAT     H150228   4.703   5.783   1.233
16662WAT     H250229   4.829   5.852   1.310
16663WAT      O50230   4.365   0.665   8.058
16663WAT     H150231   4.445   0.638   8.112
16663WAT     H250232   4.340   0.591   7.996
16664WAT      O50233   5.333   7.384   2.656
16664WAT     H150234   5.396   7.445   2.607
16664WAT     H250235   5.375   7.294   2.666
16665WAT      O50236   9.649   9.786   6.132
16665WAT     H150237   9.570   9.844   6.111
16665WAT     H250238   9.635   9.741   6.220
16666WAT      O50239   2.409   4.326   1.671
16666WAT     H150240   2.415   4.382   1.754
16666WAT     H250241   2.336   4.362   1.612
16667WAT      O50242   4.794   5.250   9.574
16667WAT     H150243   4.720   5.193   9.610
16667WAT     H250244   4.863   5.264   9.645
16668WAT      O50245   5.020   6.156   3.071
16668WAT     H150246   4.984   6.094   3.001
16668WAT     H250247   5.120   6.147   3.076
16669WAT      O50248   8.499   4.846   7.603
16669WAT     H150249   8.548   4.779   7.660
16669WAT     H250250   8.475   4.803   7.515
16670WAT      O50251   3.015   0.888   2.582
16670WAT     H150252   3.011   0.951   2.504
16670WAT     H250253   3.019   0.794   2.549
16671WAT      O50254   9.811   5.822   3.317
16671WAT     H150255   9.816   5.921   3.310
16671WAT     H250256   9.862   5.780   3.241
16672WAT      O50257   7.110   7.368   9.693
16672WAT     H150258   7.183   7.301   9.702
16672WAT     H250259   7.122   7.440   9.761
16673WAT      O50260   4.432   5.583   5.129
16673WAT     H150261   4.358   5.521   5.101
16673WAT     H250262   4.476   5.621   5.048
16674WAT      O50263   8.228   2.392   2.461
16674WAT     H150264   8.266   2.477   2.497
16674WAT     H250265   8.245   2.388   2.362
16675WAT      O50266   4.001   9.351   4.688
16675WAT     H150267   4.044   9.271   4.647
16675WAT     H250268   3.913   9.369   4.643
16676WAT      O50269   6.296   9.647   3.924
16676WAT     H150270   6.218   9.586   3.940
16676WAT     H250271   6.273   9.739   3.956
16677WAT      O50272   5.638   1.457   1.403
16677WAT     H150273   5.577   1.401   1.459
16677WAT     H250274   5.680   1.400   1.333
16678WAT      O50275   8.271   2.491   8.758
16678WAT     H150276   8.225   2.463   8.842
16678WAT     H250277   8.209   2.479   8.680
16679WAT      O50278   3.432   2.213   6.233
16679WAT     H150279   3.449   2.204   6.135
16679WAT     H250280   3.356   2.153   6.259
16680WAT      O50281   1.464   8.352   3.972
16680WAT     H150282   1.473   8.312   4.063
16680WAT     H250283   1.546   8.406   3.952
16681WAT      O50284   6.293   3.771   0.563
16681WAT     H150285   6.194   3.769   0.573
16681WAT     H250286   6.317   3.777   0.466
16682WAT      O50287   7.562   2.389   9.329
16682WAT     H150288   7.583   2.466   9.389
16682WAT     H250289   7.638   2.376   9.264
16683WAT      O50290   2.189   5.864   3.536
16683WAT     H150291   2.104   5.893   3.491
16683WAT     H250292   2.183   5.883   3.634
16684WAT      O50293   3.099   0.765   8.102
16684WAT     H150294   3.119   0.863   8.098
16684WAT     H250295   3.177   0.714   8.067
16685WAT      O50296   3.674   4.441   3.853
16685WAT     H150297   3.727   4.525   3.846
16685WAT     H250298   3.581   4.463   3.882
16686WAT      O50299   3.919   2.341   1.958
16686WAT     H150300   3.866   2.379   2.034
16686WAT     H250301   3.895   2.389   1.873
16687WAT      O50302   0.472   0.078   0.021
16687WAT     H150303   0.400   0.055  -0.044
16687WAT     H250304   0.538   0.140  -0.022
16688WAT      O50305   3.227   4.911   0.046
16688WAT     H150306   3.279   4.825   0.040
16688WAT     H250307   3.130   4.893   0.030
16689WAT      O50308   3.036   0.207   0.079
16689WAT     H150309   3.014   0.165   0.167
16689WAT     H250310   2.975   0.285   0.064
16690WAT      O50311   5.797   9.760   3.651
16690WAT     H150312   5.770   9.833   3.589
16690WAT     H250313   5.716   9.705   3.674
16691WAT      O50314   6.940   3.190   2.544
16691WAT     H150315   6.955   3.238   2.457
16691WAT     H250316   6.854   3.219   2.584
16692WAT      O50317   4.956   7.672   3.660
16692WAT     H150318   5.007   7.591   3.629
16692WAT     H250319   4.975   7.688   3.757
16693WAT      O50320   7.647   8.626   2.809
16693WAT     H150321   7.574   8.694   2.794
16693WAT     H250322   7.725   8.649   2.751
16694WAT      O50323   4.767   2.223   8.153
16694WAT     H150324   4.782   2.137   8.104
16694WAT     H250325   4.691   2.273   8.112
16695WAT      O50326   5.109   7.094   6.563
16695WAT     H150327   5.154   7.025   6.506
16695WAT     H250328   5.123   7.184   6.523
16696WAT      O50329   7.620   5.531   8.806
16696WAT     H150330   7.536   5.507   8.758
16696WAT     H250331   7.627   5.631   8.814
16697WAT      O50332   0.439   8.089   6.916
16697WAT     H150333   0.483   8.058   7.000
16697WAT     H250334   0.494   8.161   6.874
16698WAT      O50335   2.796   1.726   5.942
16698WAT     H150336   2.877   1.775   5.975
16698WAT     H250337   2.714   1.770   5.976
16699WAT      O50338   6.325   2.184   2.488
16699WAT     H150339   6.420   2.187   2.457
16699WAT     H250340   6.292   2.089   2.485
16700WAT      O50341   8.284   6.550   1.126
16700WAT     H150342   8.298   6.643   1.160
16700WAT     H250343   8.293   6.485   1.201
16701WAT      O50344   9.025   7.295   6.674
16701WAT     H150345   9.054   7.377   6.724
16701WAT     H250346   9.101   7.261   6.618
16702WAT      O50347   2.333   5.586   6.928
16702WAT     H150348   2.252   5.531   6.911
16702WAT     H250349   2.396   5.578   6.851
16703WAT      O50350   0.970   2.667   6.277
16703WAT     H150351   0.986   2.763   6.300
16703WAT     H250352   1.007   2.649   6.186
16704WAT      O50353   0.639   0.125   7.151
16704WAT     H150354   0.593   0.065   7.217
16704WAT     H250355   0.601   0.217   7.157
16705WAT      O50356   6.582   9.303   8.791
16705WAT     H150357   6.580   9.227   8.857
16705WAT     H250358   6.572   9.266   8.698
16706WAT      O50359   6.884   8.088   7.001
16706WAT     H150360   6.976   8.063   7.032
16706WAT     H250361   6.854   8.024   6.931
16707WAT      O50362   1.064   9.537   7.585
16707WAT     H150363   1.066   9.569   7.491
16707WAT     H250364   1.065   9.615   7.648
16708WAT      O50365   0.487   4.386   9.237
16708WAT     H150366   0.464   4.306   9.182
16708WAT     H250367   0.481   4.468   9.180
16709WAT      O50368   5.607   0.932   6.310
16709WAT     H150369   5.681   0.997   6.326
16709WAT     H250370   5.645   0.846   6.276
16710WAT      O50371   0.239   7.112   5.283
16710WAT     H150372   0.251   7.090   5.186
16710WAT     H250373   0.326   7.103   5.331
16711WAT      O50374   3.983   6.320   3.933
16711WAT     H150375   3.887   6.296   3.944
16711WAT     H250376   4.010   6.309   3.837
16712WAT      O50377   1.092   7.368   2.167
16712WAT     H150378   1.124   7.402   2.255
16712WAT     H250379   1.164   7.378   2.099
16713WAT      O50380   4.699   5.651   5.459
16713WAT     H150381   4.720   5.730   5.516
16713WAT     H250382   4.780   5.626   5.406
16714WAT      O50383   9.081   7.433   3.961
16714WAT     H150384   9.015   7.358   3.950
16714WAT     H250385   9.172   7.394   3.976
16715WAT      O50386   3.608   5.256   5.958
16715WAT     H150387   3.616   5.171   5.906
16715WAT     H250388   3.700   5.288   5.982
16716WAT      O50389   8.166   7.169   0.042
16716WAT     H150390   8.155   7.120  -0.045
16716WAT     H250391   8.258   7.150   0.079
16717WAT      O50392   2.448   0.393   3.064
16717WAT     H150393   2.383   0.466   3.083
16717WAT     H250394   2.498   0.413   2.980
16718WAT      O50395   4.705   4.675   8.605
16718WAT     H150396   4.716   4.613   8.527
16718WAT     H250397   4.661   4.760   8.574
16719WAT      O50398   9.556   6.761   0.497
16719WAT     H150399   9.617   6.693   0.537
16719WAT     H250400   9.603   6.807   0.421
16720WAT      O50401   4.533   4.988   8.791
16720WAT     H150402   4.465   4.925   8.754
16720WAT     H250403   4.525   4.991   8.891
16721WAT      O50404   7.003   5.352   2.677
16721WAT     H150405   7.001   5.258   2.712
16721WAT     H250406   6.946   5.359   2.596
16722WAT      O50407   5.399   5.373   4.782
16722WAT     H150408   5.465   5.373   4.707
16722WAT     H250409   5.448   5.378   4.869
16723WAT      O50410   0.297   5.837   6.805
16723WAT     H150411   0.216   5.884   6.840
16723WAT     H250412   0.377   5.896   6.815
16724WAT      O50413   8.063   1.894   5.052
16724WAT     H150414   8.020   1.809   5.084
16724WAT     H250415   8.005   1.936   4.982
16725WAT      O50416   6.858   6.961   4.978
16725WAT     H150417   6.786   7.012   4.931
16725WAT     H250418   6.925   7.026   5.015
16726WAT      O50419   1.925   7.289   2.219
16726WAT     H150420   1.923   7.385   2.246
16726WAT     H250421   1.914   7.281   2.120
16727WAT      O50422   8.499   9.724   3.973
16727WAT     H150423   8.524   9.780   4.052
16727WAT     H250424   8.576   9.721   3.909
16728WAT      O50425   7.841   7.726   6.424
16728WAT     H150426   7.911   7.793   6.450
16728WAT     H250427   7.884   7.636   6.413
16729WAT      O50428   6.130   2.994   8.611
16729WAT     H150429   6.118   3.062   8.684
16729WAT     H250430   6.052   2.931   8.611
16730WAT      O50431   5.518   6.244   7.025
16730WAT     H150432   5.436   6.204   6.983
16730WAT     H250433   5.599   6.201   6.987
16731WAT      O50434   9.174   9.070   4.361
16731WAT     H150435   9.096   9.017   4.397
16731WAT     H250436   9.155   9.168   4.371
16732WAT      O50437   3.104   7.527   3.376
16732WAT     H150438   3.105   7.613   3.325
16732WAT     H250439   3.117   7.450   3.312
16733WAT      O50440   1.237   0.285   3.354
16733WAT     H150441   1.213   0.294   3.451
16733WAT     H250442   1.333   0.256   3.346
16734WAT      O50443   1.822   1.989   9.344
16734WAT     H150444   1.836   1.892   9.362
16734WAT     H250445   1.883   2.044   9.402
16735WAT      O50446   4.257   8.437   8.557
16735WAT     H150447   4.265   8.338   8.569
16735WAT     H250448   4.161   8.463   8.557
16736WAT      O50449   8.233   1.174   3.715
16736WAT     H150450   8.239   1.272   3.735
16736WAT     H250451   8.220   1.123   3.800
16737WAT      O50452   2.436   2.503   6.381
16737WAT     H150453   2.352   2.544   6.347
16737WAT     H250454   2.489   2.467   6.304
16738WAT      O50455   5.890   2.344   5.929
16738WAT     H150456   5.832   2.402   5.987
16738WAT     H250457   5.857   2.349   5.835
16739WAT      O50458   9.484   7.442   8.355
16739WAT     H150459   9.516   7.424   8.262
16739WAT     H250460   9.402   7.499   8.352
16740WAT      O50461   5.109   1.470   4.948
16740WAT     H150462   5.020   1.448   4.909
16740WAT     H250463   5.181   1.436   4.888
16741WAT      O50464   4.514   5.330   6.221
16741WAT     H150465   4.568   5.385   6.285
16741WAT     H250466   4.531   5.233   6.238
16742WAT      O50467   3.016   7.671   1.891
16742WAT     H150468   3.004   7.637   1.984
16742WAT     H250469   3.087   7.618   1.845
16743WAT      O50470   2.880   4.665   6.419
16743WAT     H150471   2.961   4.724   6.421
16743WAT     H250472   2.887   4.601   6.342
16744WAT      O50473   2.804   0.948   1.661
16744WAT     H150474   2.788   0.998   1.746
16744WAT     H250475   2.717   0.939   1.612
16745WAT      O50476   7.097   7.523   4.845
16745WAT     H150477   7.038   7.559   4.917
16745WAT     H250478   7.075   7.427   4.828
16746WAT      O50479   6.668   6.257   1.241
16746WAT     H150480   6.672   6.160   1.267
16746WAT     H250481   6.748   6.279   1.185
16747WAT      O50482   9.476   8.644   7.141
16747WAT     H150483   9.557   8.651   7.082
16747WAT     H250484   9.504   8.610   7.231
16748WAT      O50485   6.009   0.668   5.249
16748WAT     H150486   5.921   0.696   5.287
16748WAT     H250487   6.082   0.685   5.316
16749WAT      O50488   2.529   3.204   2.030
16749WAT     H150489   2.593   3.167   2.097
16749WAT     H250490   2.443   3.153   2.034
16750WAT      O50491   8.483   2.479   4.154
16750WAT     H150492   8.432   2.530   4.084
16750WAT     H250493   8.460   2.382   4.148
16751WAT      O50494   5.536   4.674   8.616
16751WAT     H150495   5.480   4.592   8.611
16751WAT     H250496   5.547   4.712   8.524
16752WAT      O50497   6.872   3.675   5.003
16752WAT     H150498   6.833   3.622   4.928
16752WAT     H250499   6.970   3.655   5.011
16753WAT      O50500   4.035   0.084   5.338
16753WAT     H150501   4.051   0.007   5.275
16753WAT     H250502   4.081   0.067   5.425
16754WAT      O50503   2.107   2.480   9.544
16754WAT     H150504   2.019   2.440   9.570
16754WAT     H250505   2.181   2.422   9.578
16755WAT      O50506   6.656   4.439   1.865
16755WAT     H150507   6.634   4.443   1.963
16755WAT     H250508   6.647   4.345   1.833
16756WAT      O50509   3.159   5.530   0.543
16756WAT     H150510   3.198   5.508   0.633
16756WAT     H250511   3.156   5.448   0.487
16757WAT      O50512   2.938   3.857   4.483
16757WAT     H150513   2.897   3.943   4.511
16757WAT     H250514   2.929   3.790   4.558
16758WAT      O50515   2.580   0.292   4.178
16758WAT     H150516   2.608   0.237   4.099
16758WAT     H250517   2.609   0.387   4.165
16759WAT      O50518   0.326   7.349   8.733
16759WAT     H150519   0.292   7.268   8.781
16759WAT     H250520   0.264   7.373   8.659
16760WAT      O50521   9.038   8.721   7.417
16760WAT     H150522   9.095   8.747   7.339
16760WAT     H250523   9.095   8.704   7.497
16761WAT      O50524   7.238   2.676   1.535
16761WAT     H150525   7.298   2.723   1.599
16761WAT     H250526   7.151   2.657   1.579
16762WAT      O50527   6.034   5.773   8.064
16762WAT     H150528   6.091   5.775   7.982
16762WAT     H250529   6.012   5.678   8.087
16763WAT      O50530   6.636   2.903   0.951
16763WAT     H150531   6.563   2.940   1.008
16763WAT     H250532   6.654   2.808   0.977
16764WAT      O50533   1.540   7.222   2.613
16764WAT     H150534   1.441   7.213   2.607
16764WAT     H250535   1.583   7.184   2.531
16765WAT      O50536   5.096   3.191   6.116
16765WAT     H150537   5.060   3.099   6.129
16765WAT     H250538   5.137   3.199   6.026
16766WAT      O50539   8.155   1.360   2.475
16766WAT     H150540   8.178   1.386   2.569
16766WAT     H250541   8.092   1.427   2.436
16767WAT      O50542   3.190   1.723   9.557
16767WAT     H150543   3.176   1.732   9.458
16767WAT     H250544   3.102   1.709   9.602
16768WAT      O50545   2.450   7.668   4.617
16768WAT     H150546   2.395   7.636   4.694
16768WAT     H250547   2.544   7.682   4.647
16769WAT      O50548   7.181   4.478   7.884
16769WAT     H150549   7.089   4.452   7.915
16769WAT     H250550   7.247   4.412   7.920
16770WAT      O50551   0.681   0.887   7.982
16770WAT     H150552   0.700   0.946   8.061
16770WAT     H250553   0.753   0.819   7.974
16771WAT      O50554   1.610   7.959   6.954
16771WAT     H150555   1.538   7.975   6.886
16771WAT     H250556   1.666   7.882   6.925
16772WAT      O50557   0.846   4.659   1.872
16772WAT     H150558   0.782   4.711   1.928
16772WAT     H250559   0.815   4.564   1.866
16773WAT      O50560   8.390   6.758   7.840
16773WAT     H150561   8.456   6.816   7.887
16773WAT     H250562   8.328   6.814   7.785
16774WAT      O50563   4.867   6.863   2.289
16774WAT     H150564   4.768   6.858   2.301
16774WAT     H250565   4.909   6.889   2.376
16775WAT      O50566   3.307   0.166   2.299
16775WAT     H150567   3.227   0.182   2.242
16775WAT     H250568   3.313   0.236   2.370
16776WAT      O50569   1.365   0.728   7.517
16776WAT     H150570   1.308   0.792   7.466
16776WAT     H250571   1.358   0.637   7.475
16777WAT      O50572   1.482   3.269   8.193
16777WAT     H150573   1.496   3.360   8.154
16777WAT     H250574   1.540   3.258   8.274
16778WAT      O50575   9.314   5.699   2.371
16778WAT     H150576   9.284   5.664   2.282
16778WAT     H250577   9.414   5.701   2.374
16779WAT      O50578   5.611   7.416   7.017
16779WAT     H150579   5.628   7.342   6.952
16779WAT     H250580   5.528   7.464   6.992
16780WAT      O50581   1.336   7.660   8.199
16780WAT     H150582   1.291   7.685   8.284
16780WAT     H250583   1.267   7.626   8.134
16781WAT      O50584   0.067   8.703   0.879
16781WAT     H150585   0.024   8.793   0.890
16781WAT     H250586   0.085   8.664   0.970
16782WAT      O50587   7.102   1.199   8.608
16782WAT     H150588   7.141   1.149   8.686
16782WAT     H250589   7.031   1.143   8.564
16783WAT      O50590   4.467   5.682   5.765
16783WAT     H150591   4.485   5.670   5.667
16783WAT     H250592   4.545   5.648   5.818
16784WAT      O50593   6.546   2.959   4.324
16784WAT     H150594   6.532   2.970   4.422
16784WAT     H250595   6.624   2.899   4.307
16785WAT      O50596   6.617   3.150   5.239
16785WAT     H150597   6.519   3.145   5.261
16785WAT     H250598   6.638   3.242   5.206
16786WAT      O50599   7.769   3.544   1.435
16786WAT     H150600   7.679   3.566   1.471
16786WAT     H250601   7.772   3.447   1.411
16787WAT      O50602   2.398   8.005   0.242
16787WAT     H150603   2.464   8.026   0.314
16787WAT     H250604   2.388   7.906   0.235
16788WAT      O50605   7.549   2.744   7.195
16788WAT     H150606   7.454   2.712   7.198
16788WAT     H250607   7.581   2.746   7.100
16789WAT      O50608   2.911   8.680   4.656
16789WAT     H150609   2.817   8.696   4.685
16789WAT     H250610   2.921   8.706   4.560
16790WAT      O50611   9.100   8.932   6.208
16790WAT     H150612   9.187   8.977   6.186
16790WAT     H250613   9.038   8.999   6.248
16791WAT      O50614   8.683   7.504   6.363
16791WAT     H150615   8.733   7.486   6.278
16791WAT     H250616   8.614   7.574   6.348
16792WAT      O50617   4.167   0.908   0.203
16792WAT     H150618   4.078   0.913   0.158
16792WAT     H250619   4.157   0.867   0.294
16793WAT      O50620   0.108   6.219   3.651
16793WAT     H150621   0.161   6.248   3.571
16793WAT     H250622   0.167   6.166   3.712
16794WAT      O50623   0.474   1.785   2.291
16794WAT     H150624   0.425   1.698   2.291
16794WAT     H250625   0.547   1.783   2.223
16795WAT      O50626   7.689   6.833   3.106
16795WAT     H150627   7.595   6.801   3.097
16795WAT     H250628   7.752   6.757   3.088
16796WAT      O50629   0.661   2.007   2.495
16796WAT     H150630   0.580   2.031   2.441
16796WAT     H250631   0.632   1.961   2.579
16797WAT      O50632   8.536   6.115   0.861
16797WAT     H150633   8.441   6.144   0.876
16797WAT     H250634   8.542   6.060   0.778
16798WAT      O50635   2.216   5.255   1.271
16798WAT     H150636   2.131   5.300   1.298
16798WAT     H250637   2.294   5.315   1.289
16799WAT      O50638   3.654   3.720   1.430
16799WAT     H150639   3.707   3.641   1.461
16799WAT     H250640   3.556   3.701   1.441
16800WAT      O50641   0.341   8.401   3.398
16800WAT     H150642   0.412   8.367   3.460
16800WAT     H250643   0.384   8.428   3.312
16801WAT      O50644   6.164   8.790   2.352
16801WAT     H150645   6.145   8.701   2.394
16801WAT     H250646   6.102   8.804   2.275
16802WAT      O50647   7.759   2.303   9.161
16802WAT     H150648   7.776   2.316   9.064
16802WAT     H250649   7.838   2.257   9.203
16803WAT      O50650   0.651   0.821   0.363
16803WAT     H150651   0.706   0.829   0.279
16803WAT     H250652   0.612   0.729   0.368
16804WAT      O50653   6.057   7.168   2.463
16804WAT     H150654   6.130   7.233   2.440
16804WAT     H250655   6.079   7.079   2.424
16805WAT      O50656   1.764   9.431   2.486
16805WAT     H150657   1.828   9.460   2.557
16805WAT     H250658   1.748   9.506   2.422
16806WAT      O50659   9.700   4.331   2.102
16806WAT     H150660   9.800   4.336   2.106
16806WAT     H250661   9.672   4.273   2.026
16807WAT      O50662   8.154   5.899   3.140
16807WAT     H150663   8.226   5.863   3.199
16807WAT     H250664   8.076   5.837   3.141
16808WAT      O50665   7.087   2.395   1.804
16808WAT     H150666   7.170   2.450   1.815
16808WAT     H250667   7.075   2.337   1.885
16809WAT      O50668   4.643   6.992   6.163
16809WAT     H150669   4.645   7.062   6.234
16809WAT     H250670   4.702   6.916   6.189
16810WAT      O50671   1.370   3.636   0.541
16810WAT     H150672   1.459   3.663   0.576
16810WAT     H250673   1.302   3.705   0.564
16811WAT      O50674   7.419   2.139   4.625
16811WAT     H150675   7.420   2.048   4.667
16811WAT     H250676   7.448   2.132   4.530
16812WAT      O50677   7.411   8.299   8.155
16812WAT     H150678   7.363   8.376   8.197
16812WAT     H250679   7.428   8.319   8.058
16813WAT      O50680   6.457   0.826   2.554
16813WAT     H150681   6.470   0.922   2.528
16813WAT     H250682   6.361   0.812   2.579
16814WAT      O50683   4.019   3.597   0.277
16814WAT     H150684   4.006   3.519   0.216
16814WAT     H250685   4.109   3.590   0.321
16815WAT      O50686   3.079   9.338   7.239
16815WAT     H150687   2.998   9.280   7.235
16815WAT     H250688   3.064   9.413   7.304
16816WAT      O50689   7.898   2.757   2.129
16816WAT     H150690   7.990   2.778   2.094
16816WAT     H250691   7.903   2.675   2.186
16817WAT      O50692   0.153   2.367   0.673
16817WAT     H150693   0.151   2.461   0.639
16817WAT     H250694   0.224   2.316   0.625
16818WAT      O50695   5.505   8.546   8.750
16818WAT     H150696   5.549   8.629   8.716
16818WAT     H250697   5.567   8.499   8.814
16819WAT      O50698   2.055   8.521   8.693
16819WAT     H150699   1.996   8.563   8.624
16819WAT     H250700   2.122   8.588   8.725
16820WAT      O50701   3.116   4.317   1.468
16820WAT     H150702   3.104   4.218   1.464
16820WAT     H250703   3.127   4.353   1.375
16821WAT      O50704   2.024   5.498   6.354
16821WAT     H150705   2.020   5.448   6.440
16821WAT     H250706   2.063   5.439   6.283
16822WAT      O50707   4.837   2.528   4.154
16822WAT     H150708   4.920   2.550   4.205
16822WAT     H250709   4.809   2.435   4.175
16823WAT      O50710   8.304   1.310   4.453
16823WAT     H150711   8.265   1.238   4.396
16823WAT     H250712   8.317   1.275   4.546
16824WAT      O50713   2.433   1.610   5.932
16824WAT     H150714   2.338   1.631   5.956
16824WAT     H250715   2.466   1.534   5.988
16825WAT      O50716   2.388   1.368   9.735
16825WAT     H150717   2.303   1.391   9.781
16825WAT     H250718   2.427   1.450   9.693
16826WAT      O50719   4.872   7.814   7.991
16826WAT     H150720   4.822   7.847   7.911
16826WAT     H250721   4.940   7.746   7.963
16827WAT      O50722   8.099   8.868   2.515
16827WAT     H150723   8.110   8.804   2.439
16827WAT     H250724   8.002   8.877   2.536
16828WAT      O50725   3.923   4.432   2.271
16828WAT     H150726   3.975   4.516   2.286
16828WAT     H250727   3.833   4.455   2.234
16829WAT      O50728   3.576   1.007   7.213
16829WAT     H150729   3.622   1.096   7.210
16829WAT     H250730   3.622   0.944   7.151
16830WAT      O50731   6.062   6.248   2.808
16830WAT     H150732   6.047   6.159   2.766
16830WAT     H250733   6.105   6.237   2.897
16831WAT      O50734   4.251   1.373   0.795
16831WAT     H150735   4.160   1.353   0.831
16831WAT     H250736   4.294   1.444   0.850
16832WAT      O50737   4.213   9.805   8.150
16832WAT     H150738   4.277   9.795   8.226
16832WAT     H250739   4.120   9.784   8.181
16833WAT      O50740   3.886   4.107   1.678
16833WAT     H150741   3.799   4.074   1.716
16833WAT     H250742   3.954   4.034   1.685
16834WAT      O50743   7.347   3.021   7.332
16834WAT     H150744   7.267   2.995   7.278
16834WAT     H250745   7.426   3.034   7.272
16835WAT      O50746   2.248   0.401   8.295
16835WAT     H150747   2.198   0.483   8.323
16835WAT     H250748   2.343   0.409   8.325
16836WAT      O50749   3.587   9.068   8.777
16836WAT     H150750   3.514   9.134   8.794
16836WAT     H250751   3.661   9.082   8.842
16837WAT      O50752   0.587   1.746   3.480
16837WAT     H150753   0.670   1.801   3.467
16837WAT     H250754   0.601   1.655   3.440
16838WAT      O50755   1.465   8.265   6.596
16838WAT     H150756   1.473   8.167   6.615
16838WAT     H250757   1.394   8.304   6.655
16839WAT      O50758   5.800   5.078   1.020
16839WAT     H150759   5.806   4.997   0.962
16839WAT     H250760   5.826   5.055   1.114
16840WAT      O50761   9.366   7.191   8.002
16840WAT     H150762   9.419   7.142   8.071
16840WAT     H250763   9.284   7.138   7.979
16841WAT      O50764   3.545   0.999   5.468
16841WAT     H150765   3.558   1.050   5.553
16841WAT     H250766   3.508   0.909   5.489
16842WAT      O50767   2.667   2.515   5.402
16842WAT     H150768   2.725   2.450   5.452
16842WAT     H250769   2.671   2.495   5.304
16843WAT      O50770   7.329   0.326   6.092
16843WAT     H150771   7.324   0.423   6.118
16843WAT     H250772   7.314   0.318   5.993
16844WAT      O50773   3.615   3.444   5.438
16844WAT     H150774   3.675   3.420   5.362
16844WAT     H250775   3.522   3.457   5.405
16845WAT      O50776   7.813   0.638   9.885
16845WAT     H150777   7.816   0.691   9.969
16845WAT     H250778   7.825   0.699   9.806
16846WAT      O50779   9.205   7.067   5.113
16846WAT     H150780   9.167   7.123   5.039
16846WAT     H250781   9.216   6.973   5.081
16847WAT      O50782   4.239   8.397   6.291
16847WAT     H150783   4.231   8.302   6.261
16847WAT     H250784   4.253   8.456   6.211
16848WAT      O50785   0.698   8.984   1.717
16848WAT     H150786   0.708   8.888   1.743
16848WAT     H250787   0.640   8.990   1.636
16849WAT      O50788   6.297   6.850   3.799
16849WAT     H150789   6.339   6.768   3.760
16849WAT     H250790   6.209   6.825   3.840
16850WAT      O50791   2.252   1.949   1.188
16850WAT     H150792   2.275   1.901   1.103
16850WAT     H250793   2.238   2.046   1.169
16851WAT      O50794   1.085   9.059   3.083
16851WAT     H150795   1.010   9.126   3.080
16851WAT     H250796   1.068   8.988   3.016
16852WAT      O50797   7.936   5.941   0.533
16852WAT     H150798   7.880   5.888   0.597
16852WAT     H250799   7.928   6.038   0.553
16853WAT      O50800   4.043   0.714   1.464
16853WAT     H150801   4.001   0.779   1.400
16853WAT     H250802   4.140   0.703   1.442
16854WAT      O50803   7.921   5.535   7.018
16854WAT     H150804   7.927   5.619   7.072
16854WAT     H250805   8.008   5.518   6.972
16855WAT      O50806   1.762   4.019   2.110
16855WAT     H150807   1.662   4.017   2.110
16855WAT     H250808   1.795   3.984   2.197
16856WAT      O50809   1.350   4.669   0.390
16856WAT     H150810   1.354   4.637   0.296
16856WAT     H250811   1.270   4.728   0.402
16857WAT      O50812   2.761   7.321   0.061
16857WAT     H150813   2.831   7.286  -0.001
16857WAT     H250814   2.724   7.245   0.116
16858WAT      O50815   6.326   6.754   4.451
16858WAT     H150816   6.278   6.823   4.505
16858WAT     H250817   6.262   6.683   4.423
16859WAT      O50818   3.365   5.039   3.330
16859WAT     H150819   3.384   4.942   3.310
16859WAT     H250820   3.334   5.048   3.424
16860WAT      O50821   1.945   5.186   7.640
16860WAT     H150822   1.927   5.241   7.721
16860WAT     H250823   1.968   5.245   7.563
16861WAT      O50824   8.101   3.757   4.847
16861WAT     H150825   8.022   3.774   4.906
16861WAT     H250826   8.097   3.663   4.814
16862WAT      O50827   6.821   5.349   6.988
16862WAT     H150828   6.846   5.425   7.048
16862WAT     H250829   6.830   5.377   6.893
16863WAT      O50830   4.115   3.196   6.385
16863WAT     H150831   4.160   3.272   6.338
16863WAT     H250832   4.162   3.110   6.365
16864WAT      O50833   1.195   1.310   4.980
16864WAT     H150834   1.151   1.395   5.005
16864WAT     H250835   1.186   1.244   5.055
16865WAT      O50836   7.844   1.069   6.170
16865WAT     H150837   7.921   1.007   6.189
16865WAT     H250838   7.854   1.106   6.077
16866WAT      O50839   5.364   9.513   2.726
16866WAT     H150840   5.302   9.489   2.651
16866WAT     H250841   5.323   9.586   2.781
16867WAT      O50842   2.835   9.299   7.547
16867WAT     H150843   2.761   9.245   7.587
16867WAT     H250844   2.800   9.390   7.522
16868WAT      O50845   7.751   5.648   5.338
16868WAT     H150846   7.719   5.704   5.415
16868WAT     H250847   7.671   5.608   5.292
16869WAT      O50848   4.899   2.533   4.867
16869WAT     H150849   4.989   2.491   4.871
16869WAT     H250850   4.879   2.562   4.773
16870WAT      O50851   8.248   5.050   4.695
16870WAT     H150852   8.178   4.989   4.658
16870WAT     H250853   8.337   5.025   4.657
16871WAT      O50854   1.128   9.324   9.457
16871WAT     H150855   1.144   9.228   9.436
16871WAT     H250856   1.061   9.361   9.392
16872WAT      O50857   1.632   3.711   0.167
16872WAT     H150858   1.731   3.714   0.157
16872WAT     H250859   1.599   3.619   0.148
16873WAT      O50860   6.981   4.248   1.664
16873WAT     H150861   7.079   4.248   1.685
16873WAT     H250862   6.956   4.333   1.620
16874WAT      O50863   8.994   7.283   5.355
16874WAT     H150864   8.940   7.348   5.300
16874WAT     H250865   9.062   7.239   5.296
16875WAT      O50866   1.988   9.137   1.353
16875WAT     H150867   1.936   9.223   1.358
16875WAT     H250868   2.076   9.149   1.400
16876WAT      O50869   6.893   8.701   2.946
16876WAT     H150870   6.814   8.670   2.893
16876WAT     H250871   6.960   8.627   2.953
16877WAT      O50872   3.388   5.283   0.838
16877WAT     H150873   3.463   5.320   0.893
16877WAT     H250874   3.329   5.358   0.808
16878WAT      O50875   2.506   5.972   5.326
16878WAT     H150876   2.443   6.034   5.278
16878WAT     H250877   2.564   6.025   5.388
16879WAT      O50878   2.179   5.251   1.011
16879WAT     H150879   2.182   5.341   0.968
16879WAT     H250880   2.200   5.260   1.109
16880WAT      O50881   9.165   6.025   3.220
16880WAT     H150882   9.250   6.073   3.201
16880WAT     H250883   9.175   5.969   3.302
16881WAT      O50884   1.309   2.109   1.016
16881WAT     H150885   1.380   2.145   1.076
16881WAT     H250886   1.224   2.159   1.030
16882WAT      O50887   6.070   5.530   2.458
16882WAT     H150888   6.081   5.430   2.455
16882WAT     H250889   5.981   5.552   2.499
16883WAT      O50890   2.995   2.191   8.889
16883WAT     H150891   3.083   2.143   8.898
16883WAT     H250892   3.010   2.278   8.842
16884WAT      O50893   6.256   9.099   8.151
16884WAT     H150894   6.226   9.115   8.245
16884WAT     H250895   6.256   9.185   8.101
16885WAT      O50896   1.665   8.811   9.289
16885WAT     H150897   1.754   8.773   9.261
16885WAT     H250898   1.603   8.736   9.311
16886WAT      O50899   4.526   4.997   1.602
16886WAT     H150900   4.461   4.964   1.534
16886WAT     H250901   4.553   5.091   1.580
16887WAT      O50902   1.087   2.119   1.185
16887WAT     H150903   1.147   2.062   1.241
16887WAT     H250904   0.992   2.101   1.210
16888WAT      O50905   9.048   5.050   2.667
16888WAT     H150906   8.984   5.120   2.636
16888WAT     H250907   9.059   4.982   2.594
16889WAT      O50908   3.654   5.051   2.504
16889WAT     H150909   3.733   5.087   2.455
16889WAT     H250910   3.621   4.969   2.458
16890WAT      O50911   2.941   2.951   7.286
16890WAT     H150912   2.940   3.013   7.207
16890WAT     H250913   2.935   2.857   7.255
16891WAT      O50914   3.088   8.911   0.843
16891WAT     H150915   3.095   8.919   0.942
16891WAT     H250916   3.050   8.995   0.805
16892WAT      O50917   4.511   2.813   9.546
16892WAT     H150918   4.549   2.792   9.636
16892WAT     H250919   4.555   2.756   9.477
16893WAT      O50920   1.906   9.153   7.404
16893WAT     H150921   1.872   9.220   7.338
16893WAT     H250922   1.864   9.170   7.493
16894WAT      O50923   8.260   8.052   4.116
16894WAT     H150924   8.176   8.075   4.067
16894WAT     H250925   8.257   7.956   4.143
16895WAT      O50926   7.694   5.759   1.784
16895WAT     H150927   7.763   5.763   1.711
16895WAT     H250928   7.733   5.714   1.864
16896WAT      O50929   1.657   6.504   0.123
16896WAT     H150930   1.646   6.488   0.024
16896WAT     H250931   1.638   6.600   0.144
16897WAT      O50932   9.390   6.371   0.716
16897WAT     H150933   9.306   6.326   0.748
16897WAT     H250934   9.371   6.467   0.698
16898WAT      O50935   4.460   2.812   4.150
16898WAT     H150936   4.547   2.857   4.170
16898WAT     H250937   4.387   2.854   4.204
16899WAT      O50938   4.352   3.405   0.671
16899WAT     H150939   4.416   3.347   0.722
16899WAT     H250940   4.261   3.397   0.711
16900WAT      O50941   3.187   3.287   5.904
16900WAT     H150942   3.208   3.288   6.002
16900WAT     H250943   3.266   3.324   5.854
16901WAT      O50944   3.757   6.933   9.380
16901WAT     H150945   3.831   6.888   9.331
16901WAT     H250946   3.788   7.022   9.414
16902WAT      O50947   2.673   5.224   0.671
16902WAT     H150948   2.684   5.324   0.670
16902WAT     H250949   2.752   5.183   0.718
16903WAT      O50950   3.235   8.643   5.300
16903WAT     H150951   3.275   8.596   5.379
16903WAT     H250952   3.135   8.645   5.309
16904WAT      O50953   0.175   2.386   4.542
16904WAT     H150954   0.268   2.411   4.569
16904WAT     H250955   0.130   2.464   4.500
16905WAT      O50956   9.329   5.843   1.208
16905WAT     H150957   9.275   5.919   1.173
16905WAT     H250958   9.273   5.760   1.208
16906WAT      O50959   9.565   4.745   2.430
16906WAT     H150960   9.484   4.707   2.475
16906WAT     H250961   9.647   4.719   2.480
16907WAT      O50962   6.004   4.133   1.645
16907WAT     H150963   6.072   4.098   1.709
16907WAT     H250964   5.966   4.219   1.680
16908WAT      O50965   6.020   9.204   5.205
16908WAT     H150966   5.929   9.210   5.246
16908WAT     H250967   6.020   9.254   5.118
16909WAT      O50968   2.626   6.459   2.242
16909WAT     H150969   2.646   6.401   2.321
16909WAT     H250970   2.585   6.404   2.169
16910WAT      O50971   5.018   0.909   6.621
16910WAT     H150972   4.987   0.915   6.716
16910WAT     H250973   5.067   0.993   6.596
16911WAT      O50974   7.140   9.237   0.104
16911WAT     H150975   7.137   9.276   0.196
16911WAT     H250976   7.184   9.147   0.106
16912WAT      O50977   9.761   5.757   8.202
16912WAT     H150978   9.804   5.681   8.152
16912WAT     H250979   9.796   5.844   8.168
16913WAT      O50980   7.524   3.408   7.984
16913WAT     H150981   7.510   3.350   7.904
16913WAT     H250982   7.582   3.486   7.960
16914WAT      O50983   1.984   2.779   5.269
16914WAT     H150984   1.960   2.772   5.366
16914WAT     H250985   2.020   2.870   5.250
16915WAT      O50986   3.355   3.740   9.618
16915WAT     H150987   3.269   3.748   9.568
16915WAT     H250988   3.353   3.801   9.698
16916WAT      O50989   2.405   6.292   9.843
16916WAT     H150990   2.312   6.272   9.873
16916WAT     H250991   2.421   6.251   9.753
16917WAT      O50992   3.059   1.698   2.209
16917WAT     H150993   3.126   1.628   2.236
16917WAT     H250994   2.991   1.656   2.149
16918WAT      O50995   2.734   3.566   4.473
16918WAT     H150996   2.672   3.575   4.395
16918WAT     H250997   2.801   3.494   4.454
16919WAT      O50998   1.105   3.950   6.199
16919WAT     H150999   1.093   4.010   6.120
16919WAT     H251000   1.063   3.862   6.182
16920WAT      O51001   9.843   5.240   6.107
16920WAT     H151002   9.919   5.182   6.080
16920WAT     H251003   9.794   5.271   6.025
16921WAT      O51004   8.139   3.247   3.472
16921WAT     H151005   8.125   3.167   3.532
16921WAT     H251006   8.159   3.327   3.528
16922WAT      O51007   0.852   8.267   4.413
16922WAT     H151008   0.861   8.259   4.513
16922WAT     H251009   0.843   8.363   4.388
16923WAT      O51010   6.210   6.067   7.978
16923WAT     H151011   6.283   6.100   8.037
16923WAT     H251012   6.212   5.967   7.976
16924WAT      O51013   0.111   1.545   8.559
16924WAT     H151014   0.116   1.491   8.475
16924WAT     H251015   0.150   1.493   8.635
16925WAT      O51016   0.303   4.478   4.618
16925WAT     H151017   0.368   4.457   4.545
16925WAT     H251018   0.211   4.451   4.589
16926WAT      O51019   2.321   8.364   7.498
16926WAT     H151020   2.334   8.265   7.508
16926WAT     H251021   2.337   8.409   7.586
16927WAT      O51022   4.163   8.165   4.636
16927WAT     H151023   4.232   8.234   4.658
16927WAT     H251024   4.155   8.100   4.712
16928WAT      O51025   1.910   1.709   6.006
16928WAT     H151026   1.837   1.640   6.003
16928WAT     H251027   1.870   1.800   5.995
16929WAT      O51028   9.037   0.899   2.780
16929WAT     H151029   9.076   0.950   2.857
16929WAT     H251030   9.093   0.914   2.699
16930WAT      O51031   6.169   3.933   3.228
16930WAT     H151032   6.083   3.977   3.204
16930WAT     H251033   6.234   4.002   3.261
16931WAT      O51034   0.251   1.487   6.635
16931WAT     H151035   0.218   1.523   6.723
16931WAT     H251036   0.232   1.389   6.631
16932WAT      O51037   8.248   3.407   3.664
16932WAT     H151038   8.338   3.409   3.708
16932WAT     H251039   8.223   3.500   3.636
16933WAT      O51040   8.848   6.720   0.248
16933WAT     H151041   8.900   6.665   0.313
16933WAT     H251042   8.860   6.685   0.156
16934WAT      O51043   7.707   0.749   2.901
16934WAT     H151044   7.714   0.651   2.883
16934WAT     H251045   7.749   0.799   2.827
16935WAT      O51046   2.539   8.676   2.404
16935WAT     H151047   2.608   8.608   2.426
16935WAT     H251048   2.552   8.757   2.461
16936WAT      O51049   9.275   0.680   9.321
16936WAT     H151050   9.322   0.688   9.408
16936WAT     H251051   9.187   0.634   9.334
16937WAT      O51052   5.841   6.196   4.510
16937WAT     H151053   5.827   6.287   4.549
16937WAT     H251054   5.812   6.196   4.414
16938WAT      O51055   8.076   9.032   9.546
16938WAT     H151056   8.042   8.940   9.527
16938WAT     H251057   8.143   9.029   9.619
16939WAT      O51058   0.662   7.580   1.573
16939WAT     H151059   0.656   7.611   1.668
16939WAT     H251060   0.586   7.618   1.520
16940WAT      O51061   9.500   8.377   9.565
16940WAT     H151062   9.555   8.422   9.636
16940WAT     H251063   9.554   8.305   9.522
16941WAT      O51064   7.755   8.955   9.344
16941WAT     H151065   7.782   8.919   9.433
16941WAT     H251066   7.833   9.003   9.302
16942WAT      O51067   8.738   3.475   3.655
16942WAT     H151068   8.651   3.473   3.704
16942WAT     H251069   8.722   3.461   3.558
16943WAT      O51070   0.519   4.019   4.805
16943WAT     H151071   0.427   4.015   4.768
16943WAT     H251072   0.516   4.002   4.904
16944WAT      O51073   0.415   3.466   7.211
16944WAT     H151074   0.325   3.505   7.189
16944WAT     H251075   0.464   3.446   7.126
16945WAT      O51076   4.250   3.653   0.967
16945WAT     H151077   4.167   3.706   0.950
16945WAT     H251078   4.241   3.563   0.924
16946WAT      O51079   5.250   6.018   5.633
16946WAT     H151080   5.282   6.108   5.663
16946WAT     H251081   5.221   6.024   5.537
16947WAT      O51082   3.531   4.842   5.736
16947WAT     H151083   3.569   4.934   5.736
16947WAT     H251084   3.528   4.807   5.829
16948WAT      O51085   2.359   4.442   3.237
16948WAT     H151086   2.447   4.395   3.249
16948WAT     H251087   2.312   4.406   3.157
16949WAT      O51088   3.004   1.186   2.828
16949WAT     H151089   2.974   1.211   2.736
16949WAT     H251090   3.046   1.096   2.826
16950WAT      O51091   5.342   4.487   1.288
16950WAT     H151092   5.257   4.440   1.266
16950WAT     H251093   5.345   4.574   1.239
16951WAT      O51094   8.638   4.895   2.261
16951WAT     H151095   8.608   4.893   2.357
16951WAT     H251096   8.727   4.940   2.255
16952WAT      O51097   5.301   9.469   3.921
16952WAT     H151098   5.255   9.509   4.000
16952WAT     H251099   5.373   9.406   3.953
16953WAT      O51100   7.133   2.615   8.719
16953WAT     H151101   7.064   2.657   8.660
16953WAT     H251102   7.136   2.663   8.807
16954WAT      O51103   7.158   5.301   6.654
16954WAT     H151104   7.161   5.291   6.753
16954WAT     H251105   7.251   5.305   6.618
16955WAT      O51106   6.195   9.012   7.229
16955WAT     H151107   6.277   9.070   7.230
16955WAT     H251108   6.181   8.976   7.136
16956WAT      O51109   1.486   7.253   8.938
16956WAT     H151110   1.550   7.182   8.968
16956WAT     H251111   1.537   7.334   8.909
16957WAT      O51112   4.274   0.826   8.282
16957WAT     H151113   4.288   0.784   8.192
16957WAT     H251114   4.268   0.753   8.351
16958WAT      O51115   2.746   0.968   2.435
16958WAT     H151116   2.836   1.012   2.437
16958WAT     H251117   2.682   1.023   2.489
16959WAT      O51118   9.400   3.445   0.722
16959WAT     H151119   9.459   3.476   0.797
16959WAT     H251120   9.446   3.371   0.672
16960WAT      O51121   5.549   9.709   4.244
16960WAT     H151122   5.527   9.726   4.340
16960WAT     H251123   5.489   9.764   4.185
16961WAT      O51124   2.359   6.954   1.658
16961WAT     H151125   2.307   7.037   1.677
16961WAT     H251126   2.298   6.875   1.660
16962WAT      O51127   1.793   2.965   4.520
16962WAT     H151128   1.729   3.020   4.573
16962WAT     H251129   1.757   2.872   4.510
16963WAT      O51130   3.948   1.951   6.399
16963WAT     H151131   3.860   1.998   6.395
16963WAT     H251132   4.002   1.974   6.318
16964WAT      O51133   5.258   7.803   2.865
16964WAT     H151134   5.284   7.826   2.771
16964WAT     H251135   5.166   7.763   2.866
16965WAT      O51136   7.101   5.696   1.646
16965WAT     H151137   7.192   5.738   1.653
16965WAT     H251138   7.041   5.735   1.715
16966WAT      O51139   9.530   2.846   6.221
16966WAT     H151140   9.626   2.841   6.252
16966WAT     H251141   9.524   2.812   6.127
16967WAT      O51142   5.474   1.639   9.214
16967WAT     H151143   5.497   1.586   9.132
16967WAT     H251144   5.557   1.659   9.266
16968WAT      O51145   6.339   8.284   7.557
16968WAT     H151146   6.270   8.334   7.608
16968WAT     H251147   6.295   8.213   7.501
16969WAT      O51148   8.506   2.534   9.242
16969WAT     H151149   8.474   2.628   9.233
16969WAT     H251150   8.515   2.493   9.151
16970WAT      O51151   3.804   4.674   2.787
16970WAT     H151152   3.873   4.628   2.843
16970WAT     H251153   3.814   4.773   2.796
16971WAT      O51154   0.276   3.741   2.920
16971WAT     H151155   0.351   3.677   2.933
16971WAT     H251156   0.303   3.811   2.854
16972WAT      O51157   7.672   6.521   1.398
16972WAT     H151158   7.654   6.614   1.367
16972WAT     H251159   7.691   6.521   1.496
16973WAT      O51160   1.769   2.628   3.773
16973WAT     H151161   1.685   2.593   3.731
16973WAT     H251162   1.825   2.672   3.703
16974WAT      O51163   5.063   0.479   7.938
16974WAT     H151164   4.975   0.483   7.890
16974WAT     H251165   5.060   0.540   8.017
16975WAT      O51166   8.941   0.785   8.847
16975WAT     H151167   8.853   0.826   8.870
16975WAT     H251168   9.004   0.795   8.924
16976WAT      O51169   7.613   2.741   4.433
16976WAT     H151170   7.675   2.708   4.504
16976WAT     H251171   7.528   2.688   4.436
16977WAT      O51172   2.840   2.775   0.600
16977WAT     H151173   2.821   2.765   0.697
16977WAT     H251174   2.798   2.860   0.566
16978WAT      O51175   7.017   6.602   3.240
16978WAT     H151176   7.079   6.663   3.289
16978WAT     H251177   7.067   6.523   3.206
16979WAT      O51178   9.746   4.172   4.748
16979WAT     H151179   9.749   4.236   4.825
16979WAT     H251180   9.680   4.206   4.680
16980WAT      O51181   1.940   3.375   8.651
16980WAT     H151182   1.856   3.343   8.607
16980WAT     H251183   1.963   3.314   8.727
16981WAT      O51184   1.727   4.090   7.284
16981WAT     H151185   1.707   4.181   7.319
16981WAT     H251186   1.648   4.057   7.232
16982WAT      O51187   0.692   0.495   8.964
16982WAT     H151188   0.702   0.509   9.063
16982WAT     H251189   0.718   0.578   8.916
16983WAT      O51190   2.838   4.226   9.723
16983WAT     H151191   2.830   4.286   9.803
16983WAT     H251192   2.827   4.131   9.751
16984WAT      O51193   9.430   9.574   0.251
16984WAT     H151194   9.461   9.581   0.156
16984WAT     H251195   9.356   9.640   0.266
16985WAT      O51196   1.017   1.379   6.308
16985WAT     H151197   0.975   1.442   6.242
16985WAT     H251198   1.085   1.323   6.261
16986WAT      O51199   1.503   5.099   3.333
16986WAT     H151200   1.448   5.163   3.280
16986WAT     H251201   1.500   5.123   3.430
16987WAT      O51202   0.175   5.981   9.234
16987WAT     H151203   0.079   5.982   9.206
16987WAT     H251204   0.182   6.001   9.331
16988WAT      O51205   1.881   7.919   6.015
16988WAT     H151206   1.838   7.832   6.037
16988WAT     H251207   1.923   7.957   6.097
16989WAT      O51208   6.376   5.629   0.707
16989WAT     H151209   6.334   5.691   0.773
16989WAT     H251210   6.304   5.575   0.662
16990WAT      O51211   1.234   5.243   1.301
16990WAT     H151212   1.248   5.216   1.396
16990WAT     H251213   1.176   5.176   1.255
16991WAT      O51214   6.853   0.359   6.079
16991WAT     H151215   6.874   0.263   6.100
16991WAT     H251216   6.887   0.418   6.152
16992WAT      O51217   3.456   9.239   0.817
16992WAT     H151218   3.477   9.336   0.803
16992WAT     H251219   3.539   9.190   0.846
16993WAT      O51220   5.270   7.118   1.109
16993WAT     H151221   5.328   7.037   1.099
16993WAT     H251222   5.197   7.098   1.175
16994WAT      O51223   1.953   5.877   7.841
16994WAT     H151224   2.026   5.823   7.882
16994WAT     H251225   1.971   5.887   7.743
16995WAT      O51226   1.538   3.230   5.520
16995WAT     H151227   1.509   3.184   5.436
16995WAT     H251228   1.575   3.321   5.497
16996WAT      O51229   9.660   4.509   3.535
16996WAT     H151230   9.625   4.519   3.442
16996WAT     H251231   9.752   4.470   3.531
16997WAT      O51232   3.423   5.720   2.085
16997WAT     H151233   3.479   5.637   2.077
16997WAT     H251234   3.417   5.765   1.996
16998WAT      O51235   5.554   7.031   5.289
16998WAT     H151236   5.597   7.043   5.199
16998WAT     H251237   5.516   6.939   5.296
16999WAT      O51238   1.970   5.554   1.375
16999WAT     H151239   1.903   5.555   1.301
16999WAT     H251240   2.028   5.635   1.370
17000WAT      O51241   9.551   5.950   3.763
17000WAT     H151242   9.497   6.034   3.772
17000WAT     H251243   9.631   5.968   3.706
17001WAT      O51244   8.022   5.593   9.351
17001WAT     H151245   8.024   5.690   9.376
17001WAT     H251246   8.112   5.565   9.317
17002WAT      O51247   6.417   1.770   4.377
17002WAT     H151248   6.330   1.814   4.400
17002WAT     H251249   6.491   1.810   4.432
17003WAT      O51250   1.059   9.438   3.065
17003WAT     H151251   1.123   9.504   3.026
17003WAT     H251252   1.102   9.390   3.142
17004WAT      O51253   9.721   7.456   8.867
17004WAT     H151254   9.710   7.479   8.770
17004WAT     H251255   9.681   7.366   8.885
17005WAT      O51256   9.787   0.259   1.911
17005WAT     H151257   9.866   0.240   1.970
17005WAT     H251258   9.742   0.343   1.942
17006WAT      O51259   5.327   1.695   1.565
17006WAT     H151260   5.355   1.621   1.505
17006WAT     H251261   5.399   1.764   1.570
17007WAT      O51262   9.493   3.391   0.198
17007WAT     H151263   9.411   3.408   0.252
17007WAT     H251264   9.483   3.306   0.147
17008WAT      O51265   5.966   5.594   5.695
17008WAT     H151266   5.925   5.552   5.777
17008WAT     H251267   6.057   5.628   5.717
17009WAT      O51268   2.952   0.934   9.647
17009WAT     H151269   2.975   0.904   9.555
17009WAT     H251270   3.032   0.976   9.689
17010WAT      O51271   1.314   8.502   4.524
17010WAT     H151272   1.258   8.429   4.486
17010WAT     H251273   1.256   8.567   4.573
17011WAT      O51274   5.556   6.101   8.532
17011WAT     H151275   5.460   6.079   8.551
17011WAT     H251276   5.601   6.128   8.617
17012WAT      O51277   6.812   3.313   4.281
17012WAT     H151278   6.877   3.247   4.318
17012WAT     H251279   6.742   3.333   4.349
17013WAT      O51280   0.934   3.777   9.651
17013WAT     H151281   0.956   3.769   9.554
17013WAT     H251282   1.016   3.805   9.702
17014WAT      O51283   8.292   8.876   9.388
17014WAT     H151284   8.297   8.876   9.288
17014WAT     H251285   8.254   8.963   9.420
17015WAT      O51286   8.600   8.816   4.347
17015WAT     H151287   8.686   8.765   4.350
17015WAT     H251288   8.594   8.877   4.425
17016WAT      O51289   4.530   6.635   4.056
17016WAT     H151290   4.439   6.620   4.018
17016WAT     H251291   4.579   6.703   4.000
17017WAT      O51292   4.488   7.245   4.486
17017WAT     H151293   4.440   7.311   4.543
17017WAT     H251294   4.572   7.287   4.451
17018WAT      O51295   0.403   6.295   2.487
17018WAT     H151296   0.389   6.371   2.551
17018WAT     H251297   0.341   6.305   2.409
17019WAT      O51298   9.329   1.737   9.660
17019WAT     H151299   9.423   1.718   9.632
17019WAT     H251300   9.266   1.678   9.609
17020WAT      O51301   9.581   6.362   9.062
17020WAT     H151302   9.644   6.414   9.005
17020WAT     H251303   9.619   6.353   9.154
17021WAT      O51304   9.062   9.359   4.068
17021WAT     H151305   9.111   9.446   4.071
17021WAT     H251306   9.067   9.321   3.976
17022WAT      O51307   9.181   7.502   0.974
17022WAT     H151308   9.086   7.469   0.981
17022WAT     H251309   9.223   7.464   0.892
17023WAT      O51310   1.948   0.064   4.663
17023WAT     H151311   1.937  -0.035   4.671
17023WAT     H251312   2.004   0.084   4.582
17024WAT      O51313   3.522   8.890   8.573
17024WAT     H151314   3.567   8.932   8.652
17024WAT     H251315   3.582   8.820   8.535
17025WAT      O51316   0.659   1.493   2.552
17025WAT     H151317   0.632   1.503   2.456
17025WAT     H251318   0.743   1.438   2.557
17026WAT      O51319   4.961   5.639   2.800
17026WAT     H151320   4.890   5.569   2.808
17026WAT     H251321   5.049   5.600   2.826
17027WAT      O51322   5.764   2.305   9.653
17027WAT     H151323   5.810   2.384   9.695
17027WAT     H251324   5.823   2.225   9.660
17028WAT      O51325   0.860   6.541   5.342
17028WAT     H151326   0.926   6.468   5.323
17028WAT     H251327   0.887   6.624   5.293
17029WAT      O51328   4.474   3.898   7.856
17029WAT     H151329   4.434   3.811   7.885
17029WAT     H251330   4.428   3.973   7.903
17030WAT      O51331   2.095   8.195   3.549
17030WAT     H151332   2.146   8.277   3.525
17030WAT     H251333   2.139   8.115   3.508
17031WAT      O51334   1.542   1.713   5.879
17031WAT     H151335   1.547   1.799   5.931
17031WAT     H251336   1.575   1.638   5.935
17032WAT      O51337   3.167   3.641   8.350
17032WAT     H151338   3.109   3.589   8.413
17032WAT     H251339   3.124   3.728   8.328
17033WAT      O51340   1.307   5.011   4.682
17033WAT     H151341   1.235   5.051   4.625
17033WAT     H251342   1.269   4.985   4.770
17034WAT      O51343   8.777   0.446   8.974
17034WAT     H151344   8.855   0.473   9.031
17034WAT     H251345   8.713   0.523   8.967
17035WAT      O51346   3.570   4.971   8.333
17035WAT     H151347   3.507   4.907   8.290
17035WAT     H251348   3.517   5.043   8.379
17036WAT      O51349   5.830   0.768   0.269
17036WAT     H151350   5.808   0.843   0.332
17036WAT     H251351   5.875   0.805   0.188
17037WAT      O51352   2.676   9.163   5.493
17037WAT     H151353   2.740   9.233   5.526
17037WAT     H251354   2.583   9.186   5.523
17038WAT      O51355   1.514   4.780   5.232
17038WAT     H151356   1.480   4.691   5.261
17038WAT     H251357   1.569   4.769   5.149
17039WAT      O51358   6.745   8.255   0.209
17039WAT     H151359   6.696   8.173   0.239
17039WAT     H251360   6.691   8.336   0.232
17040WAT      O51361   1.460   7.406   2.186
17040WAT     H151362   1.373   7.360   2.198
17040WAT     H251363   1.533   7.338   2.174
17041WAT      O51364   3.641   0.099   2.606
17041WAT     H151365   3.615   0.195   2.609
17041WAT     H251366   3.681   0.073   2.694
17042WAT      O51367   6.437   2.969   0.498
17042WAT     H151368   6.431   3.040   0.427
17042WAT     H251369   6.370   2.898   0.479
17043WAT      O51370   3.118   5.508   5.686
17043WAT     H151371   3.054   5.547   5.620
17043WAT     H251372   3.163   5.583   5.735
17044WAT      O51373   3.218   3.615   4.907
17044WAT     H151374   3.202   3.618   4.809
17044WAT     H251375   3.155   3.550   4.949
17045WAT      O51376   7.877   5.359   1.906
17045WAT     H151377   7.946   5.375   1.977
17045WAT     H251378   7.892   5.269   1.865
17046WAT      O51379   0.788   9.355   4.171
17046WAT     H151380   0.879   9.355   4.129
17046WAT     H251381   0.768   9.265   4.208
17047WAT      O51382   1.770   0.973   4.129
17047WAT     H151383   1.766   0.876   4.153
17047WAT     H251384   1.796   0.982   4.033
17048WAT      O51385   1.967   3.228   3.259
17048WAT     H151386   2.013   3.189   3.179
17048WAT     H251387   2.030   3.228   3.337
17049WAT      O51388   2.519   7.293   0.306
17049WAT     H151389   2.523   7.207   0.356
17049WAT     H251390   2.516   7.275   0.208
17050WAT      O51391   2.781   7.401   8.408
17050WAT     H151392   2.773   7.320   8.465
17050WAT     H251393   2.695   7.452   8.409
17051WAT      O51394   2.765   5.969   6.516
17051WAT     H151395   2.678   5.921   6.522
17051WAT     H251396   2.771   6.036   6.590
17052WAT      O51397   5.456   1.086   2.547
17052WAT     H151398   5.416   1.153   2.609
17052WAT     H251399   5.469   0.999   2.596
17053WAT      O51400   6.086   7.436   9.571
17053WAT     H151401   6.178   7.405   9.594
17053WAT     H251402   6.086   7.474   9.478
17054WAT      O51403   5.677   2.491   1.839
17054WAT     H151404   5.609   2.524   1.903
17054WAT     H251405   5.653   2.521   1.746
17055WAT      O51406   0.546   3.014   8.926
17055WAT     H151407   0.622   2.959   8.892
17055WAT     H251408   0.554   3.107   8.890
17056WAT      O51409   4.608   0.224   3.781
17056WAT     H151410   4.605   0.238   3.682
17056WAT     H251411   4.519   0.247   3.820
17057WAT      O51412   8.309   9.331   6.427
17057WAT     H151413   8.365   9.412   6.413
17057WAT     H251414   8.312   9.274   6.346
17058WAT      O51415   8.082   7.557   0.765
17058WAT     H151416   7.998   7.541   0.818
17058WAT     H251417   8.141   7.477   0.771
17059WAT      O51418   8.402   5.388   7.693
17059WAT     H151419   8.397   5.339   7.780
17059WAT     H251420   8.441   5.328   7.623
17060WAT      O51421   5.304   6.849   1.088
17060WAT     H151422   5.344   6.758   1.086
17060WAT     H251423   5.293   6.883   0.995
17061WAT      O51424   1.064   6.858   7.057
17061WAT     H151425   1.137   6.899   7.003
17061WAT     H251426   1.099   6.777   7.104
17062WAT      O51427   2.630   6.206   4.679
17062WAT     H151428   2.633   6.305   4.694
17062WAT     H251429   2.700   6.162   4.735
17063WAT      O51430   3.406   7.312   8.091
17063WAT     H151431   3.308   7.316   8.110
17063WAT     H251432   3.456   7.339   8.173
17064WAT      O51433   5.907   6.332   7.482
17064WAT     H151434   5.893   6.299   7.389
17064WAT     H251435   5.843   6.406   7.502
17065WAT      O51436   9.569   3.145   0.950
17065WAT     H151437   9.480   3.169   0.991
17065WAT     H251438   9.560   3.062   0.896
17066WAT      O51439   5.289   9.449   3.140
17066WAT     H151440   5.304   9.415   3.233
17066WAT     H251441   5.316   9.545   3.135
17067WAT      O51442   0.238   3.058   6.012
17067WAT     H151443   0.201   3.135   6.063
17067WAT     H251444   0.226   2.974   6.064
17068WAT      O51445   0.162   7.814   3.953
17068WAT     H151446   0.202   7.778   4.038
17068WAT     H251447   0.165   7.743   3.883
17069WAT      O51448   3.609   8.789   6.633
17069WAT     H151449   3.672   8.731   6.686
17069WAT     H251450   3.526   8.804   6.686
17070WAT      O51451   3.802   0.897   2.829
17070WAT     H151452   3.720   0.881   2.774
17070WAT     H251453   3.882   0.861   2.780
17071WAT      O51454   0.100   6.451   1.003
17071WAT     H151455   0.064   6.468   1.095
17071WAT     H251456   0.200   6.458   1.004
17072WAT      O51457   9.546   5.854   3.287
17072WAT     H151458   9.488   5.853   3.369
17072WAT     H251459   9.642   5.846   3.314
17073WAT      O51460   5.106   7.429   1.570
17073WAT     H151461   5.112   7.522   1.534
17073WAT     H251462   5.115   7.432   1.670
17074WAT      O51463   3.915   5.841   3.402
17074WAT     H151464   3.820   5.844   3.432
17074WAT     H251465   3.967   5.781   3.463
17075WAT      O51466   7.424   9.270   7.491
17075WAT     H151467   7.344   9.329   7.505
17075WAT     H251468   7.400   9.194   7.431
17076WAT      O51469   9.703   3.451   6.931
17076WAT     H151470   9.717   3.493   6.842
17076WAT     H251471   9.605   3.451   6.953
17077WAT      O51472   6.703   0.362   3.824
17077WAT     H151473   6.667   0.455   3.819
17077WAT     H251474   6.646   0.307   3.885
17078WAT      O51475   9.583   7.395   7.678
17078WAT     H151476   9.593   7.428   7.585
17078WAT     H251477   9.646   7.446   7.738
17079WAT      O51478   3.967   8.980   9.826
17079WAT     H151479   3.921   8.920   9.760
17079WAT     H251480   3.957   9.075   9.795
17080WAT      O51481   8.378   9.167   9.309
17080WAT     H151482   8.335   9.116   9.234
17080WAT     H251483   8.477   9.161   9.301
17081WAT      O51484   1.906   6.674   4.959
17081WAT     H151485   1.959   6.754   4.988
17081WAT     H251486   1.953   6.590   4.986
17082WAT      O51487   2.348   7.732   9.542
17082WAT     H151488   2.304   7.817   9.514
17082WAT     H251489   2.432   7.719   9.490
17083WAT      O51490   9.234   7.082   1.059
17083WAT     H151491   9.227   7.136   1.142
17083WAT     H251492   9.328   7.083   1.026
17084WAT      O51493   6.660   4.724   3.773
17084WAT     H151494   6.629   4.743   3.680
17084WAT     H251495   6.659   4.808   3.827
17085WAT      O51496   3.749   2.684   5.377
17085WAT     H151497   3.789   2.697   5.286
17085WAT     H251498   3.795   2.608   5.423
17086WAT      O51499   0.526   9.612   2.381
17086WAT     H151500   0.616   9.598   2.422
17086WAT     H251501   0.535   9.618   2.282
17087WAT      O51502   4.405   4.933   0.754
17087WAT     H151503   4.390   4.878   0.672
17087WAT     H251504   4.330   4.918   0.818
17088WAT      O51505   5.660   8.166   1.201
17088WAT     H151506   5.734   8.159   1.268
17088WAT     H251507   5.666   8.090   1.137
17089WAT      O51508   0.722   3.205   3.060
17089WAT     H151509   0.729   3.270   2.984
17089WAT     H251510   0.797   3.140   3.055
17090WAT      O51511   3.645   6.245   6.990
17090WAT     H151512   3.619   6.148   6.997
17090WAT     H251513   3.730   6.252   6.938
17091WAT      O51514   8.302   2.394   9.819
17091WAT     H151515   8.270   2.325   9.883
17091WAT     H251516   8.245   2.393   9.737
17092WAT      O51517   4.662   5.403   0.748
17092WAT     H151518   4.596   5.478   0.738
17092WAT     H251519   4.728   5.406   0.673
17093WAT      O51520   4.753   6.496   8.822
17093WAT     H151521   4.808   6.578   8.839
17093WAT     H251522   4.794   6.444   8.747
17094WAT      O51523   3.148   3.743   2.615
17094WAT     H151524   3.188   3.655   2.592
17094WAT     H251525   3.048   3.734   2.617
17095WAT      O51526   1.152   6.552   6.049
17095WAT     H151527   1.130   6.617   5.976
17095WAT     H251528   1.067   6.515   6.087
17096WAT      O51529   0.190   1.322   0.900
17096WAT     H151530   0.202   1.276   0.988
17096WAT     H251531   0.096   1.313   0.870
17097WAT      O51532   0.011   0.972   7.676
17097WAT     H151533   0.093   0.915   7.686
17097WAT     H251534  -0.070   0.914   7.669
17098WAT      O51535   6.886   2.095   6.924
17098WAT     H151536   6.966   2.084   6.866
17098WAT     H251537   6.892   2.181   6.975
17099WAT      O51538   8.708   9.132   0.081
17099WAT     H151539   8.769   9.205   0.053
17099WAT     H251540   8.686   9.075   0.001
17100WAT      O51541   8.934   3.112   6.105
17100WAT     H151542   8.911   3.141   6.198
17100WAT     H251543   9.004   3.173   6.068
17101WAT      O51544   1.053   1.553   5.066
17101WAT     H151545   1.121   1.541   5.138
17101WAT     H251546   1.032   1.651   5.057
17102WAT      O51547   1.104   8.824   2.242
17102WAT     H151548   1.100   8.923   2.253
17102WAT     H251549   1.171   8.786   2.306
17103WAT      O51550   0.914   1.729   6.657
17103WAT     H151551   0.914   1.808   6.718
17103WAT     H251552   0.891   1.758   6.564
17104WAT      O51553   8.097   4.896   0.173
17104WAT     H151554   8.021   4.833   0.160
17104WAT     H251555   8.180   4.857   0.131
17105WAT      O51556   1.100   0.496   9.539
17105WAT     H151557   1.175   0.436   9.508
17105WAT     H251558   1.111   0.515   9.636
17106WAT      O51559   9.754   5.255   4.892
17106WAT     H151560   9.777   5.295   4.804
17106WAT     H251561   9.838   5.238   4.944
17107WAT      O51562   4.776   1.742   9.706
17107WAT     H151563   4.771   1.773   9.611
17107WAT     H251564   4.731   1.654   9.715
17108WAT      O51565   4.531   2.358   2.496
17108WAT     H151566   4.485   2.429   2.443
17108WAT     H251567   4.599   2.400   2.556
17109WAT      O51568   5.314   5.176   5.216
17109WAT     H151569   5.234   5.157   5.160
17109WAT     H251570   5.285   5.199   5.309
17110WAT      O51571   3.140   1.033   8.049
17110WAT     H151572   3.157   1.065   7.956
17110WAT     H251573   3.220   1.054   8.107
17111WAT      O51574   4.111   9.256   4.264
17111WAT     H151575   4.076   9.302   4.182
17111WAT     H251576   4.199   9.297   4.290
17112WAT      O51577   6.251   3.919   4.855
17112WAT     H151578   6.309   3.932   4.775
17112WAT     H251579   6.172   3.864   4.831
17113WAT      O51580   1.666   5.056   7.940
17113WAT     H151581   1.710   5.017   7.860
17113WAT     H251582   1.652   5.154   7.926
17114WAT      O51583   5.477   8.856   7.179
17114WAT     H151584   5.529   8.848   7.095
17114WAT     H251585   5.449   8.765   7.211
17115WAT      O51586   8.121   6.742   9.202
17115WAT     H151587   8.110   6.661   9.145
17115WAT     H251588   8.114   6.824   9.146
17116WAT      O51589   7.643   9.242   9.695
17116WAT     H151590   7.680   9.335   9.702
17116WAT     H251591   7.546   9.247   9.673
17117WAT      O51592   5.353   8.477   2.854
17117WAT     H151593   5.423   8.408   2.837
17117WAT     H251594   5.264   8.443   2.825
17118WAT      O51595   9.497   8.771   2.278
17118WAT     H151596   9.503   8.765   2.178
17118WAT     H251597   9.503   8.867   2.306
17119WAT      O51598   1.731   3.797   3.900
17119WAT     H151599   1.745   3.707   3.859
17119WAT     H251600   1.795   3.863   3.859
17120WAT      O51601   4.053   2.431   2.525
17120WAT     H151602   3.959   2.399   2.524
17120WAT     H251603   4.054   2.531   2.535
17121WAT      O51604   1.471   9.097   1.284
17121WAT     H151605   1.499   9.092   1.188
17121WAT     H251606   1.547   9.068   1.342
17122WAT      O51607   0.462   9.178   6.137
17122WAT     H151608   0.398   9.199   6.063
17122WAT     H251609   0.469   9.257   6.198
17123WAT      O51610   2.872   8.751   3.184
17123WAT     H151611   2.814   8.823   3.146
17123WAT     H251612   2.909   8.781   3.272
17124WAT      O51613   8.487   2.367   7.227
17124WAT     H151614   8.546   2.291   7.197
17124WAT     H251615   8.399   2.331   7.256
17125WAT      O51616   6.314   0.399   0.313
17125WAT     H151617   6.229   0.449   0.298
17125WAT     H251618   6.314   0.314   0.260
17126WAT      O51619   7.036   2.216   4.552
17126WAT     H151620   7.106   2.281   4.582
17126WAT     H251621   7.013   2.233   4.456
17127WAT      O51622   1.068   5.103   3.388
17127WAT     H151623   1.066   5.030   3.456
17127WAT     H251624   1.042   5.066   3.299
17128WAT      O51625   3.363   1.376   9.774
17128WAT     H151626   3.427   1.316   9.822
17128WAT     H251627   3.269   1.346   9.791
17129WAT      O51628   6.444   5.519   5.138
17129WAT     H151629   6.541   5.502   5.150
17129WAT     H251630   6.417   5.598   5.194
17130WAT      O51631   6.483   8.498   4.507
17130WAT     H151632   6.571   8.514   4.464
17130WAT     H251633   6.457   8.402   4.495
17131WAT      O51634   1.822   7.411   6.025
17131WAT     H151635   1.817   7.311   6.020
17131WAT     H251636   1.873   7.437   6.107
17132WAT      O51637   9.034   3.009   9.564
17132WAT     H151638   9.129   3.039   9.576
17132WAT     H251639   9.028   2.948   9.486
17133WAT      O51640   5.700   8.202   1.877
17133WAT     H151641   5.663   8.137   1.811
17133WAT     H251642   5.783   8.164   1.918
17134WAT      O51643   4.954   4.536   8.613
17134WAT     H151644   4.983   4.480   8.691
17134WAT     H251645   4.872   4.588   8.638
17135WAT      O51646   6.254   0.343   2.440
17135WAT     H151647   6.257   0.247   2.413
17135WAT     H251648   6.181   0.389   2.389
17136WAT      O51649   2.209   7.703   9.892
17136WAT     H151650   2.279   7.644   9.851
17136WAT     H251651   2.118   7.670   9.865
17137WAT      O51652   4.116   5.746   4.772
17137WAT     H151653   4.141   5.650   4.785
17137WAT     H251654   4.117   5.768   4.675
17138WAT      O51655   4.809   7.103   9.258
17138WAT     H151656   4.845   7.167   9.326
17138WAT     H251657   4.709   7.099   9.265
17139WAT      O51658   8.339   1.251   6.573
17139WAT     H151659   8.261   1.193   6.594
17139WAT     H251660   8.349   1.260   6.474
17140WAT      O51661   5.174   3.889   2.631
17140WAT     H151662   5.088   3.839   2.621
17140WAT     H251663   5.214   3.905   2.541
17141WAT      O51664   8.762   7.777   8.299
17141WAT     H151665   8.717   7.822   8.222
17141WAT     H251666   8.754   7.678   8.289
17142WAT      O51667   0.873   4.575   9.604
17142WAT     H151668   0.892   4.501   9.668
17142WAT     H251669   0.781   4.611   9.622
17143WAT      O51670   5.845   6.028   4.728
17143WAT     H151671   5.835   5.936   4.691
17143WAT     H251672   5.825   6.095   4.656
17144WAT      O51673   9.448   8.581   9.126
17144WAT     H151674   9.413   8.522   9.054
17144WAT     H251675   9.483   8.666   9.085
17145WAT      O51676   6.748   9.195   9.205
17145WAT     H151677   6.710   9.135   9.134
17145WAT     H251678   6.674   9.233   9.260
17146WAT      O51679   7.373   3.068   3.590
17146WAT     H151680   7.470   3.083   3.571
17146WAT     H251681   7.359   3.054   3.688
17147WAT      O51682   4.984   2.180   3.354
17147WAT     H151683   4.894   2.215   3.379
17147WAT     H251684   4.974   2.094   3.304
17148WAT      O51685   0.419   6.198   0.999
17148WAT     H151686   0.510   6.209   1.038
17148WAT     H251687   0.370   6.285   1.003
17149WAT      O51688   2.368   7.400   8.182
17149WAT     H151689   2.401   7.358   8.098
17149WAT     H251690   2.430   7.378   8.257
17150WAT      O51691   8.138   3.726   3.236
17150WAT     H151692   8.081   3.732   3.154
17150WAT     H251693   8.106   3.792   3.304
17151WAT      O51694   9.192   2.508   8.894
17151WAT     H151695   9.248   2.529   8.814
17151WAT     H251696   9.168   2.594   8.940
17152WAT      O51697   8.750   6.921   1.651
17152WAT     H151698   8.730   7.019   1.640
17152WAT     H251699   8.781   6.904   1.745
17153WAT      O51700   7.279   5.482   5.001
17153WAT     H151701   7.237   5.473   5.091
17153WAT     H251702   7.219   5.532   4.940
17154WAT      O51703   1.608   2.787   3.924
17154WAT     H151704   1.515   2.757   3.903
17154WAT     H251705   1.674   2.728   3.877
17155WAT      O51706   5.890   6.610   2.216
17155WAT     H151707   5.818   6.626   2.283
17155WAT     H251708   5.978   6.603   2.262
17156WAT      O51709   2.155   5.659   0.234
17156WAT     H151710   2.207   5.690   0.154
17156WAT     H251711   2.116   5.739   0.280
17157WAT      O51712   5.130   0.781   3.749
17157WAT     H151713   5.206   0.846   3.748
17157WAT     H251714   5.163   0.691   3.779
17158WAT      O51715   9.109   7.692   2.684
17158WAT     H151716   9.068   7.668   2.596
17158WAT     H251717   9.037   7.703   2.753
17159WAT      O51718   0.921   6.874   4.550
17159WAT     H151719   0.858   6.918   4.614
17159WAT     H251720   1.015   6.900   4.572
17160WAT      O51721   9.876   9.359   0.131
17160WAT     H151722   9.792   9.396   0.171
17160WAT     H251723   9.852   9.294   0.059
17161WAT      O51724   6.694   3.198   8.578
17161WAT     H151725   6.703   3.171   8.482
17161WAT     H251726   6.750   3.279   8.596
17162WAT      O51727   7.172   4.852   4.475
17162WAT     H151728   7.086   4.806   4.496
17162WAT     H251729   7.247   4.802   4.519
17163WAT      O51730   1.093   7.648   0.085
17163WAT     H151731   1.136   7.655  -0.005
17163WAT     H251732   0.995   7.669   0.076
17164WAT      O51733   8.890   9.304   4.252
17164WAT     H151734   8.958   9.329   4.183
17164WAT     H251735   8.801   9.342   4.227
17165WAT      O51736   5.907   1.529   6.328
17165WAT     H151737   5.947   1.449   6.373
17165WAT     H251738   5.883   1.598   6.397
17166WAT      O51739   8.406   2.285   5.391
17166WAT     H151740   8.403   2.372   5.441
17166WAT     H251741   8.489   2.235   5.416
17167WAT      O51742   0.406   1.304   2.792
17167WAT     H151743   0.351   1.245   2.732
17167WAT     H251744   0.419   1.393   2.748
17168WAT      O51745   8.136   9.084   4.736
17168WAT     H151746   8.036   9.084   4.735
17168WAT     H251747   8.169   8.992   4.715
17169WAT      O51748   8.597   6.955   9.446
17169WAT     H151749   8.561   6.935   9.537
17169WAT     H251750   8.543   7.028   9.405
17170WAT      O51751   2.943   5.840   4.240
17170WAT     H151752   2.993   5.754   4.237
17170WAT     H251753   3.003   5.915   4.211
17171WAT      O51754   6.353   8.530   1.842
17171WAT     H151755   6.445   8.511   1.875
17171WAT     H251756   6.357   8.564   1.748
17172WAT      O51757   8.864   3.835   9.158
17172WAT     H151758   8.846   3.841   9.060
17172WAT     H251759   8.945   3.777   9.173
17173WAT      O51760   0.817   5.746   4.592
17173WAT     H151761   0.888   5.770   4.526
17173WAT     H251762   0.778   5.829   4.633
17174WAT      O51763   0.818   2.202   7.287
17174WAT     H151764   0.811   2.159   7.377
17174WAT     H251765   0.784   2.296   7.292
17175WAT      O51766   4.960   5.787   8.522
17175WAT     H151767   4.902   5.735   8.459
17175WAT     H251768   4.907   5.860   8.564
17176WAT      O51769   5.297   2.652   7.773
17176WAT     H151770   5.300   2.675   7.675
17176WAT     H251771   5.343   2.724   7.825
17177WAT      O51772   9.175   9.057   2.342
17177WAT     H151773   9.245   9.044   2.413
17177WAT     H251774   9.158   9.154   2.330
17178WAT      O51775   3.491   5.358   3.096
17178WAT     H151776   3.470   5.454   3.117
17178WAT     H251777   3.420   5.321   3.036
17179WAT      O51778   9.293   5.313   5.122
17179WAT     H151779   9.367   5.379   5.103
17179WAT     H251780   9.332   5.222   5.133
17180WAT      O51781   5.849   8.952   8.433
17180WAT     H151782   5.761   8.980   8.396
17180WAT     H251783   5.865   8.998   8.521
17181WAT      O51784   9.527   9.618   9.889
17181WAT     H151785   9.474   9.683   9.834
17181WAT     H251786   9.522   9.527   9.847
17182WAT      O51787   5.750   4.716   9.865
17182WAT     H151788   5.653   4.736   9.854
17182WAT     H251789   5.804   4.785   9.816
17183WAT      O51790   6.005   5.863   8.616
17183WAT     H151791   5.966   5.790   8.559
17183WAT     H251792   5.991   5.840   8.713
17184WAT      O51793   2.021   2.454   8.652
17184WAT     H151794   2.011   2.354   8.649
17184WAT     H251795   2.061   2.481   8.739
17185WAT      O51796   4.332   7.315   2.155
17185WAT     H151797   4.347   7.355   2.065
17185WAT     H251798   4.409   7.255   2.178
17186WAT      O51799   2.709   3.397   2.725
17186WAT     H151800   2.626   3.375   2.775
17186WAT     H251801   2.707   3.494   2.698
17187WAT      O51802   7.242   2.641   6.518
17187WAT     H151803   7.284   2.645   6.428
17187WAT     H251804   7.274   2.717   6.573
17188WAT      O51805   5.649   9.783   7.701
17188WAT     H151806   5.738   9.829   7.701
17188WAT     H251807   5.580   9.845   7.664
17189WAT      O51808   3.085   5.571   3.799
17189WAT     H151809   3.053   5.610   3.713
17189WAT     H251810   3.050   5.625   3.876
17190WAT      O51811   1.466   7.875   5.824
17190WAT     H151812   1.370   7.874   5.853
17190WAT     H251813   1.506   7.784   5.841
17191WAT      O51814   2.377   7.492   9.266
17191WAT     H151815   2.346   7.407   9.307
17191WAT     H251816   2.300   7.539   9.223
17192WAT      O51817   7.561   2.468   2.485
17192WAT     H151818   7.511   2.554   2.481
17192WAT     H251819   7.538   2.413   2.405
17193WAT      O51820   7.455   5.298   8.592
17193WAT     H151821   7.413   5.294   8.501
17193WAT     H251822   7.435   5.387   8.634
17194WAT      O51823   8.637   0.595   4.079
17194WAT     H151824   8.712   0.594   4.012
17194WAT     H251825   8.553   0.627   4.034
17195WAT      O51826   0.163   6.698   1.715
17195WAT     H151827   0.202   6.628   1.656
17195WAT     H251828   0.236   6.746   1.763
17196WAT      O51829   4.136   9.120   9.082
17196WAT     H151830   4.138   9.184   9.159
17196WAT     H251831   4.205   9.147   9.015
17197WAT      O51832   8.408   0.313   7.479
17197WAT     H151833   8.469   0.299   7.557
17197WAT     H251834   8.444   0.263   7.400
17198WAT      O51835   2.132   0.192   2.388
17198WAT     H151836   2.170   0.157   2.474
17198WAT     H251837   2.041   0.154   2.374
17199WAT      O51838   2.672   0.471   9.565
17199WAT     H151839   2.600   0.537   9.584
17199WAT     H251840   2.672   0.399   9.635
17200WAT      O51841   5.977   8.179   2.826
17200WAT     H151842   5.961   8.084   2.802
17200WAT     H251843   6.044   8.219   2.764
17201WAT      O51844   7.054   2.189   8.273
17201WAT     H151845   7.119   2.124   8.234
17201WAT     H251846   6.961   2.154   8.260
17202WAT      O51847   5.264   5.583   9.243
17202WAT     H151848   5.310   5.663   9.282
17202WAT     H251849   5.210   5.538   9.314
17203WAT      O51850   5.007   9.620   2.839
17203WAT     H151851   5.094   9.669   2.848
17203WAT     H251852   5.023   9.522   2.840
17204WAT      O51853   1.680   7.144   3.480
17204WAT     H151854   1.770   7.162   3.440
17204WAT     H251855   1.621   7.102   3.411
17205WAT      O51856   5.144   2.477   3.453
17205WAT     H151857   5.106   2.429   3.374
17205WAT     H251858   5.219   2.536   3.424
17206WAT      O51859   8.062   8.362   8.531
17206WAT     H151860   7.988   8.299   8.553
17206WAT     H251861   8.024   8.451   8.506
17207WAT      O51862   3.387   0.721   2.261
17207WAT     H151863   3.304   0.684   2.221
17207WAT     H251864   3.369   0.813   2.296
17208WAT      O51865   1.214   2.233   4.747
17208WAT     H151866   1.119   2.260   4.757
17208WAT     H251867   1.220   2.153   4.688
17209WAT      O51868   2.049   4.077   3.918
17209WAT     H151869   1.949   4.085   3.912
17209WAT     H251870   2.072   4.003   3.981
17210WAT      O51871   2.129   8.802   8.097
17210WAT     H151872   2.224   8.793   8.126
17210WAT     H251873   2.119   8.883   8.039
17211WAT      O51874   6.897   0.164   1.191
17211WAT     H151875   6.860   0.073   1.173
17211WAT     H251876   6.879   0.223   1.113
17212WAT      O51877   8.646   2.249   5.959
17212WAT     H151878   8.711   2.291   6.023
17212WAT     H251879   8.696   2.213   5.880
17213WAT      O51880   0.224   4.050   7.408
17213WAT     H151881   0.246   3.967   7.459
17213WAT     H251882   0.127   4.071   7.422
17214WAT      O51883   1.001   0.909   1.713
17214WAT     H151884   1.095   0.931   1.736
17214WAT     H251885   0.986   0.923   1.615
17215WAT      O51886   7.172   9.070   7.495
17215WAT     H151887   7.244   9.038   7.432
17215WAT     H251888   7.097   9.110   7.443
17216WAT      O51889   5.803   5.231   8.657
17216WAT     H151890   5.768   5.303   8.597
17216WAT     H251891   5.886   5.191   8.617
17217WAT      O51892   2.784   8.336   2.719
17217WAT     H151893   2.723   8.396   2.770
17217WAT     H251894   2.737   8.252   2.694
17218WAT      O51895   7.996   5.940   5.374
17218WAT     H151896   8.047   6.021   5.405
17218WAT     H251897   7.900   5.964   5.361
17219WAT      O51898   2.826   8.074   2.133
17219WAT     H151899   2.800   8.168   2.151
17219WAT     H251900   2.749   8.013   2.155
17220WAT      O51901   6.862   1.869   9.476
17220WAT     H151902   6.894   1.854   9.382
17220WAT     H251903   6.777   1.818   9.490
17221WAT      O51904   9.686   8.147   9.529
17221WAT     H151905   9.603   8.096   9.550
17221WAT     H251906   9.765   8.100   9.568
17222WAT      O51907   3.496   1.973   0.205
17222WAT     H151908   3.595   1.962   0.195
17222WAT     H251909   3.455   1.983   0.115
17223WAT      O51910   4.750   1.559   9.151
17223WAT     H151911   4.816   1.579   9.223
17223WAT     H251912   4.668   1.615   9.165
17224WAT      O51913   2.838   4.447   4.736
17224WAT     H151914   2.816   4.349   4.732
17224WAT     H251915   2.937   4.458   4.743
17225WAT      O51916   5.170   9.381   0.648
17225WAT     H151917   5.146   9.398   0.553
17225WAT     H251918   5.257   9.425   0.669
17226WAT      O51919   0.788   5.256   8.845
17226WAT     H151920   0.856   5.303   8.788
17226WAT     H251921   0.825   5.245   8.937
17227WAT      O51922   9.399   4.886   9.537
17227WAT     H151923   9.496   4.895   9.560
17227WAT     H251924   9.377   4.789   9.524
17228WAT      O51925   2.050   9.485   2.177
17228WAT     H151926   2.040   9.571   2.227
17228WAT     H251927   1.967   9.466   2.125
17229WAT      O51928   9.544   8.470   2.080
17229WAT     H151929   9.577   8.468   2.174
17229WAT     H251930   9.616   8.438   2.019
17230WAT      O51931   7.422   5.125   7.578
17230WAT     H151932   7.354   5.054   7.561
17230WAT     H251933   7.435   5.180   7.496
17231WAT      O51934   3.190   9.708   1.668
17231WAT     H151935   3.108   9.704   1.610
17231WAT     H251936   3.163   9.709   1.764
17232WAT      O51937   9.488   9.161   1.090
17232WAT     H151938   9.516   9.075   1.131
17232WAT     H251939   9.559   9.230   1.104
17233WAT      O51940   9.841   7.730   6.510
17233WAT     H151941   9.890   7.785   6.576
17233WAT     H251942   9.768   7.785   6.468
17234WAT      O51943   1.162   6.668   6.483
17234WAT     H151944   1.065   6.674   6.508
17234WAT     H251945   1.181   6.731   6.407
17235WAT      O51946   3.213   6.505   9.825
17235WAT     H151947   3.204   6.538   9.919
17235WAT     H251948   3.177   6.413   9.818
17236WAT      O51949   9.042   4.211   1.853
17236WAT     H151950   8.987   4.175   1.777
17236WAT     H251951   9.028   4.153   1.933
17237WAT      O51952   0.537   2.782   6.161
17237WAT     H151953   0.604   2.837   6.112
17237WAT     H251954   0.579   2.696   6.191
17238WAT      O51955   8.749   5.014   4.132
17238WAT     H151956   8.664   4.972   4.162
17238WAT     H251957   8.762   5.102   4.179
17239WAT      O51958   5.309   6.649   1.726
17239WAT     H151959   5.245   6.674   1.799
17239WAT     H251960   5.347   6.732   1.685
17240WAT      O51961   8.472   1.116   6.927
17240WAT     H151962   8.493   1.037   6.985
17240WAT     H251963   8.442   1.084   6.837
17241WAT      O51964   9.008   8.837   1.829
17241WAT     H151965   9.103   8.869   1.829
17241WAT     H251966   8.952   8.899   1.884
17242WAT      O51967   6.805   8.120   0.548
17242WAT     H151968   6.735   8.082   0.608
17242WAT     H251969   6.767   8.198   0.497
17243WAT      O51970   7.546   1.234   0.274
17243WAT     H151971   7.587   1.320   0.303
17243WAT     H251972   7.550   1.227   0.174
17244WAT      O51973   4.760   7.271   4.645
17244WAT     H151974   4.793   7.183   4.681
17244WAT     H251975   4.755   7.267   4.545
17245WAT      O51976   0.235   7.132   4.944
17245WAT     H151977   0.213   7.065   4.873
17245WAT     H251978   0.334   7.146   4.948
17246WAT      O51979   6.237   9.583   0.944
17246WAT     H151980   6.171   9.515   0.912
17246WAT     H251981   6.209   9.674   0.911
17247WAT      O51982   8.431   6.660   9.775
17247WAT     H151983   8.364   6.586   9.764
17247WAT     H251984   8.523   6.621   9.785
17248WAT      O51985   0.381   7.820   7.084
17248WAT     H151986   0.467   7.792   7.041
17248WAT     H251987   0.387   7.916   7.112
17249WAT      O51988   5.423   2.492   7.286
17249WAT     H151989   5.415   2.398   7.321
17249WAT     H251990   5.490   2.494   7.212
17250WAT      O51991   0.900   5.475   6.481
17250WAT     H151992   0.864   5.427   6.401
17250WAT     H251993   0.825   5.523   6.527
17251WAT      O51994   4.384   7.191   9.125
17251WAT     H151995   4.426   7.282   9.116
17251WAT     H251996   4.321   7.177   9.050
17252WAT      O51997   3.328   8.164   0.808
17252WAT     H151998   3.289   8.080   0.770
17252WAT     H251999   3.339   8.232   0.735
17253WAT      O52000   7.372   6.551   2.124
17253WAT     H152001   7.310   6.501   2.185
17253WAT     H252002   7.439   6.488   2.086
17254WAT      O52003   9.216   7.418   0.721
17254WAT     H152004   9.190   7.322   0.727
17254WAT     H252005   9.309   7.426   0.685
17255WAT      O52006   0.461   8.225   9.318
17255WAT     H152007   0.419   8.312   9.294
17255WAT     H252008   0.523   8.238   9.395
17256WAT      O52009   1.370   0.903   3.010
17256WAT     H152010   1.340   0.959   2.933
17256WAT     H252011   1.297   0.899   3.079
17257WAT      O52012   0.215   6.806   9.642
17257WAT     H152013   0.237   6.903   9.646
17257WAT     H252014   0.253   6.767   9.558
17258WAT      O52015   4.485   8.919   4.677
17258WAT     H152016   4.484   8.899   4.579
17258WAT     H252017   4.392   8.928   4.710
17259WAT      O52018   4.211   9.382   6.389
17259WAT     H152019   4.126   9.330   6.381
17259WAT     H252020   4.272   9.358   6.313
17260WAT      O52021   2.239   1.069   2.054
17260WAT     H152022   2.308   1.019   2.106
17260WAT     H252023   2.247   1.167   2.073
17261WAT      O52024   9.528   7.387   8.085
17261WAT     H152025   9.453   7.328   8.054
17261WAT     H252026   9.527   7.473   8.033
17262WAT      O52027   3.056   9.241   2.539
17262WAT     H152028   2.998   9.312   2.500
17262WAT     H252029   3.124   9.282   2.599
17263WAT      O52030   2.264   7.648   5.953
17263WAT     H152031   2.307   7.593   5.882
17263WAT     H252032   2.205   7.590   6.009
17264WAT      O52033   0.236   2.543   4.072
17264WAT     H152034   0.251   2.476   4.144
17264WAT     H252035   0.249   2.500   3.983
17265WAT      O52036   5.858   2.059   9.461
17265WAT     H152037   5.764   2.050   9.429
17265WAT     H252038   5.867   2.012   9.549
17266WAT      O52039   0.122   3.756   2.459
17266WAT     H152040   0.203   3.800   2.499
17266WAT     H252041   0.116   3.781   2.362
17267WAT      O52042   8.193   0.989   2.014
17267WAT     H152043   8.153   0.957   2.100
17267WAT     H252044   8.219   1.085   2.023
17268WAT      O52045   3.368   6.263   4.412
17268WAT     H152046   3.305   6.337   4.437
17268WAT     H252047   3.418   6.288   4.330
17269WAT      O52048   7.593   0.435   0.133
17269WAT     H152049   7.543   0.352   0.158
17269WAT     H252050   7.679   0.409   0.090
17270WAT      O52051   5.643   8.251   4.576
17270WAT     H152052   5.604   8.188   4.508
17270WAT     H252053   5.599   8.236   4.664
17271WAT      O52054   6.946   9.044   1.112
17271WAT     H152055   7.016   9.111   1.087
17271WAT     H252056   6.900   9.011   1.029
17272WAT      O52057   4.409   9.496   6.564
17272WAT     H152058   4.330   9.449   6.524
17272WAT     H252059   4.407   9.592   6.539
17273WAT      O52060   8.729   2.054   8.630
17273WAT     H152061   8.651   2.075   8.571
17273WAT     H252062   8.813   2.050   8.575
17274WAT      O52063   5.262   1.983   1.321
17274WAT     H152064   5.271   2.082   1.334
17274WAT     H252065   5.314   1.936   1.393
17275WAT      O52066   7.760   0.689   5.453
17275WAT     H152067   7.831   0.705   5.522
17275WAT     H252068   7.748   0.591   5.439
17276WAT      O52069   8.805   5.503   4.299
17276WAT     H152070   8.796   5.404   4.311
17276WAT     H252071   8.732   5.549   4.350
17277WAT      O52072   1.797   9.368   0.863
17277WAT     H152073   1.813   9.302   0.937
17277WAT     H252074   1.883   9.410   0.836
17278WAT      O52075   2.258   4.296   7.283
17278WAT     H152076   2.278   4.346   7.199
17278WAT     H252077   2.342   4.277   7.333
17279WAT      O52078   4.031   8.872   7.975
17279WAT     H152079   4.066   8.884   8.068
17279WAT     H252080   4.001   8.960   7.939
17280WAT      O52081   6.462   8.485   3.551
17280WAT     H152082   6.446   8.500   3.649
17280WAT     H252083   6.398   8.541   3.498
17281WAT      O52084   4.078   5.143   7.783
17281WAT     H152085   4.076   5.243   7.782
17281WAT     H252086   4.168   5.111   7.752
17282WAT      O52087   1.160   4.480   3.143
17282WAT     H152088   1.186   4.387   3.115
17282WAT     H252089   1.061   4.492   3.131
17283WAT      O52090   4.519   1.039   0.558
17283WAT     H152091   4.475   1.032   0.468
17283WAT     H252092   4.496   0.958   0.612
17284WAT      O52093   7.131   2.385   5.143
17284WAT     H152094   7.109   2.389   5.046
17284WAT     H252095   7.102   2.296   5.180
17285WAT      O52096   3.183   2.325   2.499
17285WAT     H152097   3.174   2.321   2.598
17285WAT     H252098   3.187   2.232   2.462
17286WAT      O52099   1.808   4.135   6.717
17286WAT     H152100   1.739   4.156   6.786
17286WAT     H252101   1.785   4.180   6.631
17287WAT      O52102   1.240   8.047   1.667
17287WAT     H152103   1.244   7.975   1.736
17287WAT     H252104   1.265   8.135   1.708
17288WAT      O52105   1.377   6.827   3.475
17288WAT     H152106   1.338   6.903   3.528
17288WAT     H252107   1.351   6.836   3.379
17289WAT      O52108   0.419   5.113   7.412
17289WAT     H152109   0.450   5.204   7.440
17289WAT     H252110   0.477   5.044   7.456
17290WAT      O52111   8.128   4.282   4.920
17290WAT     H152112   8.118   4.358   4.984
17290WAT     H252113   8.184   4.211   4.961
17291WAT      O52114   7.889   2.894   1.635
17291WAT     H152115   7.873   2.863   1.541
17291WAT     H252116   7.907   2.993   1.635
17292WAT      O52117   9.414   8.919   4.369
17292WAT     H152118   9.412   8.867   4.455
17292WAT     H252119   9.329   8.972   4.361
17293WAT      O52120   6.435   4.134   9.207
17293WAT     H152121   6.343   4.171   9.194
17293WAT     H252122   6.435   4.036   9.187
17294WAT      O52123   8.131   5.361   7.350
17294WAT     H152124   8.154   5.409   7.265
17294WAT     H252125   8.036   5.330   7.347
17295WAT      O52126   7.448   1.664   7.348
17295WAT     H152127   7.388   1.633   7.421
17295WAT     H252128   7.394   1.689   7.267
17296WAT      O52129   0.194   5.688   7.577
17296WAT     H152130   0.097   5.706   7.595
17296WAT     H252131   0.246   5.772   7.586
17297WAT      O52132   5.527   7.791   2.367
17297WAT     H152133   5.578   7.733   2.303
17297WAT     H252134   5.551   7.887   2.351
17298WAT      O52135   3.547   1.086   5.908
17298WAT     H152136   3.546   1.152   5.983
17298WAT     H252137   3.466   1.028   5.913
17299WAT      O52138   6.514   9.476   2.567
17299WAT     H152139   6.529   9.518   2.657
17299WAT     H252140   6.569   9.394   2.559
17300WAT      O52141   2.470   2.842   5.203
17300WAT     H152142   2.453   2.766   5.265
17300WAT     H252143   2.383   2.876   5.166
17301WAT      O52144   8.160   9.033   5.473
17301WAT     H152145   8.193   9.010   5.564
17301WAT     H252146   8.114   9.122   5.475
17302WAT      O52147   8.816   7.428   6.139
17302WAT     H152148   8.799   7.397   6.045
17302WAT     H252149   8.869   7.359   6.188
17303WAT      O52150   8.170   5.063   7.665
17303WAT     H152151   8.188   4.996   7.737
17303WAT     H252152   8.105   5.132   7.699
17304WAT      O52153   3.604   0.102   4.591
17304WAT     H152154   3.676   0.171   4.581
17304WAT     H252155   3.521   0.134   4.545
17305WAT      O52156   9.163   6.209   8.254
17305WAT     H152157   9.067   6.224   8.230
17305WAT     H252158   9.180   6.247   8.345
17306WAT      O52159   2.674   8.446   2.458
17306WAT     H152160   2.593   8.424   2.513
17306WAT     H252161   2.748   8.475   2.519
17307WAT      O52162   1.767   7.691   8.749
17307WAT     H152163   1.770   7.701   8.849
17307WAT     H252164   1.757   7.780   8.707
17308WAT      O52165   5.892   5.665   4.873
17308WAT     H152166   5.909   5.566   4.874
17308WAT     H252167   5.819   5.687   4.938
17309WAT      O52168   2.177   6.466   0.638
17309WAT     H152169   2.227   6.490   0.721
17309WAT     H252170   2.104   6.533   0.623
17310WAT      O52171   4.922   0.516   7.393
17310WAT     H152172   4.911   0.538   7.490
17310WAT     H252173   4.899   0.596   7.337
17311WAT      O52174   4.566   3.827   1.224
17311WAT     H152175   4.493   3.817   1.292
17311WAT     H252176   4.525   3.847   1.135
17312WAT      O52177   4.682   9.651   0.314
17312WAT     H152178   4.588   9.660   0.282
17312WAT     H252179   4.684   9.659   0.414
17313WAT      O52180   0.954   4.864   7.607
17313WAT     H152181   0.888   4.794   7.580
17313WAT     H252182   1.021   4.878   7.534
17314WAT      O52183   5.133   8.655   9.584
17314WAT     H152184   5.041   8.618   9.598
17314WAT     H252185   5.155   8.651   9.486
17315WAT      O52186   7.131   9.310   9.496
17315WAT     H152187   7.084   9.397   9.481
17315WAT     H252188   7.132   9.290   9.594
17316WAT      O52189   4.988   5.890   9.749
17316WAT     H152190   4.933   5.920   9.827
17316WAT     H252191   4.928   5.870   9.671
17317WAT      O52192   4.540   5.225   2.607
17317WAT     H152193   4.539   5.296   2.537
17317WAT     H252194   4.503   5.141   2.569
17318WAT      O52195   0.933   6.596   4.535
17318WAT     H152196   0.975   6.570   4.622
17318WAT     H252197   0.922   6.695   4.532
17319WAT      O52198   8.779   2.800   0.097
17319WAT     H152199   8.700   2.844   0.053
17319WAT     H252200   8.863   2.834   0.056
17320WAT      O52201   1.624   7.452   0.658
17320WAT     H152202   1.619   7.482   0.563
17320WAT     H252203   1.578   7.519   0.716
17321WAT      O52204   9.592   3.188   8.844
17321WAT     H152205   9.673   3.243   8.824
17321WAT     H252206   9.619   3.093   8.862
17322WAT      O52207   8.308   0.914   2.882
17322WAT     H152208   8.233   0.933   2.819
17322WAT     H252209   8.319   0.990   2.945
17323WAT      O52210   2.375   7.212   0.764
17323WAT     H152211   2.433   7.292   0.753
17323WAT     H252212   2.425   7.142   0.816
17324WAT      O52213   8.731   8.284   2.294
17324WAT     H152214   8.809   8.232   2.259
17324WAT     H252215   8.664   8.221   2.333
17325WAT      O52216   1.509   5.764   0.465
17325WAT     H152217   1.430   5.809   0.506
17325WAT     H252218   1.481   5.678   0.422
17326WAT      O52219   3.206   6.880   2.507
17326WAT     H152220   3.301   6.874   2.536
17326WAT     H252221   3.194   6.960   2.448
17327WAT      O52222   6.548   1.011   7.853
17327WAT     H152223   6.630   0.962   7.880
17327WAT     H252224   6.567   1.109   7.848
17328WAT      O52225   5.090   4.401   2.704
17328WAT     H152226   5.162   4.430   2.768
17328WAT     H252227   5.080   4.301   2.709
17329WAT      O52228   9.651   4.968   7.055
17329WAT     H152229   9.724   4.954   6.988
17329WAT     H252230   9.572   5.009   7.010
17330WAT      O52231   6.315   0.329   6.941
17330WAT     H152232   6.264   0.383   6.875
17330WAT     H252233   6.296   0.361   7.033
17331WAT      O52234   2.751   1.451   9.839
17331WAT     H152235   2.726   1.467   9.743
17331WAT     H252236   2.757   1.539   9.886
17332WAT      O52237   1.621   7.127   8.179
17332WAT     H152238   1.551   7.056   8.185
17332WAT     H252239   1.633   7.154   8.083
17333WAT      O52240   4.607   2.622   1.948
17333WAT     H152241   4.550   2.540   1.947
17333WAT     H252242   4.549   2.703   1.938
17334WAT      O52243   4.071   9.765   3.975
17334WAT     H152244   4.063   9.692   3.907
17334WAT     H252245   3.987   9.770   4.029
17335WAT      O52246   6.501   6.587   4.032
17335WAT     H152247   6.460   6.651   4.098
17335WAT     H252248   6.468   6.608   3.940
17336WAT      O52249   5.132   3.272   0.880
17336WAT     H152250   5.074   3.253   0.960
17336WAT     H252251   5.103   3.215   0.804
17337WAT      O52252   3.206   4.223   2.317
17337WAT     H152253   3.263   4.305   2.312
17337WAT     H252254   3.219   4.179   2.406
17338WAT      O52255   6.950   5.547   6.759
17338WAT     H152256   6.868   5.599   6.734
17338WAT     H252257   7.001   5.523   6.677
17339WAT      O52258   3.907   8.414   4.148
17339WAT     H152259   3.993   8.444   4.191
17339WAT     H252260   3.928   8.360   4.067
17340WAT      O52261   2.023   3.305   8.057
17340WAT     H152262   1.930   3.332   8.082
17340WAT     H252263   2.082   3.386   8.051
17341WAT      O52264   0.376   0.255   0.212
17341WAT     H152265   0.278   0.250   0.229
17341WAT     H252266   0.406   0.174   0.162
17342WAT      O52267   6.443   4.976   3.806
17342WAT     H152268   6.402   5.061   3.841
17342WAT     H252269   6.468   4.917   3.882
17343WAT      O52270   3.689   0.850   2.187
17343WAT     H152271   3.668   0.947   2.171
17343WAT     H252272   3.771   0.844   2.245
17344WAT      O52273   4.780   2.205   8.414
17344WAT     H152274   4.777   2.206   8.314
17344WAT     H252275   4.821   2.120   8.445
17345WAT      O52276   2.029   4.115   7.932
17345WAT     H152277   2.073   4.172   8.001
17345WAT     H252278   1.930   4.124   7.939
17346WAT      O52279   2.578   6.419   0.602
17346WAT     H152280   2.658   6.372   0.565
17346WAT     H252281   2.608   6.498   0.656
17347WAT      O52282   1.751   9.207   4.187
17347WAT     H152283   1.849   9.220   4.175
17347WAT     H252284   1.733   9.158   4.272
17348WAT      O52285   5.415   8.686   8.047
17348WAT     H152286   5.475   8.650   8.119
17348WAT     H252287   5.325   8.643   8.054
17349WAT      O52288   2.750   7.409   3.947
17349WAT     H152289   2.764   7.496   3.994
17349WAT     H252290   2.652   7.397   3.928
17350WAT      O52291   0.777   7.244   4.502
17350WAT     H152292   0.865   7.281   4.529
17350WAT     H252293   0.757   7.161   4.554
17351WAT      O52294   8.871   5.137   7.846
17351WAT     H152295   8.910   5.087   7.769
17351WAT     H252296   8.938   5.204   7.879
17352WAT      O52297   0.940   5.612   0.754
17352WAT     H152298   0.881   5.631   0.676
17352WAT     H252299   0.974   5.699   0.791
17353WAT      O52300   7.256   3.713   0.698
17353WAT     H152301   7.313   3.738   0.619
17353WAT     H252302   7.209   3.627   0.680
17354WAT      O52303   7.799   3.702   1.849
17354WAT     H152304   7.857   3.708   1.768
17354WAT     H252305   7.811   3.613   1.892
17355WAT      O52306   1.692   0.020   8.935
17355WAT     H152307   1.741  -0.040   8.871
17355WAT     H252308   1.599  -0.015   8.948
17356WAT      O52309   5.145   0.179   5.223
17356WAT     H152310   5.175   0.273   5.242
17356WAT     H252311   5.052   0.166   5.259
17357WAT      O52312   8.364   2.262   6.585
17357WAT     H152313   8.460   2.245   6.564
17357WAT     H252314   8.324   2.319   6.513
17358WAT      O52315   0.565   4.885   6.071
17358WAT     H152316   0.582   4.955   6.002
17358WAT     H252317   0.596   4.796   6.036
17359WAT      O52318   9.182   9.423   4.916
17359WAT     H152319   9.151   9.400   4.824
17359WAT     H252320   9.218   9.517   4.916
17360WAT      O52321   1.536   2.791   8.372
17360WAT     H152322   1.532   2.859   8.299
17360WAT     H252323   1.514   2.701   8.335
17361WAT      O52324   5.925   3.368   9.276
17361WAT     H152325   5.879   3.431   9.213
17361WAT     H252326   5.994   3.418   9.328
17362WAT      O52327   5.551   4.263   9.080
17362WAT     H152328   5.646   4.292   9.072
17362WAT     H252329   5.503   4.281   8.994
17363WAT      O52330   0.961   6.610   4.045
17363WAT     H152331   0.968   6.706   4.020
17363WAT     H252332   0.892   6.599   4.116
17364WAT      O52333   2.502   7.875   3.478
17364WAT     H152334   2.557   7.874   3.562
17364WAT     H252335   2.543   7.938   3.412
17365WAT      O52336   3.695   0.792   1.070
17365WAT     H152337   3.769   0.807   1.135
17365WAT     H252338   3.662   0.698   1.077
17366WAT      O52339   4.666   3.783   2.159
17366WAT     H152340   4.676   3.731   2.244
17366WAT     H252341   4.611   3.731   2.094
17367WAT      O52342   0.688   1.859   5.736
17367WAT     H152343   0.766   1.807   5.772
17367WAT     H252344   0.607   1.840   5.792
17368WAT      O52345   0.383   5.035   9.650
17368WAT     H152346   0.418   5.126   9.630
17368WAT     H252347   0.371   5.024   9.749
17369WAT      O52348   4.811   9.062   7.636
17369WAT     H152349   4.847   9.029   7.549
17369WAT     H252350   4.876   9.040   7.709
17370WAT      O52351   2.477   4.381   1.365
17370WAT     H152352   2.384   4.374   1.401
17370WAT     H252353   2.475   4.431   1.278
17371WAT      O52354   6.009   8.489   6.344
17371WAT     H152355   5.918   8.530   6.340
17371WAT     H252356   6.004   8.393   6.315
17372WAT      O52357   6.553   8.641   9.264
17372WAT     H152358   6.614   8.709   9.224
17372WAT     H252359   6.458   8.663   9.240
17373WAT      O52360   0.476   3.798   1.544
17373WAT     H152361   0.459   3.888   1.502
17373WAT     H252362   0.418   3.788   1.624
17374WAT      O52363   0.617   1.098   4.625
17374WAT     H152364   0.716   1.098   4.612
17374WAT     H252365   0.571   1.104   4.536
17375WAT      O52366   4.375   6.034   2.397
17375WAT     H152367   4.307   6.072   2.335
17375WAT     H252368   4.349   6.054   2.492
17376WAT      O52369   4.937   7.050   6.316
17376WAT     H152370   4.872   6.975   6.316
17376WAT     H252371   5.004   7.036   6.243
17377WAT      O52372   3.069   3.839   7.701
17377WAT     H152373   2.990   3.884   7.744
17377WAT     H252374   3.036   3.771   7.635
17378WAT      O52375   2.617   9.307   8.959
17378WAT     H152376   2.639   9.265   9.047
17378WAT     H252377   2.699   9.351   8.922
17379WAT      O52378   8.770   1.424   1.057
17379WAT     H152379   8.855   1.405   1.009
17379WAT     H252380   8.710   1.344   1.054
17380WAT      O52381   6.054   1.645   0.630
17380WAT     H152382   6.145   1.606   0.627
17380WAT     H252383   6.025   1.657   0.725
17381WAT      O52384   7.497   2.860   8.386
17381WAT     H152385   7.583   2.811   8.369
17381WAT     H252386   7.517   2.945   8.435
17382WAT      O52387   3.967   2.942   2.660
17382WAT     H152388   3.872   2.961   2.685
17382WAT     H252389   4.000   3.014   2.599
17383WAT      O52390   2.658   3.704   0.910
17383WAT     H152391   2.626   3.796   0.889
17383WAT     H252392   2.584   3.639   0.894
17384WAT      O52393   0.836   4.316   4.526
17384WAT     H152394   0.764   4.353   4.468
17384WAT     H252395   0.816   4.220   4.546
17385WAT      O52396   7.004   8.415   7.952
17385WAT     H152397   6.962   8.472   7.881
17385WAT     H252398   6.932   8.382   8.014
17386WAT      O52399   4.126   6.903   1.295
17386WAT     H152400   4.150   6.892   1.199
17386WAT     H252401   4.149   6.996   1.324
17387WAT      O52402   2.063   2.092   8.411
17387WAT     H152403   1.978   2.111   8.361
17387WAT     H252404   2.057   2.130   8.503
17388WAT      O52405   3.826   0.278   4.537
17388WAT     H152406   3.769   0.352   4.503
17388WAT     H252407   3.878   0.310   4.617
17389WAT      O52408   2.587   7.213   7.622
17389WAT     H152409   2.667   7.256   7.663
17389WAT     H252410   2.510   7.278   7.624
17390WAT      O52411   2.241   9.197   5.337
17390WAT     H152412   2.142   9.183   5.341
17390WAT     H252413   2.261   9.278   5.282
17391WAT      O52414   9.698   6.870   0.276
17391WAT     H152415   9.792   6.897   0.299
17391WAT     H252416   9.663   6.930   0.203
17392WAT      O52417   8.699   8.049   0.571
17392WAT     H152418   8.691   7.951   0.587
17392WAT     H252419   8.720   8.065   0.474
17393WAT      O52420   0.310   9.574   0.280
17393WAT     H152421   0.309   9.477   0.303
17393WAT     H252422   0.288   9.587   0.183
17394WAT      O52423   2.504   4.767   6.094
17394WAT     H152424   2.571   4.818   6.039
17394WAT     H252425   2.492   4.676   6.054
17395WAT      O52426   1.123   7.129   4.209
17395WAT     H152427   1.152   7.191   4.282
17395WAT     H252428   1.194   7.125   4.138
17396WAT      O52429  -0.004   4.677   2.328
17396WAT     H152430   0.045   4.594   2.356
17396WAT     H252431   0.060   4.753   2.321
17397WAT      O52432   5.176   7.148   5.241
17397WAT     H152433   5.189   7.202   5.158
17397WAT     H252434   5.255   7.158   5.301
17398WAT      O52435   9.423   6.523   5.195
17398WAT     H152436   9.362   6.583   5.144
17398WAT     H252437   9.487   6.577   5.249
17399WAT      O52438   9.291   6.252   6.246
17399WAT     H152439   9.379   6.256   6.293
17399WAT     H252440   9.306   6.245   6.147
17400WAT      O52441   5.583   2.352   9.260
17400WAT     H152442   5.558   2.360   9.357
17400WAT     H252443   5.521   2.407   9.205
17401WAT      O52444   3.356   7.765   1.699
17401WAT     H152445   3.369   7.827   1.622
17401WAT     H252446   3.442   7.718   1.720
17402WAT      O52447   9.766   2.737   7.894
17402WAT     H152448   9.754   2.662   7.829
17402WAT     H252449   9.819   2.810   7.851
17403WAT      O52450   5.375   2.035   1.702
17403WAT     H152451   5.352   1.972   1.776
17403WAT     H252452   5.292   2.070   1.659
17404WAT      O52453   3.151   8.347   5.397
17404WAT     H152454   3.072   8.371   5.453
17404WAT     H252455   3.235   8.371   5.444
17405WAT      O52456   6.248   9.543   1.252
17405WAT     H152457   6.263   9.562   1.349
17405WAT     H252458   6.239   9.630   1.203
17406WAT      O52459   3.967   9.334   8.674
17406WAT     H152460   3.878   9.325   8.629
17406WAT     H252461   3.982   9.430   8.699
17407WAT      O52462   2.654   1.610   0.976
17407WAT     H152463   2.589   1.621   1.051
17407WAT     H252464   2.666   1.513   0.955
17408WAT      O52465   4.252   1.921   4.511
17408WAT     H152466   4.242   1.915   4.412
17408WAT     H252467   4.299   1.840   4.545
17409WAT      O52468   4.365   2.310   1.232
17409WAT     H152469   4.457   2.338   1.204
17409WAT     H252470   4.333   2.369   1.306
17410WAT      O52471   7.541   6.586   2.386
17410WAT     H152472   7.476   6.636   2.443
17410WAT     H252473   7.496   6.557   2.302
17411WAT      O52474   1.824   6.214   3.805
17411WAT     H152475   1.774   6.147   3.861
17411WAT     H252476   1.789   6.305   3.824
17412WAT      O52477   8.005   0.298   7.087
17412WAT     H152478   8.030   0.212   7.131
17412WAT     H252479   8.032   0.375   7.145
17413WAT      O52480   2.168   5.274   0.119
17413WAT     H152481   2.072   5.245   0.121
17413WAT     H252482   2.176   5.366   0.156
17414WAT      O52483   1.762   6.821   8.788
17414WAT     H152484   1.690   6.785   8.847
17414WAT     H252485   1.783   6.916   8.813
17415WAT      O52486   4.572   7.211   5.656
17415WAT     H152487   4.498   7.182   5.716
17415WAT     H252488   4.622   7.131   5.622
17416WAT      O52489   5.229   6.922   0.256
17416WAT     H152490   5.244   7.020   0.246
17416WAT     H252491   5.253   6.875   0.171
17417WAT      O52492   8.382   7.532   3.292
17417WAT     H152493   8.476   7.564   3.299
17417WAT     H252494   8.372   7.448   3.347
17418WAT      O52495   0.411   5.608   1.975
17418WAT     H152496   0.409   5.530   2.039
17418WAT     H252497   0.422   5.693   2.027
17419WAT      O52498   0.003   3.069   4.496
17419WAT     H152499   0.021   3.167   4.504
17419WAT     H252500  -0.044   3.050   4.410
17420WAT      O52501   4.835   3.365   1.701
17420WAT     H152502   4.784   3.344   1.784
17420WAT     H252503   4.774   3.406   1.633
17421WAT      O52504   9.175   8.290   7.516
17421WAT     H152505   9.115   8.211   7.503
17421WAT     H252506   9.248   8.266   7.580
17422WAT      O52507   1.473   9.665   2.966
17422WAT     H152508   1.531   9.590   2.934
17422WAT     H252509   1.527   9.749   2.972
17423WAT      O52510   2.685   3.384   8.433
17423WAT     H152511   2.627   3.381   8.352
17423WAT     H252512   2.628   3.390   8.515
17424WAT      O52513   4.352   8.832   8.339
17424WAT     H152514   4.372   8.739   8.371
17424WAT     H252515   4.365   8.896   8.415
17425WAT      O52516   5.669   3.228   8.252
17425WAT     H152517   5.757   3.263   8.282
17425WAT     H252518   5.680   3.184   8.163
17426WAT      O52519   6.920   4.531   0.156
17426WAT     H152520   6.838   4.484   0.189
17426WAT     H252521   6.898   4.584   0.074
17427WAT      O52522   1.953   0.675   4.525
17427WAT     H152523   2.036   0.712   4.567
17427WAT     H252524   1.875   0.693   4.585
17428WAT      O52525   6.832   7.403   1.429
17428WAT     H152526   6.880   7.488   1.405
17428WAT     H252527   6.837   7.390   1.528
17429WAT      O52528   9.505   1.514   5.070
17429WAT     H152529   9.444   1.496   4.993
17429WAT     H252530   9.591   1.552   5.035
17430WAT      O52531   6.687   8.189   8.359
17430WAT     H152532   6.651   8.126   8.427
17430WAT     H252533   6.727   8.137   8.284
17431WAT      O52534   0.283   1.129   3.867
17431WAT     H152535   0.315   1.162   3.956
17431WAT     H252536   0.268   1.207   3.806
17432WAT      O52537   5.265   4.014   1.682
17432WAT     H152538   5.305   4.103   1.705
17432WAT     H252539   5.166   4.018   1.696
17433WAT      O52540   7.505   0.754   5.402
17433WAT     H152541   7.492   0.846   5.440
17433WAT     H252542   7.598   0.723   5.420
17434WAT      O52543   0.584   3.886   5.827
17434WAT     H152544   0.566   3.793   5.860
17434WAT     H252545   0.655   3.928   5.884
17435WAT      O52546   7.729   0.557   7.648
17435WAT     H152547   7.823   0.524   7.640
17435WAT     H252548   7.666   0.480   7.637
17436WAT      O52549   6.109   5.490   7.182
17436WAT     H152550   6.066   5.500   7.272
17436WAT     H252551   6.045   5.444   7.120
17437WAT      O52552   0.804   2.003   7.940
17437WAT     H152553   0.840   1.910   7.946
17437WAT     H252554   0.754   2.024   8.024
17438WAT      O52555   7.895   3.787   4.506
17438WAT     H152556   7.842   3.872   4.511
17438WAT     H252557   7.833   3.711   4.485
17439WAT      O52558   6.543   3.960   1.938
17439WAT     H152559   6.504   3.882   1.887
17439WAT     H252560   6.479   3.987   2.010
17440WAT      O52561   2.831   3.255   4.139
17440WAT     H152562   2.807   3.305   4.056
17440WAT     H252563   2.904   3.190   4.120
17441WAT      O52564   7.374   9.332   2.724
17441WAT     H152565   7.315   9.371   2.654
17441WAT     H252566   7.327   9.337   2.813
17442WAT      O52567   7.957   1.766   8.078
17442WAT     H152568   8.053   1.791   8.059
17442WAT     H252569   7.955   1.688   8.141
17443WAT      O52570   6.303   7.029   5.057
17443WAT     H152571   6.243   7.077   4.992
17443WAT     H252572   6.314   7.084   5.139
17444WAT      O52573   6.621   0.920   2.769
17444WAT     H152574   6.569   0.924   2.854
17444WAT     H252575   6.558   0.926   2.691
17445WAT      O52576   2.541   9.718   4.034
17445WAT     H152577   2.617   9.704   4.098
17445WAT     H252578   2.569   9.692   3.942
17446WAT      O52579   0.215   7.660   5.417
17446WAT     H152580   0.178   7.626   5.503
17446WAT     H252581   0.259   7.585   5.367
17447WAT      O52582   4.901   3.714   4.612
17447WAT     H152583   4.898   3.748   4.706
17447WAT     H252584   4.941   3.782   4.552
17448WAT      O52585   1.503   8.632   4.388
17448WAT     H152586   1.570   8.579   4.336
17448WAT     H252587   1.449   8.571   4.445
17449WAT      O52588   9.094   1.926   4.235
17449WAT     H152589   9.131   2.003   4.287
17449WAT     H252590   8.997   1.943   4.216
17450WAT      O52591   1.889   4.784   4.068
17450WAT     H152592   1.805   4.802   4.016
17450WAT     H252593   1.881   4.826   4.158
17451WAT      O52594   3.052   9.847   4.578
17451WAT     H152595   3.104   9.862   4.494
17451WAT     H252596   3.004   9.760   4.572
17452WAT      O52597   5.797   1.054   8.370
17452WAT     H152598   5.781   0.955   8.373
17452WAT     H252599   5.798   1.090   8.464
17453WAT      O52600   6.466   1.393   8.512
17453WAT     H152601   6.489   1.459   8.441
17453WAT     H252602   6.454   1.440   8.599
17454WAT      O52603   8.033   9.710   4.082
17454WAT     H152604   8.093   9.790   4.092
17454WAT     H252605   7.949   9.738   4.035
17455WAT      O52606   7.069   5.320   4.128
17455WAT     H152607   7.154   5.271   4.110
17455WAT     H252608   7.057   5.392   4.060
17456WAT      O52609   7.397   0.232   0.040
17456WAT     H152610   7.333   0.299   0.076
17456WAT     H252611   7.347   0.154   0.003
17457WAT      O52612   1.977   2.588   2.009
17457WAT     H152613   1.903   2.521   1.998
17457WAT     H252614   2.035   2.560   2.086
17458WAT      O52615   6.130   7.805   3.992
17458WAT     H152616   6.066   7.872   4.029
17458WAT     H252617   6.093   7.713   4.003
17459WAT      O52618   6.792   0.291   7.103
17459WAT     H152619   6.791   0.385   7.070
17459WAT     H252620   6.775   0.228   7.027
17460WAT      O52621   1.224   1.649   0.816
17460WAT     H152622   1.278   1.630   0.898
17460WAT     H252623   1.213   1.748   0.807
17461WAT      O52624   8.933   9.543   0.619
17461WAT     H152625   8.888   9.558   0.707
17461WAT     H252626   8.949   9.632   0.575
17462WAT      O52627   5.336   1.728   0.227
17462WAT     H152628   5.255   1.674   0.202
17462WAT     H252629   5.411   1.666   0.251
17463WAT      O52630   9.405   6.125   7.527
17463WAT     H152631   9.403   6.220   7.557
17463WAT     H252632   9.499   6.095   7.517
17464WAT      O52633   0.938   6.968   7.289
17464WAT     H152634   0.962   7.063   7.269
17464WAT     H252635   0.973   6.910   7.216
17465WAT      O52636   7.351   8.820   2.503
17465WAT     H152637   7.444   8.856   2.498
17465WAT     H252638   7.290   8.878   2.449
17466WAT      O52639   0.345   2.544   2.580
17466WAT     H152640   0.405   2.548   2.660
17466WAT     H252641   0.396   2.507   2.502
17467WAT      O52642   8.477   2.315   2.743
17467WAT     H152643   8.377   2.307   2.733
17467WAT     H252644   8.521   2.253   2.678
17468WAT      O52645   9.741   3.015   2.222
17468WAT     H152646   9.707   3.109   2.231
17468WAT     H252647   9.690   2.968   2.150
17469WAT      O52648   5.051   3.196   1.664
17469WAT     H152649   5.048   3.202   1.565
17469WAT     H252650   4.967   3.236   1.703
17470WAT      O52651   9.632   6.893   9.391
17470WAT     H152652   9.706   6.960   9.390
17470WAT     H252653   9.643   6.829   9.316
17471WAT      O52654   8.115   3.911   3.414
17471WAT     H152655   8.104   4.008   3.390
17471WAT     H252656   8.137   3.903   3.511
17472WAT      O52657   8.287   4.802   8.188
17472WAT     H152658   8.232   4.879   8.159
17472WAT     H252659   8.369   4.795   8.131
17473WAT      O52660   7.363   1.767   5.399
17473WAT     H152661   7.365   1.862   5.366
17473WAT     H252662   7.392   1.706   5.325
17474WAT      O52663   7.736   5.205   5.803
17474WAT     H152664   7.730   5.116   5.849
17474WAT     H252665   7.698   5.275   5.862
17475WAT      O52666   4.935   3.703   4.004
17475WAT     H152667   4.959   3.629   4.067
17475WAT     H252668   4.957   3.791   4.047
17476WAT      O52669   8.210   8.093   5.721
17476WAT     H152670   8.220   8.189   5.747
17476WAT     H252671   8.130   8.083   5.661
17477WAT      O52672   4.287   5.698   4.160
17477WAT     H152673   4.279   5.620   4.222
17477WAT     H252674   4.204   5.705   4.105
17478WAT      O52675   0.634   0.040   1.673
17478WAT     H152676   0.584  -0.044   1.698
17478WAT     H252677   0.718   0.015   1.625
17479WAT      O52678   3.457   3.771   4.963
17479WAT     H152679   3.509   3.698   5.006
17479WAT     H252680   3.369   3.735   4.930
17480WAT      O52681   4.911   5.368   5.745
17480WAT     H152682   4.814   5.344   5.743
17480WAT     H252683   4.920   5.468   5.750
17481WAT      O52684   8.731   1.867   2.471
17481WAT     H152685   8.661   1.905   2.531
17481WAT     H252686   8.784   1.798   2.522
17482WAT      O52687   4.857   2.976   8.074
17482WAT     H152688   4.860   2.942   8.168
17482WAT     H252689   4.883   3.073   8.072
17483WAT      O52690   4.637   3.919   7.640
17483WAT     H152691   4.588   3.913   7.727
17483WAT     H252692   4.687   3.834   7.624
17484WAT      O52693   9.301   6.213   5.955
17484WAT     H152694   9.396   6.196   5.927
17484WAT     H252695   9.279   6.309   5.939
17485WAT      O52696   5.024   7.579   1.162
17485WAT     H152697   4.993   7.503   1.219
17485WAT     H252698   4.947   7.612   1.106
17486WAT      O52699   3.981   7.706   7.880
17486WAT     H152700   3.969   7.631   7.946
17486WAT     H252701   3.910   7.775   7.896
17487WAT      O52702   7.416   3.178   3.050
17487WAT     H152703   7.500   3.161   2.998
17487WAT     H252704   7.439   3.191   3.147
17488WAT      O52705   4.716   2.192   0.135
17488WAT     H152706   4.635   2.147   0.098
17488WAT     H252707   4.776   2.124   0.175
17489WAT      O52708   0.400   6.633   1.252
17489WAT     H152709   0.388   6.544   1.296
17489WAT     H252710   0.449   6.621   1.166
17490WAT      O52711   8.272   2.179   4.659
17490WAT     H152712   8.368   2.185   4.688
17490WAT     H252713   8.248   2.083   4.643
17491WAT      O52714   0.379   2.091   0.264
17491WAT     H152715   0.290   2.061   0.299
17491WAT     H252716   0.397   2.046   0.177
17492WAT      O52717   9.798   0.743   0.948
17492WAT     H152718   9.894   0.768   0.959
17492WAT     H252719   9.785   0.703   0.857
17493WAT      O52720   7.390   4.821   3.172
17493WAT     H152721   7.352   4.882   3.241
17493WAT     H252722   7.482   4.793   3.199
17494WAT      O52723   7.805   5.683   7.556
17494WAT     H152724   7.882   5.698   7.618
17494WAT     H252725   7.817   5.595   7.510
17495WAT      O52726   6.095   5.537   5.301
17495WAT     H152727   6.174   5.480   5.323
17495WAT     H252728   6.016   5.507   5.354
17496WAT      O52729   3.637   3.295   8.632
17496WAT     H152730   3.598   3.203   8.632
17496WAT     H252731   3.642   3.329   8.726
17497WAT      O52732   9.174   0.922   7.039
17497WAT     H152733   9.264   0.887   7.012
17497WAT     H252734   9.131   0.967   6.961
17498WAT      O52735   5.222   4.557   5.346
17498WAT     H152736   5.308   4.524   5.385
17498WAT     H252737   5.236   4.583   5.250
17499WAT      O52738   2.034   1.522   2.933
17499WAT     H152739   2.007   1.477   3.018
17499WAT     H252740   2.034   1.456   2.858
17500WAT      O52741   0.939   1.501   6.072
17500WAT     H152742   0.900   1.581   6.025
17500WAT     H252743   1.023   1.474   6.026
17501WAT      O52744   4.306   1.110   7.536
17501WAT     H152745   4.401   1.123   7.564
17501WAT     H252746   4.246   1.165   7.595
17502WAT      O52747   1.129   1.751   9.532
17502WAT     H152748   1.065   1.675   9.515
17502WAT     H252749   1.123   1.817   9.458
17503WAT      O52750   8.334   1.414   7.537
17503WAT     H152751   8.432   1.435   7.546
17503WAT     H252752   8.311   1.409   7.440
17504WAT      O52753   2.936   9.521   4.889
17504WAT     H152754   2.860   9.455   4.894
17504WAT     H252755   2.899   9.614   4.893
17505WAT      O52756   2.186   8.718   7.099
17505WAT     H152757   2.137   8.633   7.082
17505WAT     H252758   2.172   8.781   7.023
17506WAT      O52759   7.901   2.160   6.010
17506WAT     H152760   7.822   2.138   6.066
17506WAT     H252761   7.899   2.256   5.984
17507WAT      O52762   4.422   7.183   7.820
17507WAT     H152763   4.397   7.198   7.915
17507WAT     H252764   4.342   7.152   7.769
17508WAT      O52765   1.005   8.427   0.306
17508WAT     H152766   0.957   8.466   0.385
17508WAT     H252767   1.045   8.339   0.331
17509WAT      O52768   6.894   9.787   8.799
17509WAT     H152769   6.931   9.861   8.855
17509WAT     H252770   6.853   9.718   8.859
17510WAT      O52771   9.656   0.127   2.820
17510WAT     H152772   9.691   0.101   2.730
17510WAT     H252773   9.693   0.216   2.846
17511WAT      O52774   8.665   5.582   5.280
17511WAT     H152775   8.748   5.634   5.300
17511WAT     H252776   8.647   5.519   5.355
17512WAT      O52777   9.050   4.994   0.822
17512WAT     H152778   8.963   5.029   0.857
17512WAT     H252779   9.034   4.946   0.735
17513WAT      O52780   0.713   1.809   7.469
17513WAT     H152781   0.655   1.867   7.526
17513WAT     H252782   0.714   1.716   7.506
17514WAT      O52783   4.850   9.637   3.073
17514WAT     H152784   4.898   9.639   2.985
17514WAT     H252785   4.786   9.714   3.077
17515WAT      O52786   0.498   5.683   7.446
17515WAT     H152787   0.499   5.717   7.540
17515WAT     H252788   0.421   5.724   7.397
17516WAT      O52789   7.926   5.353   4.318
17516WAT     H152790   7.885   5.439   4.348
17516WAT     H252791   7.861   5.303   4.260
17517WAT      O52792   1.428   4.262   2.851
17517WAT     H152793   1.400   4.353   2.820
17517WAT     H252794   1.460   4.267   2.945
17518WAT      O52795   0.162   7.762   2.219
17518WAT     H152796   0.172   7.837   2.153
17518WAT     H252797   0.244   7.705   2.217
17519WAT      O52798   8.512   6.031   1.227
17519WAT     H152799   8.420   6.049   1.191
17519WAT     H252800   8.580   6.053   1.157
17520WAT      O52801   4.615   1.797   6.944
17520WAT     H152802   4.607   1.882   6.996
17520WAT     H252803   4.702   1.753   6.965
17521WAT      O52804   0.885   2.995   1.122
17521WAT     H152805   0.951   2.938   1.173
17521WAT     H252806   0.933   3.073   1.082
17522WAT      O52807   9.257   8.814   9.231
17522WAT     H152808   9.297   8.760   9.158
17522WAT     H252809   9.164   8.840   9.208
17523WAT      O52810   2.845   0.624   4.396
17523WAT     H152811   2.897   0.706   4.371
17523WAT     H252812   2.900   0.543   4.374
17524WAT      O52813   3.947   4.315   9.146
17524WAT     H152814   3.894   4.251   9.091
17524WAT     H252815   3.985   4.386   9.086
17525WAT      O52816   0.109   0.562   1.753
17525WAT     H152817   0.118   0.576   1.852
17525WAT     H252818   0.104   0.464   1.734
17526WAT      O52819   8.072   1.147   0.378
17526WAT     H152820   8.170   1.161   0.367
17526WAT     H252821   8.050   1.051   0.361
17527WAT      O52822   1.782   9.381   0.592
17527WAT     H152823   1.774   9.358   0.689
17527WAT     H252824   1.829   9.306   0.544
17528WAT      O52825   2.028   5.899   7.588
17528WAT     H152826   1.985   5.973   7.535
17528WAT     H252827   2.015   5.812   7.540
17529WAT      O52828   3.130   9.668   7.245
17529WAT     H152829   3.127   9.610   7.327
17529WAT     H252830   3.037   9.698   7.223
17530WAT      O52831   1.494   3.839   1.216
17530WAT     H152832   1.498   3.812   1.313
17530WAT     H252833   1.401   3.829   1.183
17531WAT      O52834   7.311   1.693   1.531
17531WAT     H152835   7.380   1.681   1.461
17531WAT     H252836   7.307   1.612   1.589
17532WAT      O52837   3.929   0.961   9.206
17532WAT     H152838   3.996   0.888   9.216
17532WAT     H252839   3.935   0.999   9.114
17533WAT      O52840   6.618   3.294   1.809
17533WAT     H152841   6.575   3.204   1.808
17533WAT     H252842   6.570   3.354   1.745
17534WAT      O52843   9.212   7.007   8.197
17534WAT     H152844   9.310   7.028   8.191
17534WAT     H252845   9.171   7.014   8.106
17535WAT      O52846   7.235   5.080   0.134
17535WAT     H152847   7.172   5.092   0.058
17535WAT     H252848   7.329   5.087   0.101
17536WAT      O52849   4.795   0.058   0.388
17536WAT     H152850   4.759  -0.016   0.330
17536WAT     H252851   4.888   0.036   0.415
17537WAT      O52852   8.730   3.542   2.581
17537WAT     H152853   8.800   3.580   2.642
17537WAT     H252854   8.763   3.457   2.541
17538WAT      O52855   0.261   6.008   5.213
17538WAT     H152856   0.178   6.047   5.173
17538WAT     H252857   0.336   6.016   5.147
17539WAT      O52858   0.838   1.983   2.192
17539WAT     H152859   0.799   2.074   2.209
17539WAT     H252860   0.919   1.971   2.248
17540WAT      O52861   1.957   5.575   0.009
17540WAT     H152862   1.983   5.568   0.106
17540WAT     H252863   1.950   5.672  -0.016
17541WAT      O52864   9.481   1.286   6.012
17541WAT     H152865   9.501   1.312   6.106
17541WAT     H252866   9.509   1.360   5.951
17542WAT      O52867   2.637   9.400   4.627
17542WAT     H152868   2.556   9.458   4.625
17542WAT     H252869   2.629   9.329   4.556
17543WAT      O52870   2.952   9.150   0.766
17543WAT     H152871   2.943   9.238   0.813
17543WAT     H252872   2.878   9.089   0.796
17544WAT      O52873   6.652   1.685   9.000
17544WAT     H152874   6.648   1.585   8.995
17544WAT     H252875   6.741   1.713   9.037
17545WAT      O52876   3.482   5.053   7.904
17545WAT     H152877   3.548   5.065   7.831
17545WAT     H252878   3.464   4.956   7.918
17546WAT      O52879   5.855   6.615   4.732
17546WAT     H152880   5.859   6.568   4.820
17546WAT     H252881   5.819   6.708   4.746
17547WAT      O52882   6.359   1.726   8.579
17547WAT     H152883   6.280   1.678   8.616
17547WAT     H252884   6.410   1.769   8.653
17548WAT      O52885   4.825   6.128   1.722
17548WAT     H152886   4.801   6.204   1.662
17548WAT     H252887   4.750   6.062   1.724
17549WAT      O52888   1.088   9.273   8.784
17549WAT     H152889   1.142   9.268   8.869
17549WAT     H252890   1.045   9.185   8.767
17550WAT      O52891   0.147   4.116   3.956
17550WAT     H152892   0.070   4.130   3.895
17550WAT     H252893   0.195   4.032   3.930
17551WAT      O52894   3.688   7.739   6.761
17551WAT     H152895   3.690   7.775   6.668
17551WAT     H252896   3.774   7.693   6.782
17552WAT      O52897   2.609   2.495   6.598
17552WAT     H152898   2.550   2.498   6.518
17552WAT     H252899   2.687   2.556   6.584
17553WAT      O52900   8.349   1.732   1.401
17553WAT     H152901   8.252   1.757   1.401
17553WAT     H252902   8.404   1.811   1.426
17554WAT      O52903   4.003   5.501   6.207
17554WAT     H152904   4.043   5.417   6.246
17554WAT     H252905   4.073   5.572   6.202
17555WAT      O52906   7.682   8.995   3.849
17555WAT     H152907   7.687   8.895   3.861
17555WAT     H252908   7.653   9.038   3.934
17556WAT      O52909   0.405   0.388   0.581
17556WAT     H152910   0.404   0.296   0.543
17556WAT     H252911   0.343   0.393   0.659
17557WAT      O52912   4.367   7.128   5.192
17557WAT     H152913   4.353   7.192   5.116
17557WAT     H252914   4.428   7.169   5.260
17558WAT      O52915   4.448   7.227   0.026
17558WAT     H152916   4.545   7.218   0.048
17558WAT     H252917   4.403   7.139   0.041
17559WAT      O52918   9.606   4.248   7.628
17559WAT     H152919   9.534   4.267   7.562
17559WAT     H252920   9.596   4.154   7.662
17560WAT      O52921   3.323   6.645   2.369
17560WAT     H152922   3.350   6.565   2.422
17560WAT     H252923   3.254   6.698   2.419
17561WAT      O52924   8.906   7.099   1.342
17561WAT     H152925   8.857   7.013   1.356
17561WAT     H252926   8.961   7.119   1.423
17562WAT      O52927   5.056   4.909   8.079
17562WAT     H152928   5.074   5.006   8.068
17562WAT     H252929   5.025   4.870   7.992
17563WAT      O52930   0.122   3.073   7.279
17563WAT     H152931   0.149   3.041   7.370
17563WAT     H252932   0.045   3.018   7.246
17564WAT      O52933   4.915   9.607   5.593
17564WAT     H152934   4.955   9.625   5.504
17564WAT     H252935   4.986   9.574   5.656
17565WAT      O52936   7.205   8.561   7.473
17565WAT     H152937   7.288   8.586   7.423
17565WAT     H252938   7.150   8.643   7.489
17566WAT      O52939   3.548   3.711   8.616
17566WAT     H152940   3.469   3.678   8.667
17566WAT     H252941   3.559   3.810   8.631
17567WAT      O52942   0.236   3.806   1.316
17567WAT     H152943   0.286   3.741   1.373
17567WAT     H252944   0.254   3.786   1.219
17568WAT      O52945   9.717   6.754   8.607
17568WAT     H152946   9.807   6.725   8.573
17568WAT     H252947   9.730   6.822   8.680
17569WAT      O52948   1.566   8.557   1.339
17569WAT     H152949   1.526   8.644   1.311
17569WAT     H252950   1.665   8.567   1.348
17570WAT      O52951   6.001   1.065   6.731
17570WAT     H152952   5.933   1.074   6.803
17570WAT     H252953   5.961   1.095   6.644
17571WAT      O52954   8.220   5.211   7.044
17571WAT     H152955   8.170   5.174   7.122
17571WAT     H252956   8.225   5.142   6.972
17572WAT      O52957   5.501   2.708   8.692
17572WAT     H152958   5.559   2.685   8.614
17572WAT     H252959   5.496   2.807   8.703
17573WAT      O52960   0.082   3.530   7.702
17573WAT     H152961   0.123   3.586   7.630
17573WAT     H252962   0.059   3.440   7.666
17574WAT      O52963   9.766   5.430   7.837
17574WAT     H152964   9.712   5.465   7.761
17574WAT     H252965   9.834   5.498   7.864
17575WAT      O52966   9.674   3.540   9.250
17575WAT     H152967   9.686   3.636   9.276
17575WAT     H252968   9.626   3.535   9.162
17576WAT      O52969   8.531   4.396   1.365
17576WAT     H152970   8.540   4.346   1.452
17576WAT     H252971   8.437   4.389   1.332
17577WAT      O52972   3.285   5.849   3.564
17577WAT     H152973   3.375   5.818   3.595
17577WAT     H252974   3.245   5.908   3.635
17578WAT      O52975   3.547   2.021   8.119
17578WAT     H152976   3.486   2.023   8.199
17578WAT     H252977   3.525   2.098   8.058
17579WAT      O52978   2.537   7.003   8.681
17579WAT     H152979   2.496   6.996   8.772
17579WAT     H252980   2.569   6.912   8.653
17580WAT      O52981   7.158   9.335   1.833
17580WAT     H152982   7.175   9.303   1.740
17580WAT     H252983   7.151   9.435   1.833
17581WAT      O52984   9.279   9.661   7.701
17581WAT     H152985   9.334   9.628   7.625
17581WAT     H252986   9.217   9.589   7.732
17582WAT      O52987   8.605   5.283   6.132
17582WAT     H152988   8.650   5.194   6.116
17582WAT     H252989   8.508   5.275   6.112
17583WAT      O52990   9.485   9.250   0.770
17583WAT     H152991   9.479   9.238   0.869
17583WAT     H252992   9.530   9.337   0.750
17584WAT      O52993   5.536   1.777   2.851
17584WAT     H152994   5.514   1.756   2.946
17584WAT     H252995   5.572   1.695   2.806
17585WAT      O52996   9.200   1.925   2.484
17585WAT     H152997   9.181   1.847   2.543
17585WAT     H252998   9.125   1.937   2.419
17586WAT      O52999   7.626   9.707   7.043
17586WAT     H153000   7.555   9.751   6.988
17586WAT     H253001   7.589   9.681   7.132
17587WAT      O53002   7.562   6.218   5.013
17587WAT     H153003   7.623   6.147   4.976
17587WAT     H253004   7.600   6.252   5.099
17588WAT      O53005   3.477   6.719   2.806
17588WAT     H153006   3.430   6.655   2.745
17588WAT     H253007   3.497   6.804   2.758
17589WAT      O53008   1.378   9.798   4.184
17589WAT     H153009   1.301   9.820   4.243
17589WAT     H253010   1.448   9.750   4.237
17590WAT      O53011   1.317   1.597   8.816
17590WAT     H153012   1.257   1.652   8.757
17590WAT     H253013   1.386   1.656   8.857
17591WAT      O53014   6.713   7.809   6.935
17591WAT     H153015   6.652   7.823   6.857
17591WAT     H253016   6.753   7.718   6.929
17592WAT      O53017   2.337   2.990   9.062
17592WAT     H153018   2.321   2.899   9.100
17592WAT     H253019   2.436   3.005   9.054
17593WAT      O53020   6.739   5.016   8.438
17593WAT     H153021   6.741   5.115   8.450
17593WAT     H253022   6.738   4.972   8.528
17594WAT      O53023   3.039   9.506   7.429
17594WAT     H153024   2.945   9.539   7.433
17594WAT     H253025   3.067   9.473   7.519
17595WAT      O53026   9.527   3.231   8.116
17595WAT     H153027   9.564   3.181   8.037
17595WAT     H253028   9.530   3.171   8.197
17596WAT      O53029   2.620   0.939   5.331
17596WAT     H153030   2.624   1.033   5.367
17596WAT     H253031   2.527   0.904   5.342
17597WAT      O53032   4.974   5.117   6.530
17597WAT     H153033   5.006   5.024   6.509
17597WAT     H253034   4.874   5.117   6.532
17598WAT      O53035   4.996   5.848   5.491
17598WAT     H153036   4.964   5.842   5.396
17598WAT     H253037   5.002   5.944   5.518
17599WAT      O53038   4.678   7.787   0.749
17599WAT     H153039   4.759   7.814   0.801
17599WAT     H253040   4.694   7.697   0.707
17600WAT      O53041   6.988   8.019   0.398
17600WAT     H153042   7.076   8.066   0.405
17600WAT     H253043   6.925   8.053   0.468
17601WAT      O53044   5.932   9.714   1.186
17601WAT     H153045   5.947   9.765   1.271
17601WAT     H253046   5.883   9.629   1.207
17602WAT      O53047   4.145   0.434   6.320
17602WAT     H153048   4.058   0.473   6.289
17602WAT     H253049   4.174   0.479   6.405
17603WAT      O53050   7.447   6.244   2.736
17603WAT     H153051   7.358   6.247   2.782
17603WAT     H253052   7.519   6.264   2.802
17604WAT      O53053   0.476   3.008   1.356
17604WAT     H153054   0.528   3.067   1.418
17604WAT     H253055   0.431   2.936   1.409
17605WAT      O53056   9.220   3.015   4.680
17605WAT     H153057   9.244   2.990   4.586
17605WAT     H253058   9.120   3.024   4.687
17606WAT      O53059   9.114   3.188   0.663
17606WAT     H153060   9.015   3.180   0.653
17606WAT     H253061   9.145   3.272   0.619
17607WAT      O53062   6.655   1.946   5.390
17607WAT     H153063   6.630   2.002   5.468
17607WAT     H253064   6.676   2.005   5.312
17608WAT      O53065   7.790   3.769   2.800
17608WAT     H153066   7.856   3.790   2.727
17608WAT     H253067   7.705   3.736   2.759
17609WAT      O53068   7.310   2.237   0.530
17609WAT     H153069   7.341   2.332   0.516
17609WAT     H253070   7.385   2.175   0.509
17610WAT      O53071   2.231   4.174   1.323
17610WAT     H153072   2.254   4.092   1.375
17610WAT     H253073   2.252   4.160   1.226
17611WAT      O53074   2.370   2.609   3.615
17611WAT     H153075   2.439   2.638   3.681
17611WAT     H253076   2.286   2.660   3.631
17612WAT      O53077   4.285   3.481   0.019
17612WAT     H153078   4.335   3.400  -0.010
17612WAT     H253079   4.256   3.533  -0.061
17613WAT      O53080   2.066   4.260   6.198
17613WAT     H153081   2.100   4.189   6.258
17613WAT     H253082   2.110   4.347   6.220
17614WAT      O53083   1.515   5.464   0.795
17614WAT     H153084   1.462   5.502   0.870
17614WAT     H253085   1.456   5.450   0.716
17615WAT      O53086   2.212   8.071   9.142
17615WAT     H153087   2.151   8.089   9.064
17615WAT     H253088   2.302   8.042   9.109
17616WAT      O53089   9.778   6.906   5.087
17616WAT     H153090   9.704   6.852   5.046
17616WAT     H253091   9.799   6.984   5.028
17617WAT      O53092   0.406   1.418   1.279
17617WAT     H153093   0.314   1.380   1.287
17617WAT     H253094   0.460   1.361   1.217
17618WAT      O53095   1.769   4.686   4.951
17618WAT     H153096   1.769   4.646   5.042
17618WAT     H253097   1.826   4.632   4.890
17619WAT      O53098   4.383   7.318   1.601
17619WAT     H153099   4.361   7.412   1.575
17619WAT     H253100   4.433   7.274   1.526
17620WAT      O53101   3.591   0.640   9.377
17620WAT     H153102   3.514   0.702   9.362
17620WAT     H253103   3.657   0.683   9.439
17621WAT      O53104   2.780   0.899   6.190
17621WAT     H153105   2.700   0.848   6.222
17621WAT     H253106   2.751   0.967   6.123
17622WAT      O53107   1.576   3.171   1.640
17622WAT     H153108   1.506   3.117   1.594
17622WAT     H253109   1.644   3.200   1.573
17623WAT      O53110   2.421   7.341   8.554
17623WAT     H153111   2.360   7.418   8.535
17623WAT     H253112   2.428   7.283   8.473
17624WAT      O53113   2.884   6.505   8.516
17624WAT     H153114   2.916   6.486   8.424
17624WAT     H253115   2.805   6.566   8.513
17625WAT      O53116   8.833   7.732   6.050
17625WAT     H153117   8.813   7.732   5.952
17625WAT     H253118   8.828   7.638   6.085
17626WAT      O53119   7.425   2.846   2.982
17626WAT     H153120   7.353   2.839   3.050
17626WAT     H253121   7.400   2.914   2.913
17627WAT      O53122   9.647   8.426   0.580
17627WAT     H153123   9.723   8.491   0.589
17627WAT     H253124   9.610   8.407   0.671
17628WAT      O53125   4.194   4.364   6.163
17628WAT     H153126   4.174   4.411   6.248
17628WAT     H253127   4.200   4.265   6.179
17629WAT      O53128   7.231   2.049   8.131
17629WAT     H153129   7.326   2.029   8.154
17629WAT     H253130   7.224   2.070   8.033
17630WAT      O53131   8.963   8.787   2.729
17630WAT     H153132   8.881   8.758   2.779
17630WAT     H253133   8.969   8.887   2.730
17631WAT      O53134   1.195   5.401   9.373
17631WAT     H153135   1.263   5.328   9.380
17631WAT     H253136   1.126   5.376   9.305
17632WAT      O53137   6.456   2.354   9.377
17632WAT     H153138   6.463   2.453   9.389
17632WAT     H253139   6.539   2.310   9.411
17633WAT      O53140   9.525   4.993   0.445
17633WAT     H153141   9.439   4.961   0.404
17633WAT     H253142   9.587   4.915   0.457
17634WAT      O53143   9.600   1.707   8.702
17634WAT     H153144   9.667   1.781   8.700
17634WAT     H253145   9.508   1.745   8.695
17635WAT      O53146   2.189   9.403   8.678
17635WAT     H153147   2.235   9.491   8.689
17635WAT     H253148   2.146   9.398   8.588
17636WAT      O53149   6.790   9.550   5.932
17636WAT     H153150   6.837   9.473   5.974
17636WAT     H253151   6.741   9.602   6.002
17637WAT      O53152   8.004   7.608   8.925
17637WAT     H153153   7.950   7.603   8.842
17637WAT     H253154   8.080   7.544   8.920
17638WAT      O53155   6.769   0.151   7.882
17638WAT     H153156   6.799   0.169   7.789
17638WAT     H253157   6.706   0.073   7.882
17639WAT      O53158   6.592   0.023   5.667
17639WAT     H153159   6.540   0.105   5.641
17639WAT     H253160   6.553  -0.056   5.619
17640WAT      O53161   5.309   6.165   3.061
17640WAT     H153162   5.362   6.113   2.994
17640WAT     H253163   5.370   6.202   3.131
17641WAT      O53164   8.637   2.891   3.327
17641WAT     H153165   8.576   2.946   3.270
17641WAT     H253166   8.586   2.855   3.405
17642WAT      O53167   1.829   0.427   0.321
17642WAT     H153168   1.898   0.495   0.297
17642WAT     H253169   1.860   0.336   0.292
17643WAT      O53170   8.655   0.396   2.600
17643WAT     H153171   8.569   0.352   2.575
17643WAT     H253172   8.636   0.477   2.656
17644WAT      O53173   6.440   2.437   4.653
17644WAT     H153174   6.414   2.398   4.741
17644WAT     H253175   6.432   2.536   4.657
17645WAT      O53176   1.211   1.959   1.361
17645WAT     H153177   1.221   2.043   1.415
17645WAT     H253178   1.160   1.891   1.414
17646WAT      O53179   6.946   0.102   5.186
17646WAT     H153180   6.979   0.084   5.094
17646WAT     H253181   6.854   0.066   5.197
17647WAT      O53182   8.518   9.802   9.424
17647WAT     H153183   8.481   9.728   9.478
17647WAT     H253184   8.492   9.890   9.464
17648WAT      O53185   4.830   1.809   4.947
17648WAT     H153186   4.831   1.874   5.022
17648WAT     H253187   4.881   1.846   4.869
17649WAT      O53188   8.019   5.866   9.477
17649WAT     H153189   8.089   5.937   9.487
17649WAT     H253190   8.009   5.817   9.563
17650WAT      O53191   6.048   5.772   9.172
17650WAT     H153192   5.993   5.835   9.227
17650WAT     H253193   6.144   5.776   9.200
17651WAT      O53194   5.546   8.298   3.496
17651WAT     H153195   5.529   8.306   3.397
17651WAT     H253196   5.462   8.273   3.543
17652WAT      O53197   1.207   7.815   0.274
17652WAT     H153198   1.184   7.752   0.200
17652WAT     H253199   1.206   7.909   0.240
17653WAT      O53200   4.622   7.671   5.173
17653WAT     H153201   4.593   7.576   5.175
17653WAT     H253202   4.713   7.677   5.131
17654WAT      O53203   5.882   6.698   6.871
17654WAT     H153204   5.941   6.620   6.850
17654WAT     H253205   5.848   6.738   6.786
17655WAT      O53206   8.596   8.284   3.730
17655WAT     H153207   8.561   8.218   3.797
17655WAT     H253208   8.647   8.235   3.659
17656WAT      O53209   1.967   4.251   7.588
17656WAT     H153210   1.931   4.157   7.586
17656WAT     H253211   2.010   4.272   7.501
17657WAT      O53212   3.670   7.745   2.478
17657WAT     H153213   3.718   7.692   2.548
17657WAT     H253214   3.590   7.694   2.447
17658WAT      O53215   8.520   8.603   2.366
17658WAT     H153216   8.596   8.540   2.377
17658WAT     H253217   8.537   8.686   2.418
17659WAT      O53218   5.127   3.721   7.932
17659WAT     H153219   5.039   3.731   7.885
17659WAT     H253220   5.118   3.652   8.005
17660WAT      O53221   5.920   3.561   2.256
17660WAT     H153222   5.969   3.533   2.173
17660WAT     H253223   5.957   3.512   2.334
17661WAT      O53224   9.321   4.562   7.285
17661WAT     H153225   9.350   4.503   7.210
17661WAT     H253226   9.255   4.629   7.251
17662WAT      O53227   3.142   9.768   2.133
17662WAT     H153228   3.176   9.839   2.195
17662WAT     H253229   3.220   9.717   2.096
17663WAT      O53230   1.205   0.166   0.561
17663WAT     H153231   1.253   0.078   0.550
17663WAT     H253232   1.268   0.240   0.539
17664WAT      O53233   5.866   8.699   7.412
17664WAT     H153234   5.868   8.606   7.450
17664WAT     H253235   5.960   8.735   7.409
17665WAT      O53236   4.045   7.150   4.044
17665WAT     H153237   4.030   7.084   4.118
17665WAT     H253238   3.984   7.129   3.968
17666WAT      O53239   6.913   9.285   2.457
17666WAT     H153240   6.829   9.277   2.510
17666WAT     H253241   6.933   9.382   2.441
17667WAT      O53242   5.257   0.094   8.454
17667WAT     H153243   5.257   0.090   8.354
17667WAT     H253244   5.179   0.148   8.486
17668WAT      O53245   7.293   3.462   8.380
17668WAT     H153246   7.291   3.419   8.289
17668WAT     H253247   7.387   3.465   8.413
17669WAT      O53248   2.705   7.678   6.707
17669WAT     H153249   2.683   7.601   6.647
17669WAT     H253250   2.737   7.643   6.795
17670WAT      O53251   8.507   4.991   1.741
17670WAT     H153252   8.454   4.987   1.656
17670WAT     H253253   8.459   4.941   1.813
17671WAT      O53254   0.583   3.043   5.703
17671WAT     H153255   0.614   2.948   5.707
17671WAT     H253256   0.662   3.103   5.688
17672WAT      O53257   6.225   5.216   3.848
17672WAT     H153258   6.147   5.273   3.874
17672WAT     H253259   6.221   5.197   3.750
17673WAT      O53260   2.558   1.163   4.499
17673WAT     H153261   2.556   1.201   4.407
17673WAT     H253262   2.628   1.091   4.505
17674WAT      O53263   9.387   9.634   0.588
17674WAT     H153264   9.371   9.672   0.679
17674WAT     H253265   9.336   9.687   0.520
17675WAT      O53266   1.999   6.042   8.175
17675WAT     H153267   2.083   6.084   8.140
17675WAT     H253268   1.927   6.111   8.180
17676WAT      O53269   7.129   3.444   3.971
17676WAT     H153270   7.061   3.469   4.041
17676WAT     H253271   7.130   3.514   3.900
17677WAT      O53272   4.517   2.082   0.987
17677WAT     H153273   4.459   2.064   1.067
17677WAT     H253274   4.507   2.007   0.922
17678WAT      O53275   4.555   9.175   5.002
17678WAT     H153276   4.633   9.213   5.051
17678WAT     H253277   4.578   9.163   4.906
17679WAT      O53278   5.785   1.392   6.800
17679WAT     H153279   5.844   1.449   6.745
17679WAT     H253280   5.703   1.367   6.748
17680WAT      O53281   5.458   5.260   7.109
17680WAT     H153282   5.419   5.252   7.017
17680WAT     H253283   5.483   5.169   7.142
17681WAT      O53284   2.520   5.440   8.747
17681WAT     H153285   2.523   5.366   8.814
17681WAT     H253286   2.569   5.520   8.783
17682WAT      O53287   1.172   6.658   2.613
17682WAT     H153288   1.268   6.685   2.601
17682WAT     H253289   1.156   6.635   2.709
17683WAT      O53290   1.368   1.687   5.546
17683WAT     H153291   1.425   1.701   5.465
17683WAT     H253292   1.389   1.598   5.587
17684WAT      O53293   3.886   2.275   3.793
17684WAT     H153294   3.985   2.291   3.788
17684WAT     H253295   3.867   2.178   3.775
17685WAT      O53296   6.243   5.899   8.490
17685WAT     H153297   6.170   5.888   8.558
17685WAT     H253298   6.260   5.996   8.474
17686WAT      O53299   0.471   2.311   7.244
17686WAT     H153300   0.463   2.360   7.331
17686WAT     H253301   0.532   2.232   7.256
17687WAT      O53302   4.703   0.914   7.600
17687WAT     H153303   4.702   0.814   7.601
17687WAT     H253304   4.732   0.946   7.510
17688WAT      O53305   8.484   7.829   7.347
17688WAT     H153306   8.551   7.765   7.310
17688WAT     H253307   8.468   7.809   7.444
17689WAT      O53308   2.608   3.136   8.703
17689WAT     H153309   2.532   3.197   8.682
17689WAT     H253310   2.579   3.041   8.689
17690WAT      O53311   5.829   2.418   2.632
17690WAT     H153312   5.924   2.391   2.619
17690WAT     H253313   5.814   2.509   2.593
17691WAT      O53314   4.972   1.380   3.275
17691WAT     H153315   4.973   1.423   3.185
17691WAT     H253316   4.887   1.403   3.322
17692WAT      O53317   9.756   6.958   1.121
17692WAT     H153318   9.812   6.879   1.096
17692WAT     H253319   9.713   6.942   1.210
17693WAT      O53320   7.848   9.288   7.910
17693WAT     H153321   7.860   9.240   7.823
17693WAT     H253322   7.899   9.374   7.908
17694WAT      O53323   9.498   8.524   3.667
17694WAT     H153324   9.483   8.520   3.766
17694WAT     H253325   9.416   8.491   3.620
17695WAT      O53326   7.576   0.392   6.642
17695WAT     H153327   7.587   0.482   6.684
17695WAT     H253328   7.495   0.392   6.584
17696WAT      O53329   4.564   8.631   5.118
17696WAT     H153330   4.559   8.601   5.214
17696WAT     H253331   4.490   8.696   5.099
17697WAT      O53332   2.864   1.161   3.786
17697WAT     H153333   2.868   1.235   3.853
17697WAT     H253334   2.784   1.174   3.727
17698WAT      O53335   8.891   6.042   9.788
17698WAT     H153336   8.969   6.070   9.732
17698WAT     H253337   8.874   5.944   9.774
17699WAT      O53338   8.260   7.943   3.657
17699WAT     H153339   8.326   7.981   3.720
17699WAT     H253340   8.169   7.946   3.698
17700WAT      O53341   6.284   3.532   2.176
17700WAT     H153342   6.211   3.531   2.108
17700WAT     H253343   6.300   3.439   2.207
17701WAT      O53344   0.549   4.569   7.436
17701WAT     H153345   0.467   4.610   7.397
17701WAT     H253346   0.622   4.567   7.367
17702WAT      O53347   8.287   0.739   3.618
17702WAT     H153348   8.295   0.639   3.618
17702WAT     H253349   8.190   0.765   3.619
17703WAT      O53350   6.068   1.118   8.326
17703WAT     H153351   5.977   1.140   8.361
17703WAT     H253352   6.063   1.100   8.228
17704WAT      O53353   3.829   6.568   8.947
17704WAT     H153354   3.736   6.546   8.919
17704WAT     H253355   3.882   6.484   8.955
17705WAT      O53356   5.417   3.144   4.041
17705WAT     H153357   5.449   3.054   4.072
17705WAT     H253358   5.340   3.132   3.978
17706WAT      O53359   2.432   3.316   0.222
17706WAT     H153360   2.483   3.232   0.240
17706WAT     H253361   2.337   3.294   0.202
17707WAT      O53362   3.500   1.756   5.806
17707WAT     H153363   3.579   1.815   5.790
17707WAT     H253364   3.459   1.731   5.718
17708WAT      O53365   9.483   3.947   3.100
17708WAT     H153366   9.444   3.905   3.181
17708WAT     H253367   9.558   4.008   3.126
17709WAT      O53368   5.856   4.365   4.482
17709WAT     H153369   5.775   4.332   4.531
17709WAT     H253370   5.828   4.405   4.395
17710WAT      O53371   9.057   0.241   0.394
17710WAT     H153372   9.028   0.227   0.299
17710WAT     H253373   9.136   0.303   0.396
17711WAT      O53374   8.593   3.518   0.960
17711WAT     H153375   8.504   3.556   0.989
17711WAT     H253376   8.614   3.551   0.868
17712WAT      O53377   9.365   1.739   7.957
17712WAT     H153378   9.328   1.649   7.933
17712WAT     H253379   9.455   1.729   7.997
17713WAT      O53380   0.380   8.486   6.782
17713WAT     H153381   0.366   8.548   6.704
17713WAT     H253382   0.335   8.524   6.862
17714WAT      O53383   9.888   4.997   2.909
17714WAT     H153384   9.921   5.080   2.865
17714WAT     H253385   9.793   5.010   2.937
17715WAT      O53386   6.256   6.001   7.194
17715WAT     H153387   6.224   6.020   7.287
17715WAT     H253388   6.216   5.914   7.163
17716WAT      O53389   0.678   8.982   1.408
17716WAT     H153390   0.650   8.887   1.416
17716WAT     H253391   0.767   8.994   1.452
17717WAT      O53392   0.255   3.231   6.406
17717WAT     H153393   0.335   3.289   6.393
17717WAT     H253394   0.211   3.215   6.318
17718WAT      O53395   5.598   4.961   7.205
17718WAT     H153396   5.522   4.914   7.250
17718WAT     H253397   5.685   4.919   7.234
17719WAT      O53398   8.145   3.277   2.644
17719WAT     H153399   8.085   3.356   2.631
17719WAT     H253400   8.089   3.197   2.664
17720WAT      O53401   2.273   8.455   5.555
17720WAT     H153402   2.272   8.365   5.512
17720WAT     H253403   2.182   8.478   5.588
17721WAT      O53404   8.085   6.826   7.382
17721WAT     H153405   8.031   6.835   7.466
17721WAT     H253406   8.054   6.893   7.315
17722WAT      O53407   3.975   3.016   4.953
17722WAT     H153408   3.932   2.934   4.916
17722WAT     H253409   4.053   2.991   5.010
17723WAT      O53410   2.912   1.088   3.297
17723WAT     H153411   2.919   1.072   3.396
17723WAT     H253412   2.966   1.021   3.248
17724WAT      O53413   6.794   3.488   2.939
17724WAT     H153414   6.786   3.521   3.033
17724WAT     H253415   6.764   3.392   2.935
17725WAT      O53416   4.039   6.198   0.497
17725WAT     H153417   4.100   6.199   0.418
17725WAT     H253418   3.953   6.243   0.473
17726WAT      O53419   4.052   9.162   2.675
17726WAT     H153420   4.014   9.158   2.768
17726WAT     H253421   4.149   9.183   2.680
17727WAT      O53422   8.757   6.584   1.693
17727WAT     H153423   8.744   6.677   1.729
17727WAT     H253424   8.804   6.529   1.762
17728WAT      O53425   9.622   5.788   7.836
17728WAT     H153426   9.576   5.740   7.911
17728WAT     H253427   9.721   5.780   7.848
17729WAT      O53428   9.794   6.299   8.770
17729WAT     H153429   9.736   6.257   8.701
17729WAT     H253430   9.811   6.234   8.844
17730WAT      O53431   0.006   1.235   6.194
17730WAT     H153432  -0.074   1.288   6.224
17730WAT     H253433   0.048   1.191   6.274
17731WAT      O53434   4.570   0.238   7.597
17731WAT     H153435   4.497   0.306   7.606
17731WAT     H253436   4.627   0.240   7.680
17732WAT      O53437   6.351   9.098   4.385
17732WAT     H153438   6.387   9.153   4.309
17732WAT     H253439   6.378   9.003   4.372
17733WAT      O53440   1.066   2.352   4.395
17733WAT     H153441   1.011   2.419   4.345
17733WAT     H253442   1.009   2.303   4.460
17734WAT      O53443   2.127   4.533   4.383
17734WAT     H153444   2.108   4.539   4.285
17734WAT     H253445   2.195   4.462   4.400
17735WAT      O53446   6.505   0.336   2.316
17735WAT     H153447   6.410   0.318   2.342
17735WAT     H253448   6.525   0.433   2.331
17736WAT      O53449   0.027   8.424   3.170
17736WAT     H153450  -0.058   8.464   3.136
17736WAT     H253451   0.056   8.473   3.253
17737WAT      O53452   6.788   8.307   2.908
17737WAT     H153453   6.690   8.324   2.917
17737WAT     H253454   6.830   8.380   2.854
17738WAT      O53455   2.951   6.593   9.519
17738WAT     H153456   2.870   6.576   9.575
17738WAT     H253457   3.018   6.645   9.572
17739WAT      O53458   0.060   3.303   1.497
17739WAT     H153459   0.135   3.253   1.541
17739WAT     H253460   0.068   3.400   1.518
17740WAT      O53461   7.888   3.091   1.231
17740WAT     H153462   7.953   3.113   1.158
17740WAT     H253463   7.938   3.069   1.315
17741WAT      O53464   5.529   2.358   9.520
17741WAT     H153465   5.528   2.458   9.524
17741WAT     H253466   5.604   2.323   9.575
17742WAT      O53467   7.091   0.920   3.851
17742WAT     H153468   7.098   1.007   3.900
17742WAT     H253469   7.016   0.866   3.889
17743WAT      O53470   0.710   8.058   8.237
17743WAT     H153471   0.655   8.139   8.258
17743WAT     H253472   0.807   8.083   8.239
17744WAT      O53473   7.692   7.984   9.741
17744WAT     H153474   7.722   8.079   9.746
17744WAT     H253475   7.771   7.924   9.732
17745WAT      O53476   0.189   2.752   8.024
17745WAT     H153477   0.144   2.663   8.027
17745WAT     H253478   0.154   2.805   7.946
17746WAT      O53479   2.657   1.684   9.335
17746WAT     H153480   2.638   1.594   9.296
17746WAT     H253481   2.610   1.693   9.422
17747WAT      O53482   1.117   3.298   8.419
17747WAT     H153483   1.152   3.297   8.326
17747WAT     H253484   1.133   3.389   8.459
17748WAT      O53485   5.062   2.428   1.910
17748WAT     H153486   4.982   2.485   1.893
17748WAT     H253487   5.064   2.400   2.006
17749WAT      O53488   6.382   9.561   5.341
17749WAT     H153489   6.318   9.484   5.335
17749WAT     H253490   6.413   9.572   5.435
17750WAT      O53491   2.457   5.125   6.224
17750WAT     H153492   2.422   5.040   6.262
17750WAT     H253493   2.557   5.128   6.236
17751WAT      O53494   9.673   8.295   1.134
17751WAT     H153495   9.731   8.356   1.080
17751WAT     H253496   9.691   8.200   1.109
17752WAT      O53497   4.372   2.832   3.310
17752WAT     H153498   4.344   2.741   3.280
17752WAT     H253499   4.340   2.900   3.245
17753WAT      O53500   8.228   8.132   2.749
17753WAT     H153501   8.151   8.182   2.710
17753WAT     H253502   8.310   8.189   2.746
17754WAT      O53503   4.675   1.515   5.504
17754WAT     H153504   4.620   1.595   5.480
17754WAT     H253505   4.633   1.467   5.581
17755WAT      O53506   1.154   7.331   3.111
17755WAT     H153507   1.156   7.430   3.126
17755WAT     H253508   1.219   7.287   3.174
17756WAT      O53509   0.460   9.667   8.242
17756WAT     H153510   0.465   9.764   8.264
17756WAT     H253511   0.414   9.618   8.317
17757WAT      O53512   9.694   0.511   3.259
17757WAT     H153513   9.682   0.411   3.257
17757WAT     H253514   9.605   0.555   3.271
17758WAT      O53515   3.592   4.152   0.484
17758WAT     H153516   3.596   4.093   0.404
17758WAT     H253517   3.626   4.243   0.461
17759WAT      O53518   6.648   2.372   0.601
17759WAT     H153519   6.590   2.311   0.547
17759WAT     H253520   6.742   2.366   0.567
17760WAT      O53521   6.375   0.101   1.738
17760WAT     H153522   6.293   0.049   1.762
17760WAT     H253523   6.378   0.185   1.792
17761WAT      O53524   1.920   7.146   6.944
17761WAT     H153525   1.948   7.242   6.954
17761WAT     H253526   1.938   7.116   6.851
17762WAT      O53527   4.299   7.555   0.594
17762WAT     H153528   4.272   7.550   0.690
17762WAT     H253529   4.220   7.537   0.535
17763WAT      O53530   6.310   3.164   5.243
17763WAT     H153531   6.249   3.230   5.200
17763WAT     H253532   6.266   3.075   5.246
17764WAT      O53533   4.789   7.527   0.644
17764WAT     H153534   4.873   7.517   0.698
17764WAT     H253535   4.796   7.473   0.560
17765WAT      O53536   5.161   0.687   0.914
17765WAT     H153537   5.143   0.596   0.879
17765WAT     H253538   5.080   0.745   0.900
17766WAT      O53539   8.991   4.683   4.543
17766WAT     H153540   9.056   4.617   4.506
17766WAT     H253541   8.960   4.744   4.470
17767WAT      O53542   3.826   1.337   8.777
17767WAT     H153543   3.794   1.349   8.683
17767WAT     H253544   3.829   1.240   8.799
17768WAT      O53545   5.685   7.108   2.726
17768WAT     H153546   5.636   7.159   2.797
17768WAT     H253547   5.729   7.028   2.767
17769WAT      O53548   0.077   7.892   8.647
17769WAT     H153549   0.076   7.855   8.554
17769WAT     H253550   0.049   7.988   8.644
17770WAT      O53551   5.920   8.068   3.305
17770WAT     H153552   5.873   8.050   3.391
17770WAT     H253553   5.927   7.983   3.252
17771WAT      O53554   9.469   9.629   5.078
17771WAT     H153555   9.550   9.687   5.080
17771WAT     H253556   9.419   9.637   5.165
17772WAT      O53557   8.849   6.105   2.702
17772WAT     H153558   8.946   6.128   2.693
17772WAT     H253559   8.822   6.043   2.629
17773WAT      O53560   4.148   6.652   8.466
17773WAT     H153561   4.147   6.719   8.539
17773WAT     H253562   4.224   6.670   8.404
17774WAT      O53563   2.205   1.232   2.398
17774WAT     H153564   2.139   1.305   2.418
17774WAT     H253565   2.249   1.250   2.310
17775WAT      O53566   1.989   1.360   9.368
17775WAT     H153567   1.921   1.422   9.329
17775WAT     H253568   2.028   1.303   9.295
17776WAT      O53569   8.585   3.380   3.057
17776WAT     H153570   8.494   3.419   3.073
17776WAT     H253571   8.575   3.294   3.006
17777WAT      O53572   3.675   2.809   7.744
17777WAT     H153573   3.611   2.813   7.821
17777WAT     H253574   3.633   2.850   7.663
17778WAT      O53575   8.062   6.130   2.071
17778WAT     H153576   8.106   6.113   2.159
17778WAT     H253577   8.048   6.228   2.060
17779WAT      O53578   0.192   4.763   1.489
17779WAT     H153579   0.123   4.778   1.560
17779WAT     H253580   0.283   4.781   1.527
17780WAT      O53581   8.337   4.997   9.574
17780WAT     H153582   8.338   4.961   9.481
17780WAT     H253583   8.325   5.096   9.571
17781WAT      O53584   2.048   1.071   0.106
17781WAT     H153585   1.976   1.136   0.080
17781WAT     H253586   2.137   1.107   0.078
17782WAT      O53587   9.128   6.435   3.938
17782WAT     H153588   9.116   6.472   3.846
17782WAT     H253589   9.115   6.508   4.005
17783WAT      O53590   7.944   0.555   4.138
17783WAT     H153591   7.979   0.624   4.074
17783WAT     H253592   7.941   0.594   4.230
17784WAT      O53593   4.479   9.240   5.863
17784WAT     H153594   4.550   9.183   5.822
17784WAT     H253595   4.402   9.183   5.891
17785WAT      O53596   1.877   5.424   0.731
17785WAT     H153597   1.960   5.425   0.676
17785WAT     H253598   1.811   5.490   0.694
17786WAT      O53599   4.847   2.822   0.391
17786WAT     H153600   4.813   2.856   0.479
17786WAT     H253601   4.938   2.782   0.404
17787WAT      O53602   3.175   4.936   5.661
17787WAT     H153603   3.080   4.906   5.672
17787WAT     H253604   3.230   4.903   5.737
17788WAT      O53605   0.911   0.177   8.776
17788WAT     H153606   0.826   0.206   8.819
17788WAT     H253607   0.892   0.137   8.687
17789WAT      O53608   6.521   7.172   7.764
17789WAT     H153609   6.474   7.183   7.676
17789WAT     H253610   6.552   7.077   7.773
17790WAT      O53611   3.627   4.548   1.439
17790WAT     H153612   3.689   4.499   1.500
17790WAT     H253613   3.633   4.647   1.456
17791WAT      O53614   7.188   9.601   4.918
17791WAT     H153615   7.279   9.612   4.957
17791WAT     H253616   7.140   9.526   4.964
17792WAT      O53617   1.383   4.036   8.788
17792WAT     H153618   1.416   4.113   8.843
17792WAT     H253619   1.460   3.982   8.756
17793WAT      O53620   2.552   1.796   2.324
17793WAT     H153621   2.472   1.737   2.314
17793WAT     H253622   2.610   1.761   2.398
17794WAT      O53623   1.019   1.505   1.923
17794WAT     H153624   1.068   1.433   1.875
17794WAT     H253625   0.929   1.471   1.953
17795WAT      O53626   6.777   1.835   5.701
17795WAT     H153627   6.772   1.774   5.622
17795WAT     H253628   6.754   1.783   5.784
17796WAT      O53629   7.476   9.777   4.096
17796WAT     H153630   7.511   9.835   4.170
17796WAT     H253631   7.384   9.744   4.120
17797WAT      O53632   9.860   3.717   8.079
17797WAT     H153633   9.885   3.620   8.091
17797WAT     H253634   9.814   3.728   7.991
17798WAT      O53635   8.802   9.837   8.858
17798WAT     H153636   8.820   9.750   8.811
17798WAT     H253637   8.873   9.903   8.834
17799WAT      O53638   7.408   0.463   5.148
17799WAT     H153639   7.446   0.434   5.236
17799WAT     H253640   7.341   0.395   5.117
17800WAT      O53641   5.559   0.947   4.265
17800WAT     H153642   5.589   1.032   4.222
17800WAT     H253643   5.559   0.957   4.364
17801WAT      O53644   2.391   5.052   6.545
17801WAT     H153645   2.411   4.992   6.468
17801WAT     H253646   2.348   5.136   6.512
17802WAT      O53647   9.700   7.265   6.736
17802WAT     H153648   9.721   7.360   6.713
17802WAT     H253649   9.746   7.204   6.672
17803WAT      O53650   2.970   7.247   3.621
17803WAT     H153651   2.919   7.227   3.705
17803WAT     H253652   3.040   7.178   3.608
17804WAT      O53653   5.019   5.282   2.816
17804WAT     H153654   4.998   5.260   2.721
17804WAT     H253655   5.118   5.287   2.829
17805WAT      O53656   6.414   1.558   2.260
17805WAT     H153657   6.411   1.458   2.264
17805WAT     H253658   6.497   1.590   2.307
17806WAT      O53659   8.352   3.022   3.616
17806WAT     H153660   8.395   3.103   3.576
17806WAT     H253661   8.253   3.027   3.603
17807WAT      O53662   8.486   8.030   2.088
17807WAT     H153663   8.431   8.097   2.036
17807WAT     H253664   8.430   7.991   2.160
17808WAT      O53665   2.651   6.683   3.003
17808WAT     H153666   2.594   6.720   2.931
17808WAT     H253667   2.607   6.602   3.043
17809WAT      O53668   5.545   1.627   6.462
17809WAT     H153669   5.593   1.707   6.498
17809WAT     H253670   5.537   1.557   6.534
17810WAT      O53671   7.285   6.676   4.864
17810WAT     H153672   7.261   6.766   4.899
17810WAT     H253673   7.359   6.637   4.920
17811WAT      O53674   1.215   0.479   3.680
17811WAT     H153675   1.187   0.384   3.665
17811WAT     H253676   1.135   0.535   3.698
17812WAT      O53677   3.357   0.550   9.756
17812WAT     H153678   3.304   0.635   9.753
17812WAT     H253679   3.314   0.486   9.819
17813WAT      O53680   9.668   6.848   2.054
17813WAT     H153681   9.741   6.835   1.988
17813WAT     H253682   9.691   6.801   2.140
17814WAT      O53683   6.707   9.451   0.648
17814WAT     H153684   6.655   9.487   0.726
17814WAT     H253685   6.708   9.519   0.575
17815WAT      O53686   4.231   0.824   3.144
17815WAT     H153687   4.278   0.912   3.141
17815WAT     H253688   4.266   0.771   3.221
17816WAT      O53689   3.934   2.704   1.471
17816WAT     H153690   4.009   2.662   1.420
17816WAT     H253691   3.916   2.651   1.554
17817WAT      O53692   4.019   0.177   1.095
17817WAT     H153693   3.988   0.236   1.170
17817WAT     H253694   4.040   0.234   1.015
17818WAT      O53695   4.711   3.525   4.844
17818WAT     H153696   4.801   3.499   4.810
17818WAT     H253697   4.713   3.619   4.877
17819WAT      O53698   7.247   4.214   2.161
17819WAT     H153699   7.213   4.231   2.253
17819WAT     H253700   7.346   4.229   2.159
17820WAT      O53701   7.151   4.916   7.227
17820WAT     H153702   7.090   4.964   7.164
17820WAT     H253703   7.099   4.846   7.277
17821WAT      O53704   3.721   9.757   9.826
17821WAT     H153705   3.659   9.704   9.885
17821WAT     H253706   3.679   9.770   9.737
17822WAT      O53707   4.681   0.282   6.397
17822WAT     H153708   4.693   0.185   6.418
17822WAT     H253709   4.717   0.301   6.306
17823WAT      O53710   9.847   3.315   4.972
17823WAT     H153711   9.898   3.231   4.951
17823WAT     H253712   9.893   3.393   4.931
17824WAT      O53713   4.148   6.477   7.114
17824WAT     H153714   4.065   6.528   7.136
17824WAT     H253715   4.213   6.484   7.190
17825WAT      O53716   9.837   3.245   7.988
17825WAT     H153717   9.780   3.231   7.907
17825WAT     H253718   9.831   3.165   8.047
17826WAT      O53719   8.123   6.378   9.538
17826WAT     H153720   8.184   6.343   9.467
17826WAT     H253721   8.050   6.432   9.495
17827WAT      O53722   6.315   3.876   2.482
17827WAT     H153723   6.283   3.896   2.389
17827WAT     H253724   6.318   3.777   2.495
17828WAT      O53725   1.759   4.568   1.714
17828WAT     H153726   1.708   4.537   1.634
17828WAT     H253727   1.810   4.651   1.691
17829WAT      O53728   9.838   2.506   6.694
17829WAT     H153729   9.791   2.557   6.622
17829WAT     H253730   9.781   2.430   6.725
17830WAT      O53731   0.794   8.950   3.459
17830WAT     H153732   0.724   8.954   3.530
17830WAT     H253733   0.758   8.899   3.380
17831WAT      O53734   5.480   8.601   1.550
17831WAT     H153735   5.520   8.513   1.576
17831WAT     H253736   5.402   8.621   1.609
17832WAT      O53737   9.708   6.241   4.221
17832WAT     H153738   9.631   6.301   4.203
17832WAT     H253739   9.775   6.250   4.148
17833WAT      O53740   7.706   4.142   8.872
17833WAT     H153741   7.789   4.159   8.820
17833WAT     H253742   7.626   4.165   8.817
17834WAT      O53743   5.536   0.622   8.406
17834WAT     H153744   5.475   0.554   8.446
17834WAT     H253745   5.530   0.707   8.458
17835WAT      O53746   0.116   2.343   4.966
17835WAT     H153747   0.145   2.344   5.062
17835WAT     H253748   0.088   2.435   4.938
17836WAT      O53749   2.283   4.371   3.502
17836WAT     H153750   2.230   4.286   3.494
17836WAT     H253751   2.301   4.408   3.411
17837WAT      O53752   6.316   7.057   1.237
17837WAT     H153753   6.228   7.083   1.276
17837WAT     H253754   6.319   6.958   1.224
17838WAT      O53755   2.592   7.372   8.759
17838WAT     H153756   2.674   7.316   8.753
17838WAT     H253757   2.530   7.348   8.684
17839WAT      O53758   1.616   0.152   5.347
17839WAT     H153759   1.646   0.071   5.397
17839WAT     H253760   1.655   0.234   5.390
17840WAT      O53761   9.472   7.799   6.889
17840WAT     H153762   9.528   7.868   6.935
17840WAT     H253763   9.530   7.724   6.859
17841WAT      O53764   6.190   7.001   7.743
17841WAT     H153765   6.230   6.942   7.673
17841WAT     H253766   6.207   6.962   7.833
17842WAT      O53767   8.493   3.356   3.744
17842WAT     H153768   8.503   3.303   3.660
17842WAT     H253769   8.485   3.294   3.822
17843WAT      O53770   3.750   1.166   0.556
17843WAT     H153771   3.797   1.120   0.481
17843WAT     H253772   3.803   1.155   0.641
17844WAT      O53773   7.923   7.507   6.746
17844WAT     H153774   7.905   7.445   6.670
17844WAT     H253775   8.003   7.563   6.725
17845WAT      O53776   4.535   5.529   8.484
17845WAT     H153777   4.504   5.491   8.397
17845WAT     H253778   4.512   5.626   8.488
17846WAT      O53779   6.258   7.680   1.500
17846WAT     H153780   6.219   7.611   1.561
17846WAT     H253781   6.312   7.745   1.553
17847WAT      O53782   2.841   5.453   8.064
17847WAT     H153783   2.886   5.419   8.147
17847WAT     H253784   2.824   5.551   8.074
17848WAT      O53785   7.368   1.103   3.449
17848WAT     H153786   7.368   1.050   3.364
17848WAT     H253787   7.338   1.044   3.525
17849WAT      O53788   3.033   5.865   6.866
17849WAT     H153789   3.024   5.795   6.937
17849WAT     H253790   3.112   5.846   6.809
17850WAT      O53791   4.046   2.612   4.549
17850WAT     H153792   4.128   2.561   4.522
17850WAT     H253793   3.967   2.575   4.501
17851WAT      O53794   3.589   1.320   1.458
17851WAT     H153795   3.525   1.355   1.391
17851WAT     H253796   3.632   1.236   1.424
17852WAT      O53797   3.511   7.324   4.749
17852WAT     H153798   3.458   7.321   4.665
17852WAT     H253799   3.556   7.413   4.756
17853WAT      O53800   1.174   9.246   9.177
17853WAT     H153801   1.143   9.340   9.186
17853WAT     H253802   1.095   9.187   9.157
17854WAT      O53803   7.981   7.440   1.250
17854WAT     H153804   8.053   7.382   1.287
17854WAT     H253805   7.942   7.497   1.323
17855WAT      O53806   8.229   3.183   2.986
17855WAT     H153807   8.136   3.181   2.951
17855WAT     H253808   8.256   3.277   3.005
17856WAT      O53809   9.102   3.493   3.629
17856WAT     H153810   9.197   3.513   3.651
17856WAT     H253811   9.043   3.563   3.669
17857WAT      O53812   7.039   4.037   9.122
17857WAT     H153813   7.096   4.034   9.040
17857WAT     H253814   6.952   4.081   9.101
17858WAT      O53815   6.772   6.131   4.561
17858WAT     H153816   6.773   6.038   4.526
17858WAT     H253817   6.780   6.195   4.485
17859WAT      O53818   1.871   6.173   4.163
17859WAT     H153819   1.961   6.154   4.124
17859WAT     H253820   1.824   6.086   4.182
17860WAT      O53821   1.941   0.854   5.905
17860WAT     H153822   2.014   0.896   5.853
17860WAT     H253823   1.954   0.755   5.908
17861WAT      O53824   4.867   2.935   6.436
17861WAT     H153825   4.897   2.966   6.526
17861WAT     H253826   4.777   2.976   6.416
17862WAT      O53827   0.928   8.277   4.666
17862WAT     H153828   0.962   8.230   4.748
17862WAT     H253829   0.892   8.366   4.691
17863WAT      O53830   4.934   2.401   4.511
17863WAT     H153831   5.019   2.454   4.499
17863WAT     H253832   4.946   2.310   4.473
17864WAT      O53833   4.603   4.248   6.694
17864WAT     H153834   4.506   4.246   6.671
17864WAT     H253835   4.615   4.283   6.787
17865WAT      O53836   2.459   5.962   5.709
17865WAT     H153837   2.525   5.905   5.758
17865WAT     H253838   2.490   6.057   5.711
17866WAT      O53839   7.929   3.066   9.729
17866WAT     H153840   7.835   3.085   9.700
17866WAT     H253841   7.945   2.967   9.728
17867WAT      O53842   8.241   4.911   8.953
17867WAT     H153843   8.238   4.986   8.887
17867WAT     H253844   8.182   4.933   9.031
17868WAT      O53845   1.210   5.007   1.894
17868WAT     H153846   1.231   4.953   1.976
17868WAT     H253847   1.129   4.970   1.849
17869WAT      O53848   9.156   8.999   5.658
17869WAT     H153849   9.174   9.066   5.730
17869WAT     H253850   9.217   9.016   5.581
17870WAT      O53851   7.581   3.184   1.669
17870WAT     H153852   7.622   3.156   1.756
17870WAT     H253853   7.631   3.142   1.594
17871WAT      O53854   6.963   4.619   4.057
17871WAT     H153855   6.931   4.593   3.966
17871WAT     H253856   6.933   4.550   4.124
17872WAT      O53857   8.237   5.825   1.741
17872WAT     H153858   8.218   5.747   1.681
17872WAT     H253859   8.152   5.858   1.781
17873WAT      O53860   5.321   5.542   8.756
17873WAT     H153861   5.275   5.551   8.844
17873WAT     H253862   5.419   5.563   8.768
17874WAT      O53863   8.269   5.425   0.506
17874WAT     H153864   8.279   5.492   0.432
17874WAT     H253865   8.275   5.333   0.468
17875WAT      O53866   7.917   8.658   7.465
17875WAT     H153867   7.869   8.745   7.460
17875WAT     H253868   7.992   8.657   7.398
17876WAT      O53869   7.846   3.797   8.441
17876WAT     H153870   7.893   3.761   8.522
17876WAT     H253871   7.748   3.779   8.449
17877WAT      O53872   5.345   4.893   0.281
17877WAT     H153873   5.344   4.828   0.205
17877WAT     H253874   5.384   4.980   0.250
17878WAT      O53875   9.212   1.116   9.830
17878WAT     H153876   9.301   1.146   9.865
17878WAT     H253877   9.224   1.075   9.740
17879WAT      O53878   3.496   8.651   1.339
17879WAT     H153879   3.540   8.643   1.428
17879WAT     H253880   3.563   8.681   1.271
17880WAT      O53881   0.610   8.737   2.162
17880WAT     H153882   0.690   8.796   2.174
17880WAT     H253883   0.638   8.652   2.117
17881WAT      O53884   8.609   6.913   7.934
17881WAT     H153885   8.606   7.004   7.977
17881WAT     H253886   8.666   6.852   7.990
17882WAT      O53887   7.612   2.687   2.199
17882WAT     H153888   7.703   2.671   2.237
17882WAT     H253889   7.568   2.762   2.249
17883WAT      O53890   3.685   1.563   7.109
17883WAT     H153891   3.775   1.568   7.152
17883WAT     H253892   3.620   1.618   7.162
17884WAT      O53893   3.335   1.040   8.250
17884WAT     H153894   3.418   1.066   8.201
17884WAT     H253895   3.359   0.989   8.333
17885WAT      O53896   0.855   9.421   1.960
17885WAT     H153897   0.773   9.475   1.979
17885WAT     H253898   0.836   9.357   1.885
17886WAT      O53899   2.939   7.588   6.057
17886WAT     H153900   2.968   7.508   6.108
17886WAT     H253901   3.019   7.637   6.023
17887WAT      O53902   6.984   7.855   1.402
17887WAT     H153903   6.950   7.931   1.458
17887WAT     H253904   7.002   7.887   1.309
17888WAT      O53905   7.798   4.995   0.726
17888WAT     H153906   7.894   5.005   0.750
17888WAT     H253907   7.741   5.040   0.795
17889WAT      O53908   2.916   6.501   7.042
17889WAT     H153909   2.902   6.599   7.030
17889WAT     H253910   2.830   6.453   7.025
17890WAT      O53911   7.015   1.743   9.863
17890WAT     H153912   7.080   1.739   9.939
17890WAT     H253913   6.974   1.653   9.849
17891WAT      O53914   6.063   3.479   8.986
17891WAT     H153915   6.097   3.385   8.993
17891WAT     H253916   5.963   3.478   8.983
17892WAT      O53917   4.090   1.009   9.649
17892WAT     H153918   4.116   1.041   9.558
17892WAT     H253919   3.997   1.038   9.669
17893WAT      O53920   9.834   7.202   4.150
17893WAT     H153921   9.781   7.247   4.078
17893WAT     H253922   9.908   7.263   4.180
17894WAT      O53923   0.070   0.116   6.883
17894WAT     H153924   0.063   0.053   6.960
17894WAT     H253925   0.151   0.174   6.894
17895WAT      O53926   7.232   2.998   4.203
17895WAT     H153927   7.154   3.051   4.170
17895WAT     H253928   7.238   2.912   4.153
17896WAT      O53929   0.096   2.714   0.931
17896WAT     H153930   0.036   2.635   0.938
17896WAT     H253931   0.151   2.708   0.848
17897WAT      O53932   1.335   9.688   3.897
17897WAT     H153933   1.384   9.609   3.934
17897WAT     H253934   1.316   9.753   3.971
17898WAT      O53935   3.068   7.706   7.374
17898WAT     H153936   3.125   7.780   7.337
17898WAT     H253937   3.111   7.618   7.352
17899WAT      O53938   4.333   2.566   5.522
17899WAT     H153939   4.254   2.548   5.580
17899WAT     H253940   4.412   2.516   5.558
17900WAT      O53941   5.855   1.173   4.085
17900WAT     H153942   5.941   1.224   4.089
17900WAT     H253943   5.869   1.081   4.121
17901WAT      O53944   6.317   3.558   9.700
17901WAT     H153945   6.224   3.546   9.667
17901WAT     H253946   6.358   3.639   9.657
17902WAT      O53947   4.360   9.330   6.110
17902WAT     H153948   4.291   9.359   6.045
17902WAT     H253949   4.450   9.329   6.066
17903WAT      O53950   3.570   2.291   7.014
17903WAT     H153951   3.615   2.211   7.054
17903WAT     H253952   3.628   2.371   7.026
17904WAT      O53953   8.588   4.673   2.095
17904WAT     H153954   8.489   4.678   2.089
17904WAT     H253955   8.623   4.756   2.138
17905WAT      O53956   1.782   0.398   5.904
17905WAT     H153957   1.750   0.370   5.995
17905WAT     H253958   1.783   0.318   5.844
17906WAT      O53959   6.923   8.975   1.617
17906WAT     H153960   7.021   8.991   1.611
17906WAT     H253961   6.878   9.008   1.533
17907WAT      O53962   0.117   5.734   4.284
17907WAT     H153963   0.109   5.706   4.188
17907WAT     H253964   0.084   5.661   4.343
17908WAT      O53965   9.032   1.776   2.135
17908WAT     H153966   8.941   1.749   2.105
17908WAT     H253967   9.025   1.841   2.211
17909WAT      O53968   9.184   0.474   0.767
17909WAT     H153969   9.165   0.450   0.862
17909WAT     H253970   9.099   0.495   0.720
17910WAT      O53971   2.916   5.414   0.159
17910WAT     H153972   2.981   5.487   0.183
17910WAT     H253973   2.960   5.351   0.095
17911WAT      O53974   3.079   2.617   8.526
17911WAT     H153975   3.160   2.620   8.468
17911WAT     H253976   3.102   2.650   8.617
17912WAT      O53977   3.989   5.409   7.805
17912WAT     H153978   3.903   5.385   7.760
17912WAT     H253979   4.006   5.507   7.792
17913WAT      O53980   3.877   0.356   2.673
17913WAT     H153981   3.941   0.415   2.623
17913WAT     H253982   3.898   0.260   2.653
17914WAT      O53983   1.950   3.154   9.429
17914WAT     H153984   1.887   3.198   9.365
17914WAT     H253985   2.044   3.170   9.399
17915WAT      O53986   0.334   9.171   4.724
17915WAT     H153987   0.408   9.106   4.709
17915WAT     H253988   0.316   9.178   4.822
17916WAT      O53989   2.577   0.298   1.428
17916WAT     H153990   2.660   0.244   1.410
17916WAT     H253991   2.500   0.258   1.379
17917WAT      O53992   0.742   6.317   1.491
17917WAT     H153993   0.698   6.381   1.428
17917WAT     H253994   0.783   6.367   1.566
17918WAT      O53995   1.649   7.666   9.345
17918WAT     H153996   1.643   7.594   9.414
17918WAT     H253997   1.673   7.753   9.388
17919WAT      O53998   8.857   4.641   5.456
17919WAT     H153999   8.840   4.653   5.554
17919WAT     H254000   8.941   4.590   5.442
17920WAT      O54001   2.697   2.700   8.292
17920WAT     H154002   2.622   2.679   8.355
17920WAT     H254003   2.721   2.797   8.301
17921WAT      O54004   4.196   7.800   7.246
17921WAT     H154005   4.147   7.790   7.332
17921WAT     H254006   4.163   7.881   7.197
17922WAT      O54007   1.864   5.814   0.755
17922WAT     H154008   1.901   5.763   0.834
17922WAT     H254009   1.801   5.756   0.705
17923WAT      O54010   1.050   4.896   2.534
17923WAT     H154011   0.974   4.832   2.542
17923WAT     H254012   1.015   4.990   2.546
17924WAT      O54013   8.964   3.624   8.573
17924WAT     H154014   8.939   3.708   8.525
17924WAT     H254015   8.982   3.643   8.669
17925WAT      O54016   5.525   6.766   5.421
17925WAT     H154017   5.453   6.711   5.379
17925WAT     H254018   5.614   6.737   5.387
17926WAT      O54019   8.855   6.420   7.379
17926WAT     H154020   8.759   6.446   7.376
17926WAT     H254021   8.882   6.380   7.291
17927WAT      O54022   0.284   3.764   4.256
17927WAT     H154023   0.207   3.710   4.221
17927WAT     H254024   0.290   3.755   4.355
17928WAT      O54025   1.100   4.237   2.745
17928WAT     H154026   1.060   4.316   2.791
17928WAT     H254027   1.129   4.170   2.813
17929WAT      O54028   1.864   6.660   7.991
17929WAT     H154029   1.922   6.698   8.063
17929WAT     H254030   1.800   6.730   7.959
17930WAT      O54031   2.439   6.073   1.777
17930WAT     H154032   2.465   5.977   1.785
17930WAT     H254033   2.455   6.104   1.683
17931WAT      O54034   0.708   7.622   2.108
17931WAT     H154035   0.725   7.524   2.093
17931WAT     H254036   0.703   7.639   2.207
17932WAT      O54037   3.422   9.643   1.536
17932WAT     H154038   3.327   9.672   1.553
17932WAT     H254039   3.484   9.711   1.574
17933WAT      O54040   2.785   7.525   7.391
17933WAT     H154041   2.721   7.453   7.363
17933WAT     H254042   2.826   7.501   7.479
17934WAT      O54043   6.217   1.157   9.810
17934WAT     H154044   6.139   1.170   9.871
17934WAT     H254045   6.290   1.108   9.858
17935WAT      O54046   7.862   6.504   4.152
17935WAT     H154047   7.954   6.466   4.144
17935WAT     H254048   7.845   6.530   4.248
17936WAT      O54049   5.149   6.365   8.513
17936WAT     H154050   5.235   6.351   8.561
17936WAT     H254051   5.139   6.296   8.441
17937WAT      O54052   8.573   2.541   2.561
17937WAT     H154053   8.551   2.464   2.502
17937WAT     H254054   8.597   2.507   2.652
17938WAT      O54055   1.074   6.792   5.865
17938WAT     H154056   1.120   6.774   5.778
17938WAT     H254057   0.975   6.779   5.853
17939WAT      O54058   4.894   9.572   2.233
17939WAT     H154059   4.817   9.520   2.199
17939WAT     H254060   4.932   9.527   2.314
17940WAT      O54061   2.125   8.600   4.841
17940WAT     H154062   2.041   8.646   4.812
17940WAT     H254063   2.202   8.664   4.835
17941WAT      O54064   3.861   8.737   0.677
17941WAT     H154065   3.861   8.666   0.607
17941WAT     H254066   3.918   8.814   0.648
17942WAT      O54067   4.903   4.681   0.949
17942WAT     H154068   4.822   4.656   1.003
17942WAT     H254069   4.917   4.614   0.877
17943WAT      O54070   1.523   4.131   9.262
17943WAT     H154071   1.542   4.050   9.206
17943WAT     H254072   1.553   4.213   9.214
17944WAT      O54073   1.595   9.361   8.028
17944WAT     H154074   1.564   9.269   8.052
17944WAT     H254075   1.516   9.419   8.007
17945WAT      O54076   7.936   9.832   5.367
17945WAT     H154077   7.973   9.811   5.458
17945WAT     H254078   7.894   9.749   5.329
17946WAT      O54079   8.639   1.687   5.109
17946WAT     H154080   8.663   1.662   5.203
17946WAT     H254081   8.541   1.704   5.102
17947WAT      O54082   6.766   3.927   5.711
17947WAT     H154083   6.865   3.927   5.722
17947WAT     H254084   6.722   3.918   5.801
17948WAT      O54085   5.449   2.438   3.041
17948WAT     H154086   5.518   2.508   3.056
17948WAT     H254087   5.479   2.351   3.081
17949WAT      O54088   7.609   2.368   7.959
17949WAT     H154089   7.511   2.360   7.942
17949WAT     H254090   7.658   2.298   7.906
17950WAT      O54091   1.218   1.815   9.077
17950WAT     H154092   1.174   1.868   9.004
17950WAT     H254093   1.315   1.807   9.058
17951WAT      O54094   7.292   7.070   3.266
17951WAT     H154095   7.262   7.148   3.320
17951WAT     H254096   7.389   7.054   3.282
17952WAT      O54097   1.170   1.007   2.531
17952WAT     H154098   1.196   0.912   2.513
17952WAT     H254099   1.159   1.056   2.445
17953WAT      O54100   8.710   2.211   5.676
17953WAT     H154101   8.718   2.120   5.635
17953WAT     H254102   8.759   2.277   5.620
17954WAT      O54103   8.147   3.467   6.619
17954WAT     H154104   8.108   3.490   6.708
17954WAT     H254105   8.244   3.490   6.618
17955WAT      O54106   3.174   9.418   0.968
17955WAT     H154107   3.184   9.514   0.943
17955WAT     H254108   3.077   9.394   0.968
17956WAT      O54109   4.076   5.077   5.197
17956WAT     H154110   4.126   5.122   5.271
17956WAT     H254111   3.985   5.118   5.188
17957WAT      O54112   9.456   9.278   7.984
17957WAT     H154113   9.528   9.233   8.037
17957WAT     H254114   9.496   9.350   7.927
17958WAT      O54115   1.154   9.464   2.346
17958WAT     H154116   1.153   9.564   2.347
17958WAT     H254117   1.159   9.431   2.440
17959WAT      O54118   1.939   1.121   4.777
17959WAT     H154119   2.018   1.182   4.780
17959WAT     H254120   1.910   1.110   4.682
17960WAT      O54121   3.642   8.578   7.001
17960WAT     H154122   3.731   8.555   7.040
17960WAT     H254123   3.623   8.675   7.016
17961WAT      O54124   1.546   3.482   8.044
17961WAT     H154125   1.457   3.527   8.056
17961WAT     H254126   1.561   3.464   7.946
17962WAT      O54127   8.442   2.855   0.466
17962WAT     H154128   8.508   2.780   0.463
17962WAT     H254129   8.429   2.885   0.561
17963WAT      O54130   6.139   3.213   7.602
17963WAT     H154131   6.236   3.216   7.624
17963WAT     H254132   6.109   3.304   7.572
17964WAT      O54133   3.043   0.178   7.133
17964WAT     H154134   3.031   0.160   7.231
17964WAT     H254135   3.097   0.105   7.091
17965WAT      O54136   6.002   1.462   6.083
17965WAT     H154137   5.978   1.500   6.172
17965WAT     H254138   6.039   1.535   6.025
17966WAT      O54139   7.835   5.398   0.623
17966WAT     H154140   7.739   5.416   0.605
17966WAT     H254141   7.868   5.327   0.559
17967WAT      O54142   4.813   7.064   7.665
17967WAT     H154143   4.763   6.992   7.715
17967WAT     H254144   4.768   7.152   7.681
17968WAT      O54145   1.007   7.641   9.713
17968WAT     H154146   1.061   7.621   9.632
17968WAT     H254147   1.004   7.740   9.728
17969WAT      O54148   2.054   7.951   1.395
17969WAT     H154149   2.091   7.909   1.478
17969WAT     H254150   2.053   8.051   1.406
17970WAT      O54151   8.589   5.989   7.712
17970WAT     H154152   8.615   5.908   7.764
17970WAT     H254153   8.496   6.016   7.735
17971WAT      O54154   5.782   4.849   5.337
17971WAT     H154155   5.827   4.773   5.383
17971WAT     H254156   5.848   4.924   5.326
17972WAT      O54157   5.420   6.479   0.502
17972WAT     H154158   5.490   6.407   0.495
17972WAT     H254159   5.452   6.561   0.455
17973WAT      O54160   0.455   7.012   8.209
17973WAT     H154161   0.355   7.005   8.219
17973WAT     H254162   0.477   7.089   8.149
17974WAT      O54163   7.353   5.431   0.708
17974WAT     H154164   7.387   5.421   0.802
17974WAT     H254165   7.340   5.528   0.688
17975WAT      O54166   4.854   1.919   0.429
17975WAT     H154167   4.855   2.005   0.481
17975WAT     H254168   4.933   1.864   0.455
17976WAT      O54169   4.030   9.809   6.016
17976WAT     H154170   3.949   9.787   5.962
17976WAT     H254171   4.107   9.753   5.984
17977WAT      O54172   0.167   7.339   4.258
17977WAT     H154173   0.216   7.318   4.173
17977WAT     H254174   0.219   7.406   4.310
17978WAT      O54175   5.894   8.939   8.969
17978WAT     H154176   5.907   8.924   8.871
17978WAT     H254177   5.817   8.883   9.001
17979WAT      O54178   4.101   0.005   6.657
17979WAT     H154179   4.028   0.002   6.587
17979WAT     H254180   4.073   0.066   6.731
17980WAT      O54181   2.648   4.483   1.565
17980WAT     H154182   2.692   4.398   1.593
17980WAT     H254183   2.581   4.464   1.493
17981WAT      O54184   1.747   6.248   1.399
17981WAT     H154185   1.772   6.310   1.473
17981WAT     H254186   1.782   6.157   1.418
17982WAT      O54187   4.538   4.686   8.819
17982WAT     H154188   4.584   4.620   8.879
17982WAT     H254189   4.587   4.690   8.732
17983WAT      O54190   7.290   3.562   2.812
17983WAT     H154191   7.371   3.509   2.838
17983WAT     H254192   7.309   3.660   2.826
17984WAT      O54193   7.903   8.908   5.117
17984WAT     H154194   7.971   8.981   5.115
17984WAT     H254195   7.949   8.821   5.133
17985WAT      O54196   7.212   9.351   3.348
17985WAT     H154197   7.212   9.251   3.353
17985WAT     H254198   7.182   9.389   3.435
17986WAT      O54199   8.977   5.638   9.449
17986WAT     H154200   9.044   5.573   9.413
17986WAT     H254201   8.972   5.718   9.389
17987WAT      O54202   4.562   7.516   2.782
17987WAT     H154203   4.598   7.543   2.871
17987WAT     H254204   4.515   7.428   2.790
17988WAT      O54205   8.341   5.779   9.019
17988WAT     H154206   8.262   5.806   8.964
17988WAT     H254207   8.385   5.860   9.059
17989WAT      O54208   8.710   8.976   1.652
17989WAT     H154209   8.751   8.999   1.740
17989WAT     H254210   8.745   9.039   1.582
17990WAT      O54211   0.307   8.961   6.329
17990WAT     H154212   0.225   8.921   6.370
17990WAT     H254213   0.281   9.034   6.266
17991WAT      O54214   2.113   2.792   4.485
17991WAT     H154215   2.052   2.717   4.457
17991WAT     H254216   2.076   2.835   4.567
17992WAT      O54217   2.725   8.390   8.144
17992WAT     H154218   2.791   8.411   8.072
17992WAT     H254219   2.633   8.410   8.111
17993WAT      O54220   7.104   2.349   4.879
17993WAT     H154221   7.158   2.379   4.800
17993WAT     H254222   7.017   2.398   4.880
17994WAT      O54223   2.291   6.427   6.198
17994WAT     H154224   2.239   6.373   6.131
17994WAT     H254225   2.366   6.372   6.234
17995WAT      O54226   2.102   5.061   3.504
17995WAT     H154227   2.125   4.968   3.530
17995WAT     H254228   2.133   5.125   3.574
17996WAT      O54229   6.983   3.697   2.975
17996WAT     H154230   6.921   3.621   2.954
17996WAT     H254231   7.073   3.660   3.000
17997WAT      O54232   7.745   8.294   4.804
17997WAT     H154233   7.689   8.346   4.739
17997WAT     H254234   7.794   8.358   4.864
17998WAT      O54235   5.042   0.937   3.061
17998WAT     H154236   5.045   0.868   2.989
17998WAT     H254237   5.030   0.892   3.150
17999WAT      O54238   8.605   0.382   4.515
17999WAT     H154239   8.622   0.472   4.475
17999WAT     H254240   8.603   0.313   4.442
18000WAT      O54241   2.526   1.139   8.311
18000WAT     H154242   2.555   1.051   8.275
18000WAT     H254243   2.454   1.177   8.252
18001WAT      O54244   3.533   9.373   3.533
18001WAT     H154245   3.434   9.379   3.516
18001WAT     H254246   3.575   9.317   3.461
18002WAT      O54247   8.650   3.876   2.906
18002WAT     H154248   8.738   3.922   2.922
18002WAT     H254249   8.631   3.874   2.808
18003WAT      O54250   6.386   4.351   8.828
18003WAT     H154251   6.464   4.292   8.849
18003WAT     H254252   6.410   4.446   8.847
18004WAT      O54253   3.840   5.656   8.918
18004WAT     H154254   3.754   5.615   8.946
18004WAT     H254255   3.838   5.677   8.820
18005WAT      O54256   2.645   3.489   0.338
18005WAT     H154257   2.638   3.505   0.437
18005WAT     H254258   2.575   3.424   0.310
18006WAT      O54259   0.375   8.655   3.031
18006WAT     H154260   0.310   8.691   3.097
18006WAT     H254261   0.372   8.709   2.948
18007WAT      O54262   8.508   9.496   9.033
18007WAT     H154263   8.484   9.590   9.058
18007WAT     H254264   8.496   9.483   8.935
18008WAT      O54265   9.154   6.191   1.987
18008WAT     H154266   9.242   6.175   2.031
18008WAT     H254267   9.113   6.103   1.962
18009WAT      O54268   0.990   5.122   6.374
18009WAT     H154269   0.919   5.193   6.371
18009WAT     H254270   0.967   5.050   6.308
18010WAT      O54271   6.038   8.288   3.418
18010WAT     H154272   6.006   8.205   3.371
18010WAT     H254273   6.109   8.264   3.484
18011WAT      O54274   2.443   2.868   1.912
18011WAT     H154275   2.478   2.821   1.993
18011WAT     H254276   2.391   2.804   1.855
18012WAT      O54277   5.570   8.707   2.399
18012WAT     H154278   5.494   8.646   2.421
18012WAT     H254279   5.654   8.654   2.390
18013WAT      O54280   4.774   2.228   9.372
18013WAT     H154281   4.853   2.204   9.316
18013WAT     H254282   4.735   2.314   9.339
18014WAT      O54283   2.725   8.185   5.273
18014WAT     H154284   2.735   8.267   5.216
18014WAT     H254285   2.638   8.191   5.323
18015WAT      O54286   3.280   3.850   3.933
18015WAT     H154287   3.198   3.855   3.877
18015WAT     H254288   3.254   3.838   4.029
18016WAT      O54289   4.897   3.273   4.250
18016WAT     H154290   4.948   3.342   4.198
18016WAT     H254291   4.871   3.198   4.189
18017WAT      O54292   3.012   1.085   1.110
18017WAT     H154293   3.009   1.039   1.021
18017WAT     H254294   2.919   1.109   1.138
18018WAT      O54295   3.202   0.484   3.145
18018WAT     H154296   3.257   0.543   3.204
18018WAT     H254297   3.116   0.530   3.123
18019WAT      O54298   4.659   3.939   0.081
18019WAT     H154299   4.586   3.910   0.142
18019WAT     H254300   4.735   3.976   0.135
18020WAT      O54301   6.529   8.758   4.120
18020WAT     H154302   6.517   8.839   4.064
18020WAT     H254303   6.623   8.755   4.155
18021WAT      O54304   0.077   8.563   3.712
18021WAT     H154305   0.032   8.584   3.799
18021WAT     H254306   0.161   8.512   3.730
18022WAT      O54307   4.816   3.126   4.867
18022WAT     H154308   4.730   3.177   4.869
18022WAT     H254309   4.855   3.123   4.960
18023WAT      O54310   8.995   9.690   7.278
18023WAT     H154311   8.954   9.751   7.345
18023WAT     H254312   9.093   9.681   7.295
18024WAT      O54313   0.357   9.719   3.705
18024WAT     H154314   0.317   9.740   3.616
18024WAT     H254315   0.404   9.631   3.700
18025WAT      O54316   7.240   6.238   9.234
18025WAT     H154317   7.213   6.241   9.138
18025WAT     H254318   7.226   6.328   9.275
18026WAT      O54319   1.877   1.741   3.377
18026WAT     H154320   1.803   1.697   3.325
18026WAT     H254321   1.960   1.686   3.368
18027WAT      O54322   7.881   8.096   6.734
18027WAT     H154323   7.844   8.115   6.643
18027WAT     H254324   7.941   8.171   6.762
18028WAT      O54325   6.395   6.045   6.743
18028WAT     H154326   6.377   6.129   6.693
18028WAT     H254327   6.347   6.046   6.831
18029WAT      O54328   9.332   4.265   6.332
18029WAT     H154329   9.356   4.256   6.236
18029WAT     H254330   9.288   4.180   6.363
18030WAT      O54331   0.272   8.043   7.466
18030WAT     H154332   0.290   8.074   7.559
18030WAT     H254333   0.223   8.114   7.415
18031WAT      O54334   6.870   3.004   1.652
18031WAT     H154335   6.809   2.933   1.687
18031WAT     H254336   6.863   3.086   1.709
18032WAT      O54337   9.534   3.643   3.450
18032WAT     H154338   9.617   3.617   3.402
18032WAT     H254339   9.501   3.731   3.415
18033WAT      O54340   8.005   9.042   3.372
18033WAT     H154341   8.033   9.036   3.468
18033WAT     H254342   8.086   9.047   3.314
18034WAT      O54343   1.512   2.777   0.359
18034WAT     H154344   1.452   2.815   0.429
18034WAT     H254345   1.596   2.742   0.401
18035WAT      O54346   4.024   9.448   3.198
18035WAT     H154347   4.087   9.525   3.192
18035WAT     H254348   4.074   9.363   3.186
18036WAT      O54349   8.805   0.307   0.532
18036WAT     H154350   8.752   0.224   0.511
18036WAT     H254351   8.899   0.295   0.500
18037WAT      O54352   6.833   0.996   0.601
18037WAT     H154353   6.856   0.901   0.624
18037WAT     H254354   6.910   1.037   0.552
18038WAT      O54355   5.663   7.712   4.536
18038WAT     H154356   5.678   7.777   4.461
18038WAT     H254357   5.750   7.693   4.582
18039WAT      O54358   1.636   6.261   6.912
18039WAT     H154359   1.638   6.355   6.947
18039WAT     H254360   1.653   6.262   6.814
18040WAT      O54361   1.950   5.726   0.996
18040WAT     H154362   2.046   5.696   1.000
18040WAT     H254363   1.893   5.661   1.046
18041WAT      O54364   2.543   7.618   5.202
18041WAT     H154365   2.554   7.671   5.118
18041WAT     H254366   2.475   7.546   5.187
18042WAT      O54367   8.188   1.420   9.671
18042WAT     H154368   8.171   1.338   9.617
18042WAT     H254369   8.133   1.496   9.635
18043WAT      O54370   7.479   0.786   6.285
18043WAT     H154371   7.501   0.814   6.379
18043WAT     H254372   7.523   0.849   6.221
18044WAT      O54373   4.962   7.116   4.042
18044WAT     H154374   4.894   7.122   3.969
18044WAT     H254375   4.978   7.020   4.065
18045WAT      O54376   8.141   8.096   7.722
18045WAT     H154377   8.111   8.138   7.636
18045WAT     H254378   8.114   8.155   7.799
18046WAT      O54379   2.326   6.692   3.323
18046WAT     H154380   2.335   6.701   3.422
18046WAT     H254381   2.229   6.679   3.300
18047WAT      O54382   4.265   8.025   1.544
18047WAT     H154383   4.201   8.048   1.470
18047WAT     H254384   4.241   8.076   1.626
18048WAT      O54385   9.135   4.320   2.857
18048WAT     H154386   9.040   4.292   2.858
18048WAT     H254387   9.194   4.242   2.878
18049WAT      O54388   6.981   1.607   3.523
18049WAT     H154389   6.953   1.556   3.605
18049WAT     H254390   6.955   1.556   3.441
18050WAT      O54391   9.190   3.348   8.282
18050WAT     H154392   9.208   3.253   8.255
18050WAT     H254393   9.156   3.399   8.203
18051WAT      O54394   2.832   0.657   5.909
18051WAT     H154395   2.787   0.713   5.979
18051WAT     H254396   2.916   0.618   5.946
18052WAT      O54397   5.261   7.774   6.626
18052WAT     H154398   5.347   7.740   6.587
18052WAT     H254399   5.252   7.871   6.608
18053WAT      O54400   7.895   5.425   2.948
18053WAT     H154401   7.949   5.453   3.028
18053WAT     H254402   7.949   5.362   2.892
18054WAT      O54403   0.903   1.430   0.675
18054WAT     H154404   0.813   1.418   0.633
18054WAT     H254405   0.973   1.429   0.604
18055WAT      O54406   6.586   9.004   4.014
18055WAT     H154407   6.684   8.986   4.009
18055WAT     H254408   6.568   9.065   4.092
18056WAT      O54409   7.149   0.146   4.260
18056WAT     H154410   7.174   0.055   4.225
18056WAT     H254411   7.049   0.152   4.267
18057WAT      O54412   1.220   4.096   0.834
18057WAT     H154413   1.240   4.104   0.932
18057WAT     H254414   1.219   4.186   0.792
18058WAT      O54415   7.070   8.171   1.561
18058WAT     H154416   7.052   8.259   1.517
18058WAT     H254417   6.985   8.131   1.594
18059WAT      O54418   2.793   3.296   1.181
18059WAT     H154419   2.885   3.313   1.214
18059WAT     H254420   2.776   3.351   1.099
18060WAT      O54421   4.208   2.124   2.100
18060WAT     H154422   4.124   2.070   2.110
18060WAT     H254423   4.211   2.194   2.172
18061WAT      O54424   9.077   7.823   4.565
18061WAT     H154425   9.076   7.724   4.579
18061WAT     H254426   8.985   7.860   4.582
18062WAT      O54427   3.427   8.903   2.444
18062WAT     H154428   3.400   8.998   2.435
18062WAT     H254429   3.347   8.846   2.464
18063WAT      O54430   1.855   8.526   2.824
18063WAT     H154431   1.783   8.467   2.787
18063WAT     H254432   1.942   8.478   2.820
18064WAT      O54433   2.263   5.115   5.333
18064WAT     H154434   2.167   5.105   5.305
18064WAT     H254435   2.275   5.076   5.425
18065WAT      O54436   1.208   7.277   6.302
18065WAT     H154437   1.214   7.335   6.383
18065WAT     H254438   1.298   7.240   6.280
18066WAT      O54439   1.977   1.095   4.242
18066WAT     H154440   1.894   1.046   4.215
18066WAT     H254441   1.988   1.176   4.184
18067WAT      O54442   4.379   9.493   6.845
18067WAT     H154443   4.449   9.548   6.890
18067WAT     H254444   4.379   9.512   6.747
18068WAT      O54445   7.643   1.212   8.179
18068WAT     H154446   7.673   1.205   8.084
18068WAT     H254447   7.628   1.307   8.203
18069WAT      O54448   3.196   8.674   9.736
18069WAT     H154449   3.256   8.594   9.731
18069WAT     H254450   3.251   8.757   9.738
18070WAT      O54451   8.082   5.578   4.525
18070WAT     H154452   8.153   5.531   4.472
18070WAT     H254453   8.098   5.676   4.522
18071WAT      O54454   3.786   1.812   5.771
18071WAT     H154455   3.805   1.725   5.816
18071WAT     H254456   3.872   1.854   5.741
18072WAT      O54457   7.208   4.415   6.764
18072WAT     H154458   7.188   4.362   6.681
18072WAT     H254459   7.303   4.399   6.791
18073WAT      O54460   5.619   5.146   0.454
18073WAT     H154461   5.550   5.158   0.383
18073WAT     H254462   5.710   5.151   0.413
18074WAT      O54463   5.624   0.067   3.503
18074WAT     H154464   5.525   0.059   3.507
18074WAT     H254465   5.652   0.158   3.533
18075WAT      O54466   6.434   2.737   7.990
18075WAT     H154467   6.489   2.785   8.058
18075WAT     H254468   6.453   2.639   7.995
18076WAT      O54469   2.027   7.391   7.025
18076WAT     H154470   1.948   7.429   7.072
18076WAT     H254471   2.095   7.361   7.092
18077WAT      O54472   5.207   1.441   8.394
18077WAT     H154473   5.190   1.425   8.491
18077WAT     H254474   5.277   1.378   8.361
18078WAT      O54475   1.331   2.592   0.929
18078WAT     H154476   1.268   2.645   0.986
18078WAT     H254477   1.283   2.512   0.892
18079WAT      O54478   5.439   3.718   5.398
18079WAT     H154479   5.441   3.769   5.484
18079WAT     H254480   5.388   3.633   5.411
18080WAT      O54481   1.179   1.028   0.176
18080WAT     H154482   1.095   1.056   0.130
18080WAT     H254483   1.167   0.937   0.215
18081WAT      O54484   7.650   5.850   3.804
18081WAT     H154485   7.687   5.906   3.879
18081WAT     H254486   7.595   5.907   3.744
18082WAT      O54487   5.359   5.756   1.682
18082WAT     H154488   5.405   5.669   1.664
18082WAT     H254489   5.403   5.803   1.758
18083WAT      O54490   8.001   5.746   9.719
18083WAT     H154491   7.953   5.674   9.769
18083WAT     H254492   7.976   5.835   9.757
18084WAT      O54493   1.620   5.985   7.558
18084WAT     H154494   1.653   5.962   7.650
18084WAT     H254495   1.674   6.062   7.522
18085WAT      O54496   4.665   8.327   2.985
18085WAT     H154497   4.676   8.386   3.065
18085WAT     H254498   4.755   8.306   2.947
18086WAT      O54499   7.391   6.813   3.371
18086WAT     H154500   7.421   6.772   3.285
18086WAT     H254501   7.430   6.905   3.380
18087WAT      O54502   8.037   9.176   3.006
18087WAT     H154503   8.098   9.183   2.927
18087WAT     H254504   7.942   9.184   2.976
18088WAT      O54505   7.385   5.457   1.633
18088WAT     H154506   7.392   5.439   1.731
18088WAT     H254507   7.436   5.540   1.611
18089WAT      O54508   5.502   3.151   4.976
18089WAT     H154509   5.474   3.180   5.067
18089WAT     H254510   5.534   3.231   4.924
18090WAT      O54511   9.297   2.369   0.229
18090WAT     H154512   9.359   2.385   0.306
18090WAT     H254513   9.204   2.397   0.254
18091WAT      O54514   8.552   9.089   1.024
18091WAT     H154515   8.452   9.081   1.028
18091WAT     H254516   8.578   9.148   0.948
18092WAT      O54517   7.807   9.824   8.745
18092WAT     H154518   7.713   9.817   8.711
18092WAT     H254519   7.811   9.791   8.839
18093WAT      O54520   1.640   5.010   2.300
18093WAT     H154521   1.733   4.993   2.268
18093WAT     H254522   1.601   5.086   2.249
18094WAT      O54523   3.683   4.917   7.732
18094WAT     H154524   3.643   4.884   7.647
18094WAT     H254525   3.748   4.850   7.766
18095WAT      O54526   5.994   9.689   6.355
18095WAT     H154527   6.061   9.697   6.281
18095WAT     H254528   5.921   9.627   6.326
18096WAT      O54529   7.215   5.461   9.853
18096WAT     H154530   7.120   5.438   9.873
18096WAT     H254531   7.272   5.442   9.934
18097WAT      O54532   6.031   4.020   6.229
18097WAT     H154533   5.969   3.992   6.157
18097WAT     H254534   6.012   4.115   6.255
18098WAT      O54535   0.450   1.549   3.640
18098WAT     H154536   0.480   1.638   3.606
18098WAT     H254537   0.526   1.503   3.686
18099WAT      O54538   9.003   3.650   0.714
18099WAT     H154539   8.950   3.585   0.768
18099WAT     H254540   9.025   3.729   0.770
18100WAT      O54541   9.222   7.215   6.951
18100WAT     H154542   9.276   7.236   6.870
18100WAT     H254543   9.130   7.185   6.923
18101WAT      O54544   9.250   8.370   9.052
18101WAT     H154545   9.169   8.337   9.100
18101WAT     H254546   9.284   8.298   8.991
18102WAT      O54547   7.024   3.070   1.219
18102WAT     H154548   7.102   3.095   1.161
18102WAT     H254549   6.941   3.071   1.164
18103WAT      O54550   4.857   8.237   1.662
18103WAT     H154551   4.905   8.182   1.595
18103WAT     H254552   4.803   8.178   1.722
18104WAT      O54553   4.531   5.321   3.080
18104WAT     H154554   4.543   5.238   3.025
18104WAT     H254555   4.609   5.332   3.141
18105WAT      O54556   3.339   5.229   2.686
18105WAT     H154557   3.321   5.197   2.593
18105WAT     H254558   3.437   5.246   2.697
18106WAT      O54559   8.314   8.707   5.465
18106WAT     H154560   8.323   8.728   5.562
18106WAT     H254561   8.379   8.760   5.412
18107WAT      O54562   6.164   3.876   5.531
18107WAT     H154563   6.139   3.893   5.436
18107WAT     H254564   6.261   3.854   5.537
18108WAT      O54565   4.367   6.124   9.010
18108WAT     H154566   4.335   6.037   8.973
18108WAT     H254567   4.459   6.144   8.974
18109WAT      O54568   2.702   3.403   5.792
18109WAT     H154569   2.718   3.306   5.776
18109WAT     H254570   2.765   3.457   5.736
18110WAT      O54571   5.953   5.158   5.515
18110WAT     H154572   5.924   5.252   5.504
18110WAT     H254573   5.962   5.114   5.426
18111WAT      O54574   5.438   7.524   0.187
18111WAT     H154575   5.507   7.498   0.119
18111WAT     H254576   5.361   7.567   0.141
18112WAT      O54577   8.273   0.037   6.772
18112WAT     H154578   8.199   0.101   6.793
18112WAT     H254579   8.329   0.022   6.854
18113WAT      O54580   9.512   9.287   4.793
18113WAT     H154581   9.552   9.197   4.776
18113WAT     H254582   9.439   9.304   4.726
18114WAT      O54583   8.654   2.665   9.674
18114WAT     H154584   8.613   2.743   9.626
18114WAT     H254585   8.618   2.580   9.636
18115WAT      O54586   9.551   4.778   5.199
18115WAT     H154587   9.488   4.854   5.184
18115WAT     H254588   9.645   4.813   5.199
18116WAT      O54589   5.110   5.358   6.399
18116WAT     H154590   5.162   5.293   6.344
18116WAT     H254591   5.037   5.310   6.447
18117WAT      O54592   7.753   1.529   9.682
18117WAT     H154593   7.808   1.448   9.700
18117WAT     H254594   7.674   1.505   9.625
18118WAT      O54595   6.275   4.395   7.680
18118WAT     H154596   6.310   4.483   7.712
18118WAT     H254597   6.175   4.399   7.675
18119WAT      O54598   6.994   8.779   7.542
18119WAT     H154599   6.919   8.731   7.588
18119WAT     H254600   6.957   8.830   7.463
18120WAT      O54601   9.208   1.799   7.524
18120WAT     H154602   9.165   1.729   7.467
18120WAT     H254603   9.154   1.884   7.519
18121WAT      O54604   3.967   4.971   4.882
18121WAT     H154605   3.881   4.977   4.934
18121WAT     H254606   3.964   5.037   4.807
18122WAT      O54607   9.806   1.220   7.730
18122WAT     H154608   9.835   1.125   7.720
18122WAT     H254609   9.851   1.260   7.811
18123WAT      O54610   4.519   5.964   1.985
18123WAT     H154611   4.468   6.049   1.970
18123WAT     H254612   4.456   5.890   2.007
18124WAT      O54613   6.399   8.238   0.164
18124WAT     H154614   6.351   8.215   0.080
18124WAT     H254615   6.446   8.156   0.198
18125WAT      O54616   5.115   1.320   4.457
18125WAT     H154617   5.131   1.222   4.451
18125WAT     H254618   5.191   1.364   4.505
18126WAT      O54619   5.907   6.285   6.007
18126WAT     H154620   5.935   6.289   5.911
18126WAT     H254621   5.933   6.196   6.046
18127WAT      O54622   7.761   0.736   5.153
18127WAT     H154623   7.729   0.708   5.244
18127WAT     H254624   7.684   0.734   5.089
18128WAT      O54625   8.210   5.473   5.162
18128WAT     H154626   8.300   5.432   5.173
18128WAT     H254627   8.207   5.561   5.210
18129WAT      O54628   8.452   4.127   0.978
18129WAT     H154629   8.418   4.204   0.923
18129WAT     H254630   8.517   4.161   1.047
18130WAT      O54631   0.015   6.733   1.015
18130WAT     H154632   0.085   6.758   1.082
18130WAT     H254633   0.013   6.634   1.004
18131WAT      O54634   9.644   5.559   4.829
18131WAT     H154635   9.698   5.522   4.753
18131WAT     H254636   9.669   5.655   4.844
18132WAT      O54637   1.840   9.378   1.352
18132WAT     H154638   1.753   9.425   1.339
18132WAT     H254639   1.900   9.435   1.409
18133WAT      O54640   1.338   3.292   3.564
18133WAT     H154641   1.313   3.316   3.658
18133WAT     H254642   1.284   3.348   3.500
18134WAT      O54643   0.220   7.658   4.579
18134WAT     H154644   0.146   7.595   4.605
18134WAT     H254645   0.257   7.701   4.662
18135WAT      O54646   4.670   0.877   7.247
18135WAT     H154647   4.584   0.852   7.291
18135WAT     H254648   4.693   0.971   7.270
18136WAT      O54649   4.241   5.377   5.090
18136WAT     H154650   4.196   5.350   5.175
18136WAT     H254651   4.220   5.310   5.018
18137WAT      O54652   6.566   6.958   3.880
18137WAT     H154653   6.632   6.908   3.935
18137WAT     H254654   6.493   6.896   3.851
18138WAT      O54655   2.505   0.602   6.177
18138WAT     H154656   2.444   0.682   6.182
18138WAT     H254657   2.486   0.551   6.094
18139WAT      O54658   5.375   4.721   2.448
18139WAT     H154659   5.416   4.753   2.534
18139WAT     H254660   5.328   4.797   2.404
18140WAT      O54661   0.058   1.824   6.378
18140WAT     H154662   0.067   1.759   6.303
18140WAT     H254663   0.088   1.915   6.349
18141WAT      O54664   7.308   5.691   6.539
18141WAT     H154665   7.281   5.635   6.617
18141WAT     H254666   7.320   5.786   6.569
18142WAT      O54667   4.531   1.003   9.202
18142WAT     H154668   4.457   0.968   9.145
18142WAT     H254669   4.577   0.927   9.248
18143WAT      O54670   3.542   0.143   6.451
18143WAT     H154671   3.491   0.165   6.534
18143WAT     H254672   3.599   0.062   6.467
18144WAT      O54673   3.615   3.533   5.703
18144WAT     H154674   3.697   3.545   5.759
18144WAT     H254675   3.641   3.532   5.606
18145WAT      O54676   5.399   0.287   4.638
18145WAT     H154677   5.389   0.353   4.713
18145WAT     H254678   5.469   0.319   4.574
18146WAT      O54679   3.265   0.433   2.770
18146WAT     H154680   3.326   0.397   2.840
18146WAT     H254681   3.241   0.361   2.705
18147WAT      O54682   4.913   5.085   4.706
18147WAT     H154683   4.931   5.146   4.629
18147WAT     H254684   4.996   5.033   4.727
18148WAT      O54685   4.885   6.177   9.711
18148WAT     H154686   4.945   6.170   9.792
18148WAT     H254687   4.859   6.272   9.698
18149WAT      O54688   5.177   6.449   0.776
18149WAT     H154689   5.244   6.376   0.762
18149WAT     H254690   5.119   6.458   0.695
18150WAT      O54691   2.126   2.890   1.034
18150WAT     H154692   2.054   2.827   1.006
18150WAT     H254693   2.185   2.908   0.955
18151WAT      O54694   3.150   3.018   9.779
18151WAT     H154695   3.062   3.061   9.798
18151WAT     H254696   3.218   3.089   9.761
18152WAT      O54697   4.067   7.791   3.213
18152WAT     H154698   4.052   7.711   3.272
18152WAT     H254699   4.131   7.766   3.141
18153WAT      O54700   5.735   6.683   8.311
18153WAT     H154701   5.639   6.704   8.292
18153WAT     H254702   5.778   6.761   8.357
18154WAT      O54703   1.234   9.763   0.811
18154WAT     H154704   1.325   9.769   0.854
18154WAT     H254705   1.180   9.842   0.837
18155WAT      O54706   0.922   4.994   3.163
18155WAT     H154707   0.896   4.942   3.081
18155WAT     H254708   0.841   5.012   3.218
18156WAT      O54709   0.632   6.465   4.009
18156WAT     H154710   0.544   6.418   4.013
18156WAT     H254711   0.666   6.480   4.102
18157WAT      O54712   0.940   9.277   1.556
18157WAT     H154713   1.032   9.312   1.537
18157WAT     H254714   0.872   9.338   1.514
18158WAT      O54715   2.260   7.967   0.005
18158WAT     H154716   2.248   7.870  -0.017
18158WAT     H254717   2.308   7.976   0.093
18159WAT      O54718   1.897   4.887   9.892
18159WAT     H154719   1.919   4.881   9.795
18159WAT     H254720   1.978   4.866   9.947
18160WAT      O54721   1.974   0.565   5.936
18160WAT     H154722   1.895   0.504   5.932
18160WAT     H254723   2.043   0.534   5.871
18161WAT      O54724   8.344   5.528   2.988
18161WAT     H154725   8.418   5.490   3.043
18161WAT     H254726   8.365   5.623   2.966
18162WAT      O54727   3.674   8.419   4.480
18162WAT     H154728   3.725   8.503   4.466
18162WAT     H254729   3.577   8.440   4.492
18163WAT      O54730   6.288   3.906   3.617
18163WAT     H154731   6.336   3.968   3.555
18163WAT     H254732   6.216   3.859   3.568
18164WAT      O54733   5.389   6.570   9.524
18164WAT     H154734   5.445   6.648   9.494
18164WAT     H254735   5.292   6.591   9.507
18165WAT      O54736   2.631   3.279   3.580
18165WAT     H154737   2.586   3.351   3.527
18165WAT     H254738   2.689   3.225   3.520
18166WAT      O54739   5.548   6.297   7.282
18166WAT     H154740   5.544   6.258   7.189
18166WAT     H254741   5.484   6.374   7.288
18167WAT      O54742   8.589   4.828   6.746
18167WAT     H154743   8.591   4.836   6.647
18167WAT     H254744   8.603   4.918   6.787
18168WAT      O54745   0.960   6.712   0.262
18168WAT     H154746   1.043   6.710   0.317
18168WAT     H254747   0.962   6.638   0.195
18169WAT      O54748   8.988   2.728   6.301
18169WAT     H154749   9.046   2.810   6.295
18169WAT     H254750   8.898   2.754   6.335
18170WAT      O54751   5.514   5.950   0.097
18170WAT     H154752   5.487   6.041   0.065
18170WAT     H254753   5.441   5.912   0.154
18171WAT      O54754   9.701   8.889   2.601
18171WAT     H154755   9.768   8.832   2.649
18171WAT     H254756   9.632   8.921   2.666
18172WAT      O54757   8.672   2.643   4.558
18172WAT     H154758   8.733   2.568   4.584
18172WAT     H254759   8.725   2.720   4.525
18173WAT      O54760   7.067   8.853   2.354
18173WAT     H154761   6.982   8.804   2.372
18173WAT     H254762   7.088   8.849   2.256
18174WAT      O54763   2.971   1.031   3.566
18174WAT     H154764   3.057   1.082   3.558
18174WAT     H254765   2.919   1.065   3.644
18175WAT      O54766   0.272   0.970   5.854
18175WAT     H154767   0.173   0.977   5.864
18175WAT     H254768   0.295   0.903   5.783
18176WAT      O54769   2.719   5.586   5.373
18176WAT     H154770   2.657   5.630   5.438
18176WAT     H254771   2.734   5.491   5.400
18177WAT      O54772   6.686   1.223   1.151
18177WAT     H154773   6.613   1.222   1.218
18177WAT     H254774   6.747   1.144   1.167
18178WAT      O54775   1.579   7.937   6.256
18178WAT     H154776   1.534   8.001   6.194
18178WAT     H254777   1.517   7.914   6.332
18179WAT      O54778   9.839   9.073   4.119
18179WAT     H154779   9.755   9.021   4.104
18179WAT     H254780   9.892   9.077   4.034
18180WAT      O54781   1.597   5.778   5.559
18180WAT     H154782   1.649   5.855   5.521
18180WAT     H254783   1.513   5.813   5.601
18181WAT      O54784   0.156   1.069   0.036
18181WAT     H154785   0.131   0.977   0.007
18181WAT     H254786   0.152   1.131  -0.042
18182WAT      O54787   8.231   7.461   0.389
18182WAT     H154788   8.310   7.405   0.364
18182WAT     H254789   8.163   7.404   0.435
18183WAT      O54790   5.328   0.604   8.954
18183WAT     H154791   5.284   0.562   9.033
18183WAT     H254792   5.309   0.702   8.954
18184WAT      O54793   2.439   1.669   9.509
18184WAT     H154794   2.365   1.634   9.451
18184WAT     H254795   2.412   1.661   9.605
18185WAT      O54796   8.332   1.738   0.129
18185WAT     H154797   8.411   1.791   0.159
18185WAT     H254798   8.350   1.698   0.039
18186WAT      O54799   3.924   9.828   7.183
18186WAT     H154800   3.829   9.800   7.198
18186WAT     H254801   3.976   9.814   7.268
18187WAT      O54802   6.348   4.195   1.633
18187WAT     H154803   6.373   4.152   1.547
18187WAT     H254804   6.300   4.281   1.616
18188WAT      O54805   1.979   1.480   1.405
18188WAT     H154806   1.950   1.401   1.351
18188WAT     H254807   2.078   1.481   1.413
18189WAT      O54808   0.169   0.081   5.238
18189WAT     H154809   0.104   0.146   5.199
18189WAT     H254810   0.153  -0.009   5.198
18190WAT      O54811   3.553   6.416   2.437
18190WAT     H154812   3.565   6.403   2.535
18190WAT     H254813   3.642   6.425   2.393
18191WAT      O54814   2.306   1.892   3.543
18191WAT     H154815   2.373   1.818   3.541
18191WAT     H254816   2.340   1.969   3.490
18192WAT      O54817   6.027   6.234   6.795
18192WAT     H154818   6.065   6.241   6.703
18192WAT     H254819   6.094   6.194   6.856
18193WAT      O54820   5.508   0.497   1.100
18193WAT     H154821   5.456   0.418   1.132
18193WAT     H254822   5.604   0.472   1.093
18194WAT      O54823   1.707   6.674   9.391
18194WAT     H154824   1.718   6.758   9.444
18194WAT     H254825   1.767   6.678   9.311
18195WAT      O54826   9.456   9.172   3.169
18195WAT     H154827   9.386   9.243   3.169
18195WAT     H254828   9.541   9.208   3.131
18196WAT      O54829   8.417   1.566   8.490
18196WAT     H154830   8.386   1.494   8.552
18196WAT     H254831   8.340   1.599   8.436
18197WAT      O54832   6.995   3.698   8.301
18197WAT     H154833   6.899   3.707   8.274
18197WAT     H254834   7.044   3.783   8.281
18198WAT      O54835   6.987   6.385   2.212
18198WAT     H154836   6.920   6.351   2.146
18198WAT     H254837   7.013   6.479   2.188
18199WAT      O54838   3.815   0.750   6.378
18199WAT     H154839   3.884   0.813   6.414
18199WAT     H254840   3.828   0.739   6.279
18200WAT      O54841   4.324   6.592   3.674
18200WAT     H154842   4.308   6.574   3.771
18200WAT     H254843   4.423   6.593   3.656
18201WAT      O54844   1.887   9.229   7.694
18201WAT     H154845   1.917   9.324   7.699
18201WAT     H254846   1.789   9.224   7.712
18202WAT      O54847   4.594   1.831   0.313
18202WAT     H154848   4.577   1.847   0.215
18202WAT     H254849   4.670   1.889   0.343
18203WAT      O54850   9.654   8.806   0.404
18203WAT     H154851   9.715   8.743   0.356
18203WAT     H254852   9.665   8.898   0.367
18204WAT      O54853   6.066   1.841   4.949
18204WAT     H154854   6.018   1.828   4.862
18204WAT     H254855   6.031   1.776   5.017
18205WAT      O54856   7.541   8.512   7.664
18205WAT     H154857   7.527   8.560   7.750
18205WAT     H254858   7.471   8.442   7.652
18206WAT      O54859   2.519   0.471   7.672
18206WAT     H154860   2.538   0.409   7.596
18206WAT     H254861   2.555   0.562   7.650
18207WAT      O54862   2.013   3.173   2.988
18207WAT     H154863   2.017   3.224   2.902
18207WAT     H254864   1.990   3.078   2.969
18208WAT      O54865   6.683   9.826   2.669
18208WAT     H154866   6.705   9.882   2.749
18208WAT     H254867   6.656   9.886   2.594
18209WAT      O54868   4.060   6.914   1.660
18209WAT     H154869   4.093   6.961   1.742
18209WAT     H254870   4.018   6.981   1.598
18210WAT      O54871   9.165   2.995   2.896
18210WAT     H154872   9.112   2.954   2.970
18210WAT     H254873   9.260   3.004   2.924
18211WAT      O54874   9.156   1.060   5.659
18211WAT     H154875   9.097   1.136   5.686
18211WAT     H254876   9.215   1.089   5.583
18212WAT      O54877   3.330   4.515   6.109
18212WAT     H154878   3.296   4.430   6.069
18212WAT     H254879   3.264   4.550   6.176
18213WAT      O54880   8.526   7.886   9.718
18213WAT     H154881   8.593   7.906   9.789
18213WAT     H254882   8.574   7.853   9.636
18214WAT      O54883   3.925   3.357   8.266
18214WAT     H154884   3.835   3.393   8.292
18214WAT     H254885   3.916   3.301   8.184
18215WAT      O54886   0.216   6.175   1.460
18215WAT     H154887   0.143   6.218   1.406
18215WAT     H254888   0.186   6.168   1.556
18216WAT      O54889   7.089   2.800   0.020
18216WAT     H154890   7.112   2.893  -0.008
18216WAT     H254891   7.007   2.802   0.078
18217WAT      O54892   5.743   4.247   6.480
18217WAT     H154893   5.739   4.336   6.526
18217WAT     H254894   5.663   4.193   6.506
18218WAT      O54895   5.405   0.430   5.352
18218WAT     H154896   5.401   0.452   5.255
18218WAT     H254897   5.460   0.499   5.400
18219WAT      O54898   5.459   1.820   3.101
18219WAT     H154899   5.370   1.829   3.146
18219WAT     H254900   5.520   1.765   3.159
18220WAT      O54901   6.841   8.912   3.956
18220WAT     H154902   6.845   8.845   4.030
18220WAT     H254903   6.896   8.992   3.981
18221WAT      O54904   1.069   9.263   1.201
18221WAT     H154905   1.057   9.184   1.141
18221WAT     H254906   1.129   9.238   1.277
18222WAT      O54907   7.217   5.573   7.925
18222WAT     H154908   7.193   5.481   7.894
18222WAT     H254909   7.277   5.616   7.857
18223WAT      O54910   2.611   7.493   1.346
18223WAT     H154911   2.533   7.472   1.405
18223WAT     H254912   2.695   7.465   1.391
18224WAT      O54913   3.414   5.964   5.048
18224WAT     H154914   3.371   5.918   4.970
18224WAT     H254915   3.367   6.050   5.066
18225WAT      O54916   0.178   3.966   6.586
18225WAT     H154917   0.103   4.030   6.602
18225WAT     H254918   0.183   3.901   6.662
18226WAT      O54919   2.778   4.825   4.831
18226WAT     H154920   2.839   4.757   4.872
18226WAT     H254921   2.810   4.916   4.854
18227WAT      O54922   6.344   6.628   7.263
18227WAT     H154923   6.411   6.631   7.188
18227WAT     H254924   6.282   6.706   7.255
18228WAT      O54925   8.178   2.349   1.666
18228WAT     H154926   8.220   2.279   1.608
18228WAT     H254927   8.091   2.377   1.626
18229WAT      O54928   1.671   3.528   2.155
18229WAT     H154929   1.674   3.610   2.098
18229WAT     H254930   1.725   3.543   2.238
18230WAT      O54931   5.082   4.468   2.159
18230WAT     H154932   5.067   4.452   2.257
18230WAT     H254933   5.122   4.559   2.146
18231WAT      O54934   2.116   4.801   6.270
18231WAT     H154935   2.137   4.855   6.188
18231WAT     H254936   2.020   4.816   6.295
18232WAT      O54937   8.850   3.449   5.096
18232WAT     H154938   8.942   3.477   5.067
18232WAT     H254939   8.802   3.406   5.020
18233WAT      O54940   3.004   7.025   3.449
18233WAT     H154941   3.074   6.996   3.384
18233WAT     H254942   3.033   7.002   3.542
18234WAT      O54943   3.712   1.616   5.501
18234WAT     H154944   3.708   1.521   5.469
18234WAT     H254945   3.619   1.652   5.512
18235WAT      O54946   0.179   5.696   5.008
18235WAT     H154947   0.104   5.762   5.010
18235WAT     H254948   0.238   5.715   4.930
18236WAT      O54949   3.912   0.525   5.666
18236WAT     H154950   3.962   0.440   5.686
18236WAT     H254951   3.935   0.555   5.574
18237WAT      O54952   6.169   0.853   6.045
18237WAT     H154953   6.145   0.777   5.984
18237WAT     H254954   6.267   0.872   6.037
18238WAT      O54955   0.233   9.830   1.909
18238WAT     H154956   0.203   9.738   1.932
18238WAT     H254957   0.255   9.835   1.811
18239WAT      O54958   6.084   6.356   8.304
18239WAT     H154959   6.001   6.336   8.252
18239WAT     H254960   6.060   6.373   8.400
18240WAT      O54961   3.828   7.580   2.195
18240WAT     H154962   3.865   7.576   2.288
18240WAT     H254963   3.896   7.545   2.130
18241WAT      O54964   4.591   1.190   5.316
18241WAT     H154965   4.595   1.253   5.238
18241WAT     H254966   4.500   1.194   5.357
18242WAT      O54967   6.607   8.613   5.027
18242WAT     H154968   6.666   8.546   5.073
18242WAT     H254969   6.656   8.653   4.950
18243WAT      O54970   3.791   5.244   4.883
18243WAT     H154971   3.697   5.210   4.884
18243WAT     H254972   3.827   5.238   4.789
18244WAT      O54973   1.086   0.762   3.531
18244WAT     H154974   0.992   0.759   3.565
18244WAT     H254975   1.087   0.802   3.439
18245WAT      O54976   3.160   8.900   6.704
18245WAT     H154977   3.070   8.921   6.742
18245WAT     H254978   3.231   8.923   6.771
18246WAT      O54979   5.545   5.633   4.395
18246WAT     H154980   5.466   5.692   4.414
18246WAT     H254981   5.576   5.648   4.301
18247WAT      O54982   7.808   0.274   4.569
18247WAT     H154983   7.740   0.302   4.502
18247WAT     H254984   7.766   0.269   4.659
18248WAT      O54985   4.030   7.156   4.833
18248WAT     H154986   3.965   7.231   4.846
18248WAT     H254987   4.048   7.144   4.735
18249WAT      O54988   7.762   5.762   8.418
18249WAT     H154989   7.777   5.730   8.324
18249WAT     H254990   7.679   5.719   8.455
18250WAT      O54991   9.695   2.049   3.797
18250WAT     H154992   9.640   2.112   3.743
18250WAT     H254993   9.747   1.989   3.736
18251WAT      O54994   3.726   2.262   1.288
18251WAT     H154995   3.735   2.275   1.190
18251WAT     H254996   3.693   2.347   1.330
18252WAT      O54997   8.456   5.125   8.038
18252WAT     H154998   8.464   5.142   7.940
18252WAT     H254999   8.543   5.092   8.073
18253WAT      O55000   5.060   9.075   5.492
18253WAT     H155001   5.058   9.046   5.396
18253WAT     H255002   4.967   9.075   5.529
18254WAT      O55003   2.774   9.290   6.932
18254WAT     H155004   2.786   9.251   6.841
18254WAT     H255005   2.828   9.374   6.939
18255WAT      O55006   2.523   2.674   4.152
18255WAT     H155007   2.549   2.588   4.109
18255WAT     H255008   2.428   2.695   4.131
18256WAT      O55009   0.430   4.280   8.161
18256WAT     H155010   0.447   4.270   8.063
18256WAT     H255011   0.346   4.332   8.175
18257WAT      O55012   4.618   2.485   6.359
18257WAT     H155013   4.603   2.561   6.423
18257WAT     H255014   4.606   2.398   6.408
18258WAT      O55015   8.327   3.754   1.556
18258WAT     H155016   8.300   3.766   1.461
18258WAT     H255017   8.401   3.817   1.579
18259WAT      O55018   9.013   4.130   4.367
18259WAT     H155019   8.930   4.113   4.313
18259WAT     H255020   8.988   4.173   4.453
18260WAT      O55021   5.914   6.825   9.098
18260WAT     H155022   5.851   6.890   9.054
18260WAT     H255023   5.979   6.790   9.031
18261WAT      O55024   9.034   1.662   4.900
18261WAT     H155025   9.056   1.643   4.995
18261WAT     H255026   8.935   1.664   4.888
18262WAT      O55027   4.658   7.014   9.678
18262WAT     H155028   4.563   6.999   9.707
18262WAT     H255029   4.706   6.927   9.674
18263WAT      O55030   8.094   5.916   1.433
18263WAT     H155031   8.142   5.833   1.462
18263WAT     H255032   8.161   5.986   1.407
18264WAT      O55033   6.841   5.594   0.828
18264WAT     H155034   6.758   5.564   0.781
18264WAT     H255035   6.882   5.671   0.780
18265WAT      O55036   2.442   9.265   8.141
18265WAT     H155037   2.412   9.255   8.235
18265WAT     H255038   2.363   9.260   8.080
18266WAT      O55039   6.636   1.468   5.127
18266WAT     H155040   6.623   1.449   5.225
18266WAT     H255041   6.692   1.550   5.116
18267WAT      O55042   2.654   2.225   7.563
18267WAT     H155043   2.736   2.254   7.612
18267WAT     H255044   2.633   2.130   7.585
18268WAT      O55045   6.515   7.182   0.387
18268WAT     H155046   6.602   7.162   0.341
18268WAT     H255047   6.444   7.198   0.319
18269WAT      O55048   7.974   4.709   9.102
18269WAT     H155049   7.882   4.692   9.138
18269WAT     H255050   7.968   4.755   9.014
18270WAT      O55051   2.195   2.901   5.648
18270WAT     H155052   2.257   2.979   5.634
18270WAT     H255053   2.119   2.930   5.706
18271WAT      O55054   1.226   2.136   9.162
18271WAT     H155055   1.248   2.109   9.068
18271WAT     H255056   1.300   2.108   9.223
18272WAT      O55057   5.845   8.097   5.237
18272WAT     H155058   5.842   8.153   5.320
18272WAT     H255059   5.757   8.053   5.223
18273WAT      O55060   1.869   1.421   6.307
18273WAT     H155061   1.833   1.497   6.253
18273WAT     H255062   1.812   1.408   6.388
18274WAT      O55063   9.798   7.646   2.577
18274WAT     H155064   9.788   7.735   2.621
18274WAT     H255065   9.853   7.586   2.636
18275WAT      O55066   5.706   6.682   5.905
18275WAT     H155067   5.658   6.664   5.819
18275WAT     H255068   5.640   6.704   5.976
18276WAT      O55069   4.874   2.096   7.837
18276WAT     H155070   4.901   2.192   7.831
18276WAT     H255071   4.845   2.064   7.747
18277WAT      O55072   2.967   4.119   5.354
18277WAT     H155073   3.021   4.201   5.373
18277WAT     H255074   2.870   4.139   5.372
18278WAT      O55075   3.713   8.325   2.533
18278WAT     H155076   3.652   8.263   2.483
18278WAT     H255077   3.661   8.376   2.601
18279WAT      O55078   4.261   3.372   6.225
18279WAT     H155079   4.350   3.416   6.210
18279WAT     H255080   4.233   3.325   6.142
18280WAT      O55081   6.046   1.366   5.051
18280WAT     H155082   6.119   1.386   4.985
18280WAT     H255083   5.960   1.351   5.002
18281WAT      O55084   9.018   9.314   4.667
18281WAT     H155085   8.993   9.218   4.652
18281WAT     H255086   9.117   9.325   4.654
18282WAT      O55087   8.981   0.762   9.241
18282WAT     H155088   8.887   0.791   9.221
18282WAT     H255089   8.983   0.705   9.323
18283WAT      O55090   0.730   1.996   8.225
18283WAT     H155091   0.828   1.993   8.245
18283WAT     H255092   0.684   1.921   8.273
18284WAT      O55093   7.383   1.987   0.738
18284WAT     H155094   7.323   1.916   0.776
18284WAT     H255095   7.418   1.956   0.649
18285WAT      O55096   6.728   1.773   7.228
18285WAT     H155097   6.735   1.871   7.213
18285WAT     H255098   6.808   1.728   7.187
18286WAT      O55099   5.644   6.112   5.071
18286WAT     H155100   5.644   6.149   4.978
18286WAT     H255101   5.706   6.166   5.129
18287WAT      O55102   2.578   3.727   5.575
18287WAT     H155103   2.525   3.661   5.629
18287WAT     H255104   2.550   3.820   5.598
18288WAT      O55105   2.585   0.115   8.902
18288WAT     H155106   2.645   0.124   8.981
18288WAT     H255107   2.493   0.090   8.933
18289WAT      O55108   0.490   2.171   6.930
18289WAT     H155109   0.488   2.264   6.967
18289WAT     H255110   0.396   2.138   6.918
18290WAT      O55111   6.159   6.852   1.447
18290WAT     H155112   6.073   6.813   1.413
18290WAT     H255113   6.156   6.859   1.546
18291WAT      O55114   1.260   9.437   8.627
18291WAT     H155115   1.352   9.401   8.640
18291WAT     H255116   1.201   9.407   8.702
18292WAT      O55117   0.170   2.338   8.724
18292WAT     H155118   0.264   2.374   8.724
18292WAT     H255119   0.143   2.317   8.630
18293WAT      O55120   6.307   2.620   5.274
18293WAT     H155121   6.282   2.623   5.177
18293WAT     H255122   6.396   2.575   5.284
18294WAT      O55123   2.915   4.321   1.815
18294WAT     H155124   2.834   4.312   1.758
18294WAT     H255125   2.932   4.236   1.864
18295WAT      O55126   6.685   4.226   7.904
18295WAT     H155127   6.589   4.237   7.881
18295WAT     H255128   6.697   4.235   8.003
18296WAT      O55129   4.249   3.275   5.825
18296WAT     H155130   4.262   3.242   5.732
18296WAT     H255131   4.204   3.204   5.880
18297WAT      O55132   3.987   2.903   1.748
18297WAT     H155133   3.892   2.876   1.769
18297WAT     H255134   4.039   2.823   1.721
18298WAT      O55135   8.617   9.270   3.663
18298WAT     H155136   8.620   9.206   3.740
18298WAT     H255137   8.582   9.358   3.693
18299WAT      O55138   1.176   0.828   7.350
18299WAT     H155139   1.168   0.770   7.269
18299WAT     H255140   1.145   0.920   7.328
18300WAT      O55141   0.506   9.462   9.612
18300WAT     H155142   0.477   9.431   9.703
18300WAT     H255143   0.606   9.458   9.606
18301WAT      O55144   8.235   8.099   8.920
18301WAT     H155145   8.143   8.067   8.941
18301WAT     H255146   8.260   8.071   8.827
18302WAT      O55147   3.060   3.478   7.730
18302WAT     H155148   3.007   3.542   7.675
18302WAT     H255149   3.100   3.408   7.671
18303WAT      O55150   9.851   4.092   7.504
18303WAT     H155151   9.876   4.173   7.558
18303WAT     H255152   9.820   4.019   7.565
18304WAT      O55153   2.274   9.105   3.462
18304WAT     H155154   2.216   9.054   3.526
18304WAT     H255155   2.252   9.077   3.368
18305WAT      O55156   8.268   4.622   8.950
18305WAT     H155157   8.274   4.720   8.930
18305WAT     H255158   8.340   4.574   8.900
18306WAT      O55159   5.791   5.702   5.206
18306WAT     H155160   5.769   5.627   5.269
18306WAT     H255161   5.873   5.750   5.239
18307WAT      O55162   5.631   2.401   4.161
18307WAT     H155163   5.700   2.469   4.137
18307WAT     H255164   5.639   2.322   4.099
18308WAT      O55165   3.777   8.642   4.849
18308WAT     H155166   3.689   8.654   4.802
18308WAT     H255167   3.779   8.553   4.893
18309WAT      O55168   7.618   8.492   3.338
18309WAT     H155169   7.586   8.398   3.345
18309WAT     H255170   7.587   8.532   3.252
18310WAT      O55171   0.270   5.406   3.054
18310WAT     H155172   0.327   5.484   3.027
18310WAT     H255173   0.225   5.427   3.141
18311WAT      O55174   9.179   5.511   4.711
18311WAT     H155175   9.166   5.423   4.757
18311WAT     H255176   9.253   5.561   4.757
18312WAT      O55177   5.141   2.171   0.082
18312WAT     H155178   5.241   2.170   0.072
18312WAT     H255179   5.100   2.131   0.000
18313WAT      O55180   0.029   5.716   4.607
18313WAT     H155181   0.038   5.806   4.651
18313WAT     H255182  -0.051   5.717   4.546
18314WAT      O55183   0.315   3.038   0.042
18314WAT     H155184   0.237   2.978   0.024
18314WAT     H255185   0.398   2.996   0.004
18315WAT      O55186   9.654   4.503   0.640
18315WAT     H155187   9.725   4.512   0.709
18315WAT     H255188   9.564   4.512   0.684
18316WAT      O55189   8.122   8.807   0.677
18316WAT     H155190   8.125   8.778   0.773
18316WAT     H255191   8.060   8.748   0.626
18317WAT      O55192   5.743   2.046   0.690
18317WAT     H155193   5.705   2.112   0.755
18317WAT     H255194   5.766   1.961   0.738
18318WAT      O55195   5.972   1.955   7.897
18318WAT     H155196   5.926   1.916   7.817
18318WAT     H255197   5.911   2.019   7.943
18319WAT      O55198   2.486   4.162   4.700
18319WAT     H155199   2.506   4.179   4.604
18319WAT     H255200   2.405   4.104   4.708
18320WAT      O55201   9.206   2.817   4.104
18320WAT     H155202   9.131   2.760   4.072
18320WAT     H255203   9.182   2.913   4.094
18321WAT      O55204   7.193   7.359   0.144
18321WAT     H155205   7.266   7.383   0.079
18321WAT     H255206   7.233   7.323   0.228
18322WAT      O55207   6.349   7.878   4.581
18322WAT     H155208   6.391   7.948   4.639
18322WAT     H255209   6.418   7.838   4.521
18323WAT      O55210   1.056   3.165   9.164
18323WAT     H155211   1.125   3.237   9.161
18323WAT     H255212   1.091   3.086   9.213
18324WAT      O55213   4.410   7.360   1.892
18324WAT     H155214   4.476   7.432   1.914
18324WAT     H255215   4.415   7.339   1.794
18325WAT      O55216   0.031   1.822   7.764
18325WAT     H155217  -0.065   1.798   7.776
18325WAT     H255218   0.082   1.742   7.732
18326WAT      O55219   7.571   6.072   7.735
18326WAT     H155220   7.642   6.089   7.804
18326WAT     H255221   7.535   6.159   7.703
18327WAT      O55222   0.112   9.248   7.401
18327WAT     H155223   0.176   9.177   7.430
18327WAT     H255224   0.161   9.335   7.393
18328WAT      O55225   5.412   1.036   4.529
18328WAT     H155226   5.328   1.061   4.482
18328WAT     H255227   5.390   0.980   4.610
18329WAT      O55228   4.412   4.342   3.875
18329WAT     H155229   4.475   4.375   3.805
18329WAT     H255230   4.318   4.358   3.844
18330WAT      O55231   7.429   2.728   2.508
18330WAT     H155232   7.349   2.755   2.561
18330WAT     H255233   7.458   2.803   2.449
18331WAT      O55234   1.792   0.745   8.686
18331WAT     H155235   1.820   0.693   8.606
18331WAT     H255236   1.697   0.775   8.675
18332WAT      O55237   7.171   6.838   2.229
18332WAT     H155238   7.167   6.930   2.190
18332WAT     H255239   7.264   6.801   2.219
18333WAT      O55240   5.476   4.975   8.825
18333WAT     H155241   5.521   4.947   8.740
18333WAT     H255242   5.381   4.997   8.807
18334WAT      O55243   6.349   7.221   5.671
18334WAT     H155244   6.287   7.198   5.746
18334WAT     H255245   6.312   7.187   5.585
18335WAT      O55246   7.393   2.186   7.398
18335WAT     H155247   7.439   2.179   7.486
18335WAT     H255248   7.462   2.192   7.325
18336WAT      O55249   8.175   7.316   5.782
18336WAT     H155250   8.084   7.273   5.787
18336WAT     H255251   8.218   7.294   5.695
18337WAT      O55252   2.484   9.812   2.858
18337WAT     H155253   2.439   9.856   2.936
18337WAT     H255254   2.549   9.744   2.891
18338WAT      O55255   1.689   8.587   3.734
18338WAT     H155256   1.611   8.649   3.746
18338WAT     H255257   1.740   8.614   3.653
18339WAT      O55258   0.958   8.752   1.306
18339WAT     H155259   0.963   8.832   1.367
18339WAT     H255260   0.863   8.740   1.276
18340WAT      O55261   9.282   1.394   8.627
18340WAT     H155262   9.197   1.441   8.652
18340WAT     H255263   9.294   1.314   8.684
18341WAT      O55264   3.193   1.757   5.405
18341WAT     H155265   3.105   1.731   5.446
18341WAT     H255266   3.211   1.698   5.326
18342WAT      O55267   2.931   8.375   3.489
18342WAT     H155268   2.854   8.311   3.479
18342WAT     H255269   3.008   8.343   3.435
18343WAT      O55270   6.669   2.026   0.650
18343WAT     H155271   6.643   2.122   0.636
18343WAT     H255272   6.586   1.972   0.665
18344WAT      O55273   4.855   6.166   8.814
18344WAT     H155274   4.931   6.192   8.875
18344WAT     H255275   4.773   6.150   8.868
18345WAT      O55276   8.178   1.694   2.790
18345WAT     H155277   8.114   1.733   2.857
18345WAT     H255278   8.270   1.728   2.809
18346WAT      O55279   0.749   2.673   9.367
18346WAT     H155280   0.691   2.594   9.386
18346WAT     H255281   0.695   2.744   9.320
18347WAT      O55282   3.737   8.831   5.048
18347WAT     H155283   3.774   8.906   4.993
18347WAT     H255284   3.749   8.745   4.998
18348WAT      O55285   4.400   5.311   8.829
18348WAT     H155286   4.462   5.303   8.907
18348WAT     H255287   4.329   5.241   8.835
18349WAT      O55288   3.561   3.563   8.192
18349WAT     H155289   3.528   3.634   8.254
18349WAT     H255290   3.536   3.587   8.098
18350WAT      O55291   0.361   3.245   0.975
18350WAT     H155292   0.356   3.146   0.972
18350WAT     H255293   0.395   3.274   1.065
18351WAT      O55294   0.627   2.250   8.288
18351WAT     H155295   0.529   2.234   8.278
18351WAT     H255296   0.674   2.162   8.297
18352WAT      O55297   5.433   3.281   3.386
18352WAT     H155298   5.467   3.369   3.421
18352WAT     H255299   5.507   3.234   3.339
18353WAT      O55300   4.000   8.828   9.593
18353WAT     H155301   3.962   8.885   9.520
18353WAT     H255302   3.985   8.732   9.570
18354WAT      O55303   2.928   5.797   5.538
18354WAT     H155304   2.878   5.840   5.463
18354WAT     H255305   3.025   5.795   5.516
18355WAT      O55306   7.629   2.659   6.500
18355WAT     H155307   7.546   2.685   6.551
18355WAT     H255308   7.603   2.626   6.410
18356WAT      O55309   4.424   0.754   1.799
18356WAT     H155310   4.380   0.669   1.770
18356WAT     H255311   4.383   0.831   1.749
18357WAT      O55312   4.211   8.810   3.706
18357WAT     H155313   4.188   8.772   3.617
18357WAT     H255314   4.140   8.875   3.734
18358WAT      O55315   2.509   7.211   4.490
18358WAT     H155316   2.531   7.301   4.455
18358WAT     H255317   2.578   7.145   4.459
18359WAT      O55318   4.006   8.463   8.505
18359WAT     H155319   3.915   8.492   8.534
18359WAT     H255320   4.000   8.417   8.417
18360WAT      O55321   5.346   6.451   2.699
18360WAT     H155322   5.441   6.456   2.727
18360WAT     H255323   5.323   6.358   2.669
18361WAT      O55324   2.673   3.932   9.360
18361WAT     H155325   2.673   3.927   9.260
18361WAT     H255326   2.767   3.927   9.393
18362WAT      O55327   4.470   4.751   9.365
18362WAT     H155328   4.515   4.763   9.454
18362WAT     H255329   4.530   4.698   9.304
18363WAT      O55330   0.516   8.214   4.209
18363WAT     H155331   0.609   8.183   4.190
18363WAT     H255332   0.454   8.136   4.206
18364WAT      O55333   2.648   2.005   0.766
18364WAT     H155334   2.550   2.025   0.758
18364WAT     H255335   2.663   1.906   0.756
18365WAT      O55336   6.883   3.928   4.932
18365WAT     H155337   6.856   3.832   4.941
18365WAT     H255338   6.874   3.974   5.020
18366WAT      O55339   6.742   6.364   7.213
18366WAT     H155340   6.785   6.347   7.302
18366WAT     H255341   6.746   6.280   7.158
18367WAT      O55342   4.226   2.621   0.653
18367WAT     H155343   4.305   2.653   0.599
18367WAT     H255344   4.241   2.641   0.749
18368WAT      O55345   9.217   2.447   3.546
18368WAT     H155346   9.261   2.521   3.494
18368WAT     H255347   9.262   2.361   3.524
18369WAT      O55348   3.004   4.916   5.228
18369WAT     H155349   3.065   4.962   5.163
18369WAT     H255350   2.919   4.968   5.237
18370WAT      O55351   3.624   1.136   7.699
18370WAT     H155352   3.580   1.054   7.662
18370WAT     H255353   3.653   1.118   7.793
18371WAT      O55354   6.584   5.681   8.224
18371WAT     H155355   6.547   5.608   8.281
18371WAT     H255356   6.644   5.642   8.154
18372WAT      O55357   3.169   0.538   8.948
18372WAT     H155358   3.227   0.588   8.885
18372WAT     H255359   3.157   0.591   9.032
18373WAT      O55360   9.852   6.774   6.843
18373WAT     H155361   9.765   6.777   6.792
18373WAT     H255362   9.881   6.867   6.866
18374WAT      O55363   6.735   5.613   8.020
18374WAT     H155364   6.709   5.527   7.975
18374WAT     H255365   6.819   5.648   7.979
18375WAT      O55366   8.787   8.807   9.379
18375WAT     H155367   8.733   8.828   9.298
18375WAT     H255368   8.752   8.723   9.421
18376WAT      O55369   0.957   2.354   0.182
18376WAT     H155370   0.942   2.289   0.256
18376WAT     H255371   0.874   2.407   0.166
18377WAT      O55372   1.471   6.711   5.680
18377WAT     H155373   1.400   6.645   5.704
18377WAT     H255374   1.502   6.757   5.764
18378WAT      O55375   0.097   3.530   3.524
18378WAT     H155376   0.171   3.586   3.487
18378WAT     H255377   0.011   3.556   3.480
18379WAT      O55378   9.052   8.846   2.233
18379WAT     H155379   9.116   8.911   2.274
18379WAT     H255380   9.043   8.766   2.292
18380WAT      O55381   7.249   1.292   2.592
18380WAT     H155382   7.324   1.276   2.656
18380WAT     H255383   7.217   1.386   2.600
18381WAT      O55384   9.483   8.906   7.395
18381WAT     H155385   9.497   8.944   7.304
18381WAT     H255386   9.548   8.831   7.411
18382WAT      O55387   7.170   7.175   7.590
18382WAT     H155388   7.143   7.120   7.511
18382WAT     H255389   7.092   7.229   7.623
18383WAT      O55390   6.256   8.144   3.945
18383WAT     H155391   6.304   8.091   3.875
18383WAT     H255392   6.227   8.232   3.907
18384WAT      O55393   8.306   3.920   3.121
18384WAT     H155394   8.373   3.959   3.185
18384WAT     H255395   8.258   3.844   3.165
18385WAT      O55396   5.836   4.288   5.830
18385WAT     H155397   5.786   4.228   5.768
18385WAT     H255398   5.875   4.234   5.905
18386WAT      O55399   0.375   9.364   6.344
18386WAT     H155400   0.431   9.310   6.408
18386WAT     H255401   0.390   9.461   6.360
18387WAT      O55402   7.699   7.254   2.907
18387WAT     H155403   7.733   7.274   2.999
18387WAT     H255404   7.740   7.169   2.873
18388WAT      O55405   2.777   0.923   2.151
18388WAT     H155406   2.784   0.950   2.247
18388WAT     H255407   2.692   0.872   2.137
18389WAT      O55408   9.272   5.252   9.142
18389WAT     H155409   9.297   5.180   9.206
18389WAT     H255410   9.331   5.249   9.062
18390WAT      O55411   7.776   2.572   1.583
18390WAT     H155412   7.865   2.547   1.545
18390WAT     H255413   7.789   2.613   1.673
18391WAT      O55414   7.954   9.376   6.199
18391WAT     H155415   7.885   9.349   6.131
18391WAT     H255416   8.041   9.390   6.153
18392WAT      O55417   0.488   4.839   9.487
18392WAT     H155418   0.524   4.761   9.537
18392WAT     H255419   0.469   4.915   9.550
18393WAT      O55420   9.562   1.278   7.157
18393WAT     H155421   9.601   1.306   7.069
18393WAT     H255422   9.587   1.344   7.227
18394WAT      O55423   5.738   3.118   1.960
18394WAT     H155424   5.799   3.054   1.914
18394WAT     H255425   5.788   3.164   2.034
18395WAT      O55426   8.120   2.236   4.043
18395WAT     H155427   8.064   2.153   4.049
18395WAT     H255428   8.066   2.310   4.002
18396WAT      O55429   1.096   4.724   4.401
18396WAT     H155430   1.167   4.723   4.472
18396WAT     H255431   1.031   4.650   4.419
18397WAT      O55432   0.175   6.236   3.329
18397WAT     H155433   0.111   6.168   3.363
18397WAT     H255434   0.208   6.209   3.239
18398WAT      O55435   5.346   1.587   3.601
18398WAT     H155436   5.299   1.577   3.689
18398WAT     H255437   5.280   1.580   3.526
18399WAT      O55438   6.718   8.896   8.575
18399WAT     H155439   6.628   8.896   8.530
18399WAT     H255440   6.758   8.987   8.571
18400WAT      O55441   6.918   1.581   0.857
18400WAT     H155442   6.909   1.676   0.888
18400WAT     H255443   6.906   1.520   0.935
18401WAT      O55444   7.352   6.619   1.839
18401WAT     H155445   7.354   6.601   1.937
18401WAT     H255446   7.264   6.588   1.801
18402WAT      O55447   5.466   4.848   9.543
18402WAT     H155448   5.415   4.778   9.492
18402WAT     H255449   5.553   4.866   9.496
18403WAT      O55450   6.867   2.396   7.197
18403WAT     H155451   6.872   2.385   7.296
18403WAT     H255452   6.790   2.343   7.161
18404WAT      O55453   9.399   7.492   0.114
18404WAT     H155454   9.315   7.499   0.060
18404WAT     H255455   9.465   7.560   0.081
18405WAT      O55456   2.202   8.325   0.597
18405WAT     H155457   2.242   8.301   0.509
18405WAT     H255458   2.143   8.405   0.587
18406WAT      O55459   1.803   3.490   6.619
18406WAT     H155460   1.758   3.490   6.529
18406WAT     H255461   1.871   3.417   6.622
18407WAT      O55462   9.881   0.420   5.744
18407WAT     H155463   9.888   0.321   5.746
18407WAT     H255464   9.968   0.460   5.773
18408WAT      O55465   5.497   6.123   4.433
18408WAT     H155466   5.433   6.101   4.507
18408WAT     H255467   5.526   6.218   4.441
18409WAT      O55468   8.484   4.987   7.167
18409WAT     H155469   8.443   5.076   7.187
18409WAT     H255470   8.462   4.961   7.073
18410WAT      O55471   2.093   2.979   6.947
18410WAT     H155472   1.997   2.988   6.920
18410WAT     H255473   2.101   2.996   7.046
18411WAT      O55474   4.377   4.996   1.814
18411WAT     H155475   4.426   4.976   1.899
18411WAT     H255476   4.443   5.017   1.742
18412WAT      O55477   3.044   8.533   4.361
18412WAT     H155478   3.059   8.582   4.275
18412WAT     H255479   2.950   8.499   4.364
18413WAT      O55480   3.977   1.628   3.272
18413WAT     H155481   4.075   1.623   3.291
18413WAT     H255482   3.962   1.617   3.174
18414WAT      O55483   5.886   0.164   6.287
18414WAT     H155484   5.830   0.173   6.205
18414WAT     H255485   5.954   0.092   6.273
18415WAT      O55486   2.914   2.079   7.194
18415WAT     H155487   2.983   2.019   7.153
18415WAT     H255488   2.839   2.023   7.231
18416WAT      O55489   0.028   2.472   2.800
18416WAT     H155490   0.057   2.403   2.734
18416WAT     H255491  -0.038   2.533   2.756
18417WAT      O55492   6.710   1.444   7.745
18417WAT     H155493   6.771   1.468   7.820
18417WAT     H255494   6.669   1.528   7.708
18418WAT      O55495   5.135   8.878   9.726
18418WAT     H155496   5.132   8.789   9.681
18418WAT     H255497   5.065   8.881   9.797
18419WAT      O55498   3.509   6.769   0.134
18419WAT     H155499   3.459   6.855   0.120
18419WAT     H255500   3.525   6.756   0.231
18420WAT      O55501   3.783   8.337   3.197
18420WAT     H155502   3.800   8.432   3.172
18420WAT     H255503   3.820   8.277   3.126
18421WAT      O55504   5.303   8.565   6.227
18421WAT     H155505   5.399   8.586   6.246
18421WAT     H255506   5.251   8.650   6.222
18422WAT      O55507   2.678   7.487   2.265
18422WAT     H155508   2.670   7.395   2.229
18422WAT     H255509   2.668   7.553   2.190
18423WAT      O55510   3.196   0.745   4.541
18423WAT     H155511   3.244   0.657   4.539
18423WAT     H255512   3.165   0.764   4.634
18424WAT      O55513   9.010   6.313   1.275
18424WAT     H155514   8.936   6.321   1.209
18424WAT     H255515   9.062   6.230   1.256
18425WAT      O55516   2.415   2.015   2.681
18425WAT     H155517   2.435   2.113   2.688
18425WAT     H255518   2.446   1.969   2.764
18426WAT      O55519   2.634   6.605   2.641
18426WAT     H155520   2.550   6.624   2.690
18426WAT     H255521   2.657   6.682   2.582
18427WAT      O55522   8.603   6.721   1.277
18427WAT     H155523   8.609   6.739   1.179
18427WAT     H255524   8.548   6.792   1.320
18428WAT      O55525   0.256   1.357   3.712
18428WAT     H155526   0.319   1.428   3.681
18428WAT     H255527   0.184   1.397   3.768
18429WAT      O55528   8.378   8.808   0.244
18429WAT     H155529   8.352   8.784   0.338
18429WAT     H255530   8.473   8.781   0.228
18430WAT      O55531   6.881   9.820   3.307
18430WAT     H155532   6.863   9.728   3.342
18430WAT     H255533   6.909   9.880   3.382
18431WAT      O55534   0.206   1.308   8.722
18431WAT     H155535   0.134   1.240   8.734
18431WAT     H255536   0.269   1.304   8.800
18432WAT      O55537   3.880   6.632   4.251
18432WAT     H155538   3.959   6.575   4.272
18432WAT     H255539   3.800   6.596   4.299
18433WAT      O55540   3.093   8.572   5.693
18433WAT     H155541   3.031   8.505   5.651
18433WAT     H255542   3.120   8.540   5.783
18434WAT      O55543   7.024   6.756   4.563
18434WAT     H155544   6.988   6.846   4.537
18434WAT     H255545   7.064   6.760   4.654
18435WAT      O55546   5.044   2.065   2.408
18435WAT     H155547   5.039   1.965   2.411
18435WAT     H255548   5.139   2.094   2.415
18436WAT      O55549   5.422   8.695   7.458
18436WAT     H155550   5.496   8.641   7.498
18436WAT     H255551   5.402   8.659   7.367
18437WAT      O55552   1.590   9.350   9.012
18437WAT     H155553   1.661   9.407   8.970
18437WAT     H255554   1.569   9.384   9.104
18438WAT      O55555   2.263   6.419   4.817
18438WAT     H155556   2.303   6.491   4.761
18438WAT     H255557   2.331   6.387   4.883
18439WAT      O55558   0.255   6.752   5.622
18439WAT     H155559   0.192   6.680   5.652
18439WAT     H255560   0.277   6.811   5.700
18440WAT      O55561   1.419   6.104   4.451
18440WAT     H155562   1.350   6.041   4.486
18440WAT     H255563   1.381   6.196   4.447
18441WAT      O55564   9.801   2.506   9.213
18441WAT     H155565   9.776   2.433   9.277
18441WAT     H255566   9.861   2.572   9.259
18442WAT      O55567   0.956   4.356   8.812
18442WAT     H155568   0.865   4.336   8.849
18442WAT     H255569   1.013   4.274   8.818
18443WAT      O55570   5.414   5.310   1.783
18443WAT     H155571   5.401   5.243   1.710
18443WAT     H255572   5.326   5.347   1.811
18444WAT      O55573   7.951   7.048   0.707
18444WAT     H155574   7.973   6.968   0.762
18444WAT     H255575   7.883   7.024   0.638
18445WAT      O55576   8.270   0.528   8.628
18445WAT     H155577   8.216   0.451   8.597
18445WAT     H255578   8.232   0.613   8.593
18446WAT      O55579   0.271   6.377   2.260
18446WAT     H155580   0.264   6.461   2.206
18446WAT     H255581   0.302   6.302   2.201
18447WAT      O55582   2.202   5.515   8.742
18447WAT     H155583   2.150   5.478   8.818
18447WAT     H255584   2.300   5.503   8.760
18448WAT      O55585   2.662   3.036   2.477
18448WAT     H155586   2.635   3.011   2.570
18448WAT     H255587   2.761   3.052   2.474
18449WAT      O55588   8.251   4.281   8.679
18449WAT     H155589   8.174   4.238   8.632
18449WAT     H255590   8.325   4.297   8.614
18450WAT      O55591   6.120   1.765   4.621
18450WAT     H155592   6.141   1.812   4.535
18450WAT     H255593   6.203   1.758   4.677
18451WAT      O55594   6.440   4.847   5.685
18451WAT     H155595   6.513   4.915   5.673
18451WAT     H255596   6.472   4.758   5.651
18452WAT      O55597   6.151   7.842   9.763
18452WAT     H155598   6.068   7.793   9.738
18452WAT     H255599   6.130   7.910   9.833
18453WAT      O55600   9.101   2.683   9.091
18453WAT     H155601   9.009   2.672   9.054
18453WAT     H255602   9.123   2.607   9.151
18454WAT      O55603   7.605   1.523   7.935
18454WAT     H155604   7.654   1.451   7.885
18454WAT     H255605   7.512   1.531   7.899
18455WAT      O55606   9.449   4.169   5.718
18455WAT     H155607   9.505   4.188   5.638
18455WAT     H255608   9.403   4.253   5.748
18456WAT      O55609   4.811   6.534   5.368
18456WAT     H155610   4.735   6.582   5.324
18456WAT     H255611   4.851   6.593   5.438
18457WAT      O55612   0.180   5.287   1.471
18457WAT     H155613   0.223   5.356   1.413
18457WAT     H255614   0.111   5.330   1.529
18458WAT      O55615   5.538   4.351   2.154
18458WAT     H155616   5.596   4.306   2.086
18458WAT     H255617   5.486   4.424   2.111
18459WAT      O55618   4.592   4.216   7.849
18459WAT     H155619   4.565   4.121   7.835
18459WAT     H255620   4.585   4.239   7.946
18460WAT      O55621   9.850   6.100   9.850
18460WAT     H155622   9.798   6.035   9.905
18460WAT     H255623   9.922   6.141   9.906
18461WAT      O55624   0.872   1.149   2.281
18461WAT     H155625   0.860   1.241   2.245
18461WAT     H255626   0.791   1.122   2.333
18462WAT      O55627   7.245   7.092   1.563
18462WAT     H155628   7.270   6.995   1.555
18462WAT     H255629   7.316   7.148   1.521
18463WAT      O55630   8.573   4.089   1.276
18463WAT     H155631   8.633   4.160   1.240
18463WAT     H255632   8.617   4.000   1.266
18464WAT      O55633   0.940   7.282   8.632
18464WAT     H155634   0.873   7.258   8.703
18464WAT     H255635   0.924   7.226   8.551
18465WAT      O55636   0.515   8.285   0.480
18465WAT     H155637   0.440   8.343   0.514
18465WAT     H255638   0.527   8.302   0.382
18466WAT      O55639   7.601   0.273   5.877
18466WAT     H155640   7.620   0.316   5.965
18466WAT     H255641   7.505   0.288   5.853
18467WAT      O55642   5.975   7.697   1.334
18467WAT     H155643   5.938   7.622   1.279
18467WAT     H255644   6.057   7.733   1.289
18468WAT      O55645   4.578   2.116   7.541
18468WAT     H155646   4.668   2.072   7.533
18468WAT     H255647   4.560   2.138   7.637
18469WAT      O55648   6.184   0.433   2.027
18469WAT     H155649   6.232   0.506   2.077
18469WAT     H255650   6.251   0.369   1.990
18470WAT      O55651   2.586   3.173   4.237
18470WAT     H155652   2.523   3.251   4.237
18470WAT     H255653   2.677   3.203   4.207
18471WAT      O55654   7.691   8.689   8.074
18471WAT     H155655   7.768   8.633   8.042
18471WAT     H255656   7.724   8.761   8.134
18472WAT      O55657   2.255   6.568   9.873
18472WAT     H155658   2.314   6.629   9.927
18472WAT     H255659   2.289   6.564   9.779
18473WAT      O55660   8.948   9.446   9.642
18473WAT     H155661   8.862   9.434   9.592
18473WAT     H255662   9.024   9.449   9.578
18474WAT      O55663   0.868   4.575   2.158
18474WAT     H155664   0.808   4.518   2.213
18474WAT     H255665   0.877   4.536   2.066
18475WAT      O55666   4.062   7.316   6.296
18475WAT     H155667   4.008   7.337   6.215
18475WAT     H255668   4.056   7.218   6.315
18476WAT      O55669   4.707   7.586   1.427
18476WAT     H155670   4.738   7.497   1.460
18476WAT     H255671   4.760   7.658   1.471
18477WAT      O55672   8.133   4.971   1.928
18477WAT     H155673   8.081   5.031   1.867
18477WAT     H255674   8.070   4.925   1.991
18478WAT      O55675   5.781   9.071   5.333
18478WAT     H155676   5.794   9.070   5.432
18478WAT     H255677   5.753   8.980   5.301
18479WAT      O55678   2.689   9.561   1.455
18479WAT     H155679   2.689   9.628   1.381
18479WAT     H255680   2.597   9.556   1.495
18480WAT      O55681   6.795   3.666   4.690
18480WAT     H155682   6.840   3.707   4.611
18480WAT     H255683   6.709   3.714   4.708
18481WAT      O55684   2.176   0.681   9.357
18481WAT     H155685   2.133   0.729   9.280
18481WAT     H255686   2.122   0.599   9.379
18482WAT      O55687   9.148   8.109   1.984
18482WAT     H155688   9.148   8.153   1.895
18482WAT     H255689   9.144   8.010   1.973
18483WAT      O55690   5.936   8.975   1.341
18483WAT     H155691   6.030   8.948   1.323
18483WAT     H255692   5.874   8.921   1.284
18484WAT      O55693   5.380   8.622   7.206
18484WAT     H155694   5.385   8.522   7.209
18484WAT     H255695   5.294   8.651   7.165
18485WAT      O55696   3.919   0.600   6.580
18485WAT     H155697   3.907   0.504   6.557
18485WAT     H255698   3.864   0.656   6.517
18486WAT      O55699   3.037   8.055   7.161
18486WAT     H155700   2.998   7.983   7.104
18486WAT     H255701   2.990   8.057   7.249
18487WAT      O55702   1.076   4.416   0.150
18487WAT     H155703   1.054   4.469   0.232
18487WAT     H255704   1.054   4.471   0.069
18488WAT      O55705   5.287   3.795   4.321
18488WAT     H155706   5.349   3.841   4.257
18488WAT     H255707   5.295   3.696   4.309
18489WAT      O55708   2.585   6.610   5.693
18489WAT     H155709   2.628   6.603   5.603
18489WAT     H255710   2.561   6.705   5.711
18490WAT      O55711   9.652   2.390   9.652
18490WAT     H155712   9.555   2.401   9.631
18490WAT     H255713   9.703   2.380   9.566
18491WAT      O55714   6.897   0.475   9.506
18491WAT     H155715   6.919   0.510   9.597
18491WAT     H255716   6.813   0.420   9.510
18492WAT      O55717   7.609   5.347   8.279
18492WAT     H155718   7.562   5.274   8.229
18492WAT     H255719   7.543   5.399   8.333
18493WAT      O55720   7.336   2.570   7.659
18493WAT     H155721   7.322   2.527   7.748
18493WAT     H255722   7.388   2.654   7.670
18494WAT      O55723   6.860   1.438   7.333
18494WAT     H155724   6.818   1.502   7.398
18494WAT     H255725   6.853   1.475   7.241
18495WAT      O55726   7.143   9.085   9.025
18495WAT     H155727   7.228   9.099   9.076
18495WAT     H255728   7.131   9.158   8.958
18496WAT      O55729   0.469   2.695   1.817
18496WAT     H155730   0.546   2.646   1.855
18496WAT     H255731   0.383   2.651   1.844
18497WAT      O55732   2.446   0.228   1.803
18497WAT     H155733   2.431   0.211   1.900
18497WAT     H255734   2.471   0.142   1.758
18498WAT      O55735   3.824   4.829   6.116
18498WAT     H155736   3.876   4.743   6.120
18498WAT     H255737   3.857   4.891   6.187
18499WAT      O55738   1.887   0.991   0.857
18499WAT     H155739   1.849   1.040   0.935
18499WAT     H255740   1.821   0.923   0.826
18500WAT      O55741   0.944   1.361   3.892
18500WAT     H155742   0.991   1.329   3.810
18500WAT     H255743   0.962   1.459   3.904
18501WAT      O55744   5.180   0.302   2.852
18501WAT     H155745   5.202   0.221   2.798
18501WAT     H255746   5.254   0.368   2.846
18502WAT      O55747   7.794   4.063   3.647
18502WAT     H155748   7.811   4.153   3.687
18502WAT     H255749   7.702   4.061   3.607
18503WAT      O55750   1.662   8.989   4.977
18503WAT     H155751   1.602   9.016   5.052
18503WAT     H255752   1.607   8.965   4.897
18504WAT      O55753   5.168   2.100   5.155
18504WAT     H155754   5.079   2.123   5.118
18504WAT     H255755   5.184   2.151   5.240
18505WAT      O55756   8.481   3.363   4.226
18505WAT     H155757   8.542   3.440   4.211
18505WAT     H255758   8.504   3.319   4.313
18506WAT      O55759   6.183   2.404   8.419
18506WAT     H155760   6.179   2.480   8.485
18506WAT     H255761   6.099   2.402   8.366
18507WAT      O55762   8.786   1.817   1.550
18507WAT     H155763   8.840   1.769   1.619
18507WAT     H255764   8.841   1.892   1.511
18508WAT      O55765   1.707   7.676   1.977
18508WAT     H155766   1.804   7.662   1.997
18508WAT     H255767   1.657   7.688   2.062
18509WAT      O55768   2.022   0.298   8.404
18509WAT     H155769   2.101   0.335   8.357
18509WAT     H255770   1.982   0.368   8.463
18510WAT      O55771   3.104   5.912   2.344
18510WAT     H155772   3.140   5.838   2.288
18510WAT     H255773   3.011   5.889   2.375
18511WAT      O55774   2.290   3.692   9.835
18511WAT     H155775   2.266   3.682   9.738
18511WAT     H255776   2.388   3.704   9.844
18512WAT      O55777   5.348   0.004   0.518
18512WAT     H155778   5.437  -0.014   0.561
18512WAT     H255779   5.356   0.084   0.459
18513WAT      O55780   7.681   2.911   7.808
18513WAT     H155781   7.728   2.975   7.747
18513WAT     H255782   7.727   2.822   7.806
18514WAT      O55783   5.948   8.511   3.495
18514WAT     H155784   5.857   8.494   3.534
18514WAT     H255785   5.978   8.431   3.443
18515WAT      O55786   2.499   2.686   6.945
18515WAT     H155787   2.518   2.752   7.017
18515WAT     H255788   2.540   2.717   6.859
18516WAT      O55789   9.574   2.906   1.129
18516WAT     H155790   9.523   2.905   1.043
18516WAT     H255791   9.660   2.957   1.116
18517WAT      O55792   3.905   7.365   7.021
18517WAT     H155793   3.961   7.287   6.994
18517WAT     H255794   3.935   7.397   7.111
18518WAT      O55795   2.389   6.700   0.171
18518WAT     H155796   2.443   6.664   0.247
18518WAT     H255797   2.315   6.758   0.207
18519WAT      O55798   6.309   7.519   4.224
18519WAT     H155799   6.368   7.597   4.200
18519WAT     H255800   6.278   7.528   4.318
18520WAT      O55801   2.531   0.779   9.108
18520WAT     H155802   2.474   0.725   9.046
18520WAT     H255803   2.622   0.737   9.114
18521WAT      O55804   5.512   0.840   8.578
18521WAT     H155805   5.552   0.930   8.595
18521WAT     H255806   5.567   0.769   8.623
18522WAT      O55807   2.473   5.807   1.759
18522WAT     H155808   2.418   5.800   1.843
18522WAT     H255809   2.430   5.753   1.687
18523WAT      O55810   1.693   8.476   4.290
18523WAT     H155811   1.715   8.379   4.296
18523WAT     H255812   1.735   8.516   4.208
18524WAT      O55813   9.032   4.271   5.767
18524WAT     H155814   9.037   4.368   5.742
18524WAT     H255815   9.065   4.215   5.691
18525WAT      O55816   7.910   1.325   2.866
18525WAT     H155817   7.895   1.228   2.847
18525WAT     H255818   7.822   1.372   2.870
18526WAT      O55819   7.989   2.827   0.480
18526WAT     H155820   7.971   2.780   0.393
18526WAT     H255821   8.024   2.919   0.462
18527WAT      O55822   5.700   2.167   7.573
18527WAT     H155823   5.736   2.100   7.638
18527WAT     H255824   5.768   2.182   7.501
18528WAT      O55825   2.158   6.116   9.706
18528WAT     H155826   2.078   6.098   9.764
18528WAT     H255827   2.128   6.150   9.617
18529WAT      O55828   5.518   9.175   0.715
18529WAT     H155829   5.504   9.215   0.625
18529WAT     H255830   5.590   9.224   0.764
18530WAT      O55831   3.616   6.278   1.099
18530WAT     H155832   3.667   6.268   1.184
18530WAT     H255833   3.649   6.358   1.049
18531WAT      O55834   0.251   9.313   0.321
18531WAT     H155835   0.157   9.327   0.291
18531WAT     H255836   0.254   9.309   0.421
18532WAT      O55837   4.247   0.251   2.938
18532WAT     H155838   4.260   0.217   2.845
18532WAT     H255839   4.334   0.249   2.987
18533WAT      O55840   4.791   5.717   7.435
18533WAT     H155841   4.873   5.721   7.492
18533WAT     H255842   4.791   5.794   7.371
18534WAT      O55843   6.343   8.576   9.566
18534WAT     H155844   6.427   8.542   9.608
18534WAT     H255845   6.361   8.663   9.521
18535WAT      O55846   0.078   8.536   6.665
18535WAT     H155847  -0.002   8.546   6.606
18535WAT     H255848   0.087   8.441   6.694
18536WAT      O55849   8.057   8.530   2.807
18536WAT     H155850   8.025   8.454   2.749
18536WAT     H255851   8.118   8.494   2.877
18537WAT      O55852   3.781   6.326   7.982
18537WAT     H155853   3.698   6.350   8.033
18537WAT     H255854   3.859   6.376   8.020
18538WAT      O55855   5.666   6.875   4.641
18538WAT     H155856   5.585   6.838   4.596
18538WAT     H255857   5.695   6.958   4.594
18539WAT      O55858   9.243   4.089   1.129
18539WAT     H155859   9.315   4.037   1.175
18539WAT     H255860   9.193   4.144   1.195
18540WAT      O55861   3.912   2.006   3.697
18540WAT     H155862   3.880   1.919   3.735
18540WAT     H255863   4.009   1.999   3.676
18541WAT      O55864   2.508   3.309   2.449
18541WAT     H155865   2.567   3.274   2.522
18541WAT     H255866   2.549   3.391   2.409
18542WAT      O55867   6.516   8.015   4.741
18542WAT     H155868   6.510   8.086   4.811
18542WAT     H255869   6.563   8.052   4.661
18543WAT      O55870   4.342   9.395   7.935
18543WAT     H155871   4.292   9.452   7.870
18543WAT     H255872   4.407   9.451   7.985
18544WAT      O55873   3.640   5.079   3.116
18544WAT     H155874   3.596   5.144   3.053
18544WAT     H255875   3.570   5.021   3.158
18545WAT      O55876   6.551   1.797   6.805
18545WAT     H155877   6.525   1.822   6.899
18545WAT     H255878   6.468   1.786   6.750
18546WAT      O55879   8.616   9.768   1.008
18546WAT     H155880   8.550   9.702   0.973
18546WAT     H255881   8.569   9.850   1.041
18547WAT      O55882   0.119   6.788   8.519
18547WAT     H155883   0.176   6.799   8.437
18547WAT     H255884   0.155   6.846   8.592
18548WAT      O55885   3.072   7.528   9.762
18548WAT     H155886   3.000   7.518   9.693
18548WAT     H255887   3.030   7.545   9.851
18549WAT      O55888   8.770   2.778   2.915
18549WAT     H155889   8.858   2.752   2.956
18549WAT     H255890   8.766   2.743   2.822
18550WAT      O55891   5.546   2.190   3.163
18550WAT     H155892   5.564   2.131   3.084
18550WAT     H255893   5.564   2.139   3.247
18551WAT      O55894   2.343   4.282   6.477
18551WAT     H155895   2.395   4.310   6.396
18551WAT     H255896   2.292   4.198   6.457
18552WAT      O55897   1.236   0.259   5.625
18552WAT     H155898   1.174   0.299   5.693
18552WAT     H255899   1.310   0.211   5.671
18553WAT      O55900   6.589   2.878   8.183
18553WAT     H155901   6.659   2.927   8.130
18553WAT     H255902   6.543   2.942   8.244
18554WAT      O55903   5.270   6.961   3.132
18554WAT     H155904   5.239   7.051   3.101
18554WAT     H255905   5.328   6.920   3.061
18555WAT      O55906   1.456   4.551   7.566
18555WAT     H155907   1.480   4.479   7.631
18555WAT     H255908   1.357   4.562   7.564
18556WAT      O55909   7.486   1.985   7.992
18556WAT     H155910   7.528   1.929   7.920
18556WAT     H255911   7.399   2.022   7.959
18557WAT      O55912   3.972   1.516   6.748
18557WAT     H155913   3.923   1.602   6.760
18557WAT     H255914   3.910   1.440   6.767
18558WAT      O55915   1.526   2.462   4.013
18558WAT     H155916   1.525   2.523   3.934
18558WAT     H255917   1.432   2.450   4.047
18559WAT      O55918   5.778   1.011   7.548
18559WAT     H155919   5.868   1.021   7.506
18559WAT     H255920   5.757   1.093   7.601
18560WAT      O55921   9.000   6.694   2.041
18560WAT     H155922   8.918   6.724   1.991
18560WAT     H255923   9.010   6.595   2.032
18561WAT      O55924   5.726   8.416   0.367
18561WAT     H155925   5.667   8.367   0.302
18561WAT     H255926   5.670   8.454   0.440
18562WAT      O55927   9.777   1.828   6.616
18562WAT     H155928   9.733   1.916   6.601
18562WAT     H255929   9.810   1.792   6.528
18563WAT      O55930   2.492   8.561   8.416
18563WAT     H155931   2.507   8.633   8.484
18563WAT     H255932   2.398   8.528   8.423
18564WAT      O55933   0.933   3.217   3.386
18564WAT     H155934   0.969   3.199   3.478
18564WAT     H255935   1.009   3.221   3.321
18565WAT      O55936   4.287   1.814   0.335
18565WAT     H155937   4.228   1.735   0.349
18565WAT     H255938   4.382   1.790   0.356
18566WAT      O55939   0.904   1.175   4.851
18566WAT     H155940   0.917   1.083   4.814
18566WAT     H255941   0.874   1.168   4.946
18567WAT      O55942   7.623   2.734   6.920
18567WAT     H155943   7.617   2.645   6.874
18567WAT     H255944   7.687   2.793   6.871
18568WAT      O55945   8.705   5.402   6.340
18568WAT     H155946   8.799   5.430   6.317
18568WAT     H255947   8.667   5.351   6.263
18569WAT      O55948   7.010   2.609   3.417
18569WAT     H155949   7.025   2.707   3.401
18569WAT     H255950   7.010   2.590   3.515
18570WAT      O55951   5.179   0.163   4.207
18570WAT     H155952   5.103   0.116   4.163
18570WAT     H255953   5.149   0.253   4.240
18571WAT      O55954   3.934   8.972   5.693
18571WAT     H155955   3.922   8.968   5.593
18571WAT     H255956   3.953   8.881   5.728
18572WAT      O55957   2.736   5.064   6.316
18572WAT     H155958   2.828   5.060   6.277
18572WAT     H255959   2.742   5.063   6.416
18573WAT      O55960   4.243   0.596   6.914
18573WAT     H155961   4.272   0.622   7.006
18573WAT     H255962   4.302   0.523   6.880
18574WAT      O55963   3.881   7.807   3.566
18574WAT     H155964   3.827   7.890   3.566
18574WAT     H255965   3.897   7.777   3.660
18575WAT      O55966   9.182   3.784   0.456
18575WAT     H155967   9.171   3.812   0.552
18575WAT     H255968   9.264   3.727   0.448
18576WAT      O55969   0.198   8.897   9.258
18576WAT     H155970   0.258   8.921   9.182
18576WAT     H255971   0.252   8.887   9.342
18577WAT      O55972   5.633   3.963   5.039
18577WAT     H155973   5.601   4.029   5.108
18577WAT     H255974   5.554   3.926   4.990
18578WAT      O55975   5.642   3.034   9.538
18578WAT     H155976   5.638   3.075   9.629
18578WAT     H255977   5.735   3.042   9.502
18579WAT      O55978   7.561   8.624   6.068
18579WAT     H155979   7.497   8.591   5.999
18579WAT     H255980   7.654   8.622   6.032
18580WAT      O55981   2.565   6.292   2.002
18580WAT     H155982   2.633   6.220   1.994
18580WAT     H255983   2.577   6.359   1.928
18581WAT      O55984   9.156   6.609   3.437
18581WAT     H155985   9.212   6.621   3.355
18581WAT     H255986   9.111   6.520   3.433
18582WAT      O55987   7.017   7.846   2.549
18582WAT     H155988   7.114   7.826   2.535
18582WAT     H255989   6.983   7.798   2.630
18583WAT      O55990   8.501   0.286   0.798
18583WAT     H155991   8.434   0.288   0.725
18583WAT     H255992   8.558   0.204   0.788
18584WAT      O55993   3.252   9.630   2.631
18584WAT     H155994   3.328   9.568   2.615
18584WAT     H255995   3.281   9.724   2.612
18585WAT      O55996   1.919   6.622   3.487
18585WAT     H155997   1.844   6.556   3.488
18585WAT     H255998   1.894   6.700   3.545
18586WAT      O55999   9.555   6.720   9.142
18586WAT     H156000   9.557   6.742   9.045
18586WAT     H256001   9.465   6.683   9.166
18587WAT      O56002   7.957   9.502   0.234
18587WAT     H156003   7.944   9.417   0.182
18587WAT     H256004   7.869   9.532   0.271
18588WAT      O56005   7.545   3.592   3.108
18588WAT     H156006   7.591   3.544   3.183
18588WAT     H256007   7.545   3.690   3.126
18589WAT      O56008   4.215   9.233   5.474
18589WAT     H156009   4.200   9.331   5.459
18589WAT     H256010   4.299   9.221   5.528
18590WAT      O56011   1.902   4.719   3.434
18590WAT     H156012   1.925   4.805   3.389
18590WAT     H256013   1.971   4.698   3.503
18591WAT      O56014   0.669   2.564   1.920
18591WAT     H156015   0.702   2.494   1.856
18591WAT     H256016   0.747   2.601   1.972
18592WAT      O56017   4.950   5.590   8.888
18592WAT     H156018   5.042   5.592   8.927
18592WAT     H256019   4.904   5.677   8.906
18593WAT      O56020   6.912   8.142   4.550
18593WAT     H156021   6.927   8.054   4.595
18593WAT     H256022   6.952   8.140   4.459
18594WAT      O56023   0.170   8.321   4.254
18594WAT     H156024   0.215   8.316   4.344
18594WAT     H256025   0.237   8.301   4.182
18595WAT      O56026   5.555   4.094   4.578
18595WAT     H156027   5.525   4.000   4.591
18595WAT     H256028   5.598   4.103   4.488
18596WAT      O56029   0.246   0.269   9.539
18596WAT     H156030   0.300   0.335   9.592
18596WAT     H256031   0.306   0.221   9.475
18597WAT      O56032   4.060   6.270   3.672
18597WAT     H156033   3.993   6.265   3.597
18597WAT     H256034   4.075   6.179   3.709
18598WAT      O56035   0.712   3.927   9.715
18598WAT     H156036   0.647   3.896   9.645
18598WAT     H256037   0.802   3.889   9.694
18599WAT      O56038   4.877   7.766   0.509
18599WAT     H156039   4.838   7.787   0.420
18599WAT     H256040   4.811   7.712   0.562
18600WAT      O56041   4.817   9.159   5.563
18600WAT     H156042   4.785   9.254   5.559
18600WAT     H256043   4.780   9.115   5.646
18601WAT      O56044   3.831   0.908   3.804
18601WAT     H156045   3.783   0.821   3.818
18601WAT     H256046   3.913   0.911   3.861
18602WAT      O56047   2.973   7.909   8.149
18602WAT     H156048   2.925   7.848   8.212
18602WAT     H256049   2.955   8.004   8.174
18603WAT      O56050   9.661   5.283   2.929
18603WAT     H156051   9.759   5.291   2.910
18603WAT     H256052   9.622   5.210   2.873
18604WAT      O56053   4.123   3.757   4.012
18604WAT     H156054   4.153   3.760   3.916
18604WAT     H256055   4.193   3.711   4.067
18605WAT      O56056   1.780   9.005   0.894
18605WAT     H156057   1.831   9.079   0.936
18605WAT     H256058   1.770   9.022   0.796
18606WAT      O56059   1.484   0.811   1.424
18606WAT     H156060   1.542   0.775   1.351
18606WAT     H256061   1.499   0.909   1.433
18607WAT      O56062   2.200   4.612   3.000
18607WAT     H156063   2.122   4.651   2.951
18607WAT     H256064   2.173   4.592   3.094
18608WAT      O56065   8.030   8.534   4.135
18608WAT     H156066   7.977   8.586   4.068
18608WAT     H256067   8.096   8.477   4.087
18609WAT      O56068   2.068   4.470   6.940
18609WAT     H156069   2.057   4.416   6.856
18609WAT     H256070   2.027   4.421   7.016
18610WAT      O56071   8.261   0.459   5.080
18610WAT     H156072   8.252   0.449   4.981
18610WAT     H256073   8.187   0.518   5.114
18611WAT      O56074   8.020   6.470   3.157
18611WAT     H156075   7.965   6.388   3.141
18611WAT     H256076   8.033   6.483   3.255
18612WAT      O56077   3.256   1.596   7.234
18612WAT     H156078   3.208   1.657   7.298
18612WAT     H256079   3.291   1.517   7.284
18613WAT      O56080   2.565   1.606   0.296
18613WAT     H156081   2.539   1.511   0.281
18613WAT     H256082   2.539   1.634   0.389
18614WAT      O56083   7.907   0.494   3.722
18614WAT     H156084   7.927   0.396   3.716
18614WAT     H256085   7.808   0.507   3.730
18615WAT      O56086   8.623   5.769   8.565
18615WAT     H156087   8.664   5.692   8.616
18615WAT     H256088   8.528   5.748   8.543
18616WAT      O56089   5.303   4.085   8.353
18616WAT     H156090   5.362   4.076   8.434
18616WAT     H256091   5.277   4.181   8.342
18617WAT      O56092   6.810   9.005   6.253
18617WAT     H156093   6.735   9.070   6.241
18617WAT     H256094   6.793   8.923   6.198
18618WAT      O56095   4.517   2.033   5.802
18618WAT     H156096   4.570   2.105   5.757
18618WAT     H256097   4.580   1.964   5.838
18619WAT      O56098   5.405   6.308   4.794
18619WAT     H156099   5.488   6.256   4.811
18619WAT     H256100   5.379   6.358   4.876
18620WAT      O56101   4.950   7.114   1.357
18620WAT     H156102   4.966   7.020   1.329
18620WAT     H256103   4.893   7.116   1.439
18621WAT      O56104   8.541   7.958   4.273
18621WAT     H156105   8.631   7.982   4.238
18621WAT     H256106   8.471   7.986   4.208
18622WAT      O56107   0.386   0.014   2.478
18622WAT     H156108   0.436  -0.066   2.444
18622WAT     H256109   0.308  -0.017   2.534
18623WAT      O56110   5.724   8.827   1.150
18623WAT     H156111   5.660   8.808   1.075
18623WAT     H256112   5.708   8.764   1.225
18624WAT      O56113   7.647   8.835   0.042
18624WAT     H156114   7.700   8.760   0.081
18624WAT     H256115   7.571   8.858   0.103
18625WAT      O56116   5.957   1.748   1.841
18625WAT     H156117   6.031   1.684   1.859
18625WAT     H256118   5.989   1.842   1.855
18626WAT      O56119   4.787   1.574   3.865
18626WAT     H156120   4.697   1.534   3.880
18626WAT     H256121   4.801   1.591   3.768
18627WAT      O56122   5.258   9.669   7.927
18627WAT     H156123   5.321   9.616   7.871
18627WAT     H256124   5.304   9.750   7.963
18628WAT      O56125   2.208   5.985   2.833
18628WAT     H156126   2.227   5.900   2.883
18628WAT     H256127   2.126   6.028   2.872
18629WAT      O56128   4.468   3.933   9.406
18629WAT     H156129   4.419   3.880   9.335
18629WAT     H256130   4.433   4.026   9.408
18630WAT      O56131   1.867   7.046   7.358
18630WAT     H156132   1.900   7.085   7.444
18630WAT     H256133   1.767   7.048   7.357
18631WAT      O56134   6.542   8.747   5.349
18631WAT     H156135   6.605   8.821   5.372
18631WAT     H256136   6.563   8.712   5.258
18632WAT      O56137   2.073   8.075   7.323
18632WAT     H156138   2.156   8.055   7.271
18632WAT     H256139   2.068   8.012   7.401
18633WAT      O56140   0.957   3.033   7.798
18633WAT     H156141   1.021   2.957   7.786
18633WAT     H256142   0.879   3.002   7.852
18634WAT      O56143   1.520   8.696   8.595
18634WAT     H156144   1.450   8.669   8.661
18634WAT     H256145   1.595   8.741   8.643
18635WAT      O56146   7.467   0.601   2.207
18635WAT     H156147   7.488   0.666   2.134
18635WAT     H256148   7.497   0.510   2.179
18636WAT      O56149   5.936   2.725   8.494
18636WAT     H156150   5.857   2.667   8.516
18636WAT     H256151   5.932   2.752   8.398
18637WAT      O56152   2.333   8.250   2.655
18637WAT     H156153   2.360   8.174   2.596
18637WAT     H256154   2.410   8.276   2.714
18638WAT      O56155   7.248   2.430   4.216
18638WAT     H156156   7.302   2.352   4.247
18638WAT     H256157   7.179   2.453   4.285
18639WAT      O56158   2.231   1.667   1.987
18639WAT     H156159   2.200   1.586   1.937
18639WAT     H256160   2.293   1.720   1.930
18640WAT      O56161   0.753   1.259   2.851
18640WAT     H156162   0.811   1.223   2.924
18640WAT     H256163   0.805   1.263   2.766
18641WAT      O56164   4.513   8.411   0.515
18641WAT     H156165   4.596   8.396   0.462
18641WAT     H256166   4.475   8.323   0.544
18642WAT      O56167   2.591   3.006   1.730
18642WAT     H156168   2.650   2.962   1.662
18642WAT     H256169   2.532   2.937   1.772
18643WAT      O56170   4.248   2.928   0.306
18643WAT     H156171   4.332   2.953   0.354
18643WAT     H256172   4.173   2.987   0.336
18644WAT      O56173   2.417   1.882   0.395
18644WAT     H156174   2.429   1.799   0.449
18644WAT     H256175   2.505   1.928   0.384
18645WAT      O56176   4.324   6.160   2.018
18645WAT     H156177   4.276   6.173   2.105
18645WAT     H256178   4.264   6.115   1.953
18646WAT      O56179   0.973   3.039   0.299
18646WAT     H156180   0.942   2.979   0.373
18646WAT     H256181   0.966   2.990   0.211
18647WAT      O56182   8.418   6.248   1.956
18647WAT     H156183   8.366   6.163   1.968
18647WAT     H256184   8.433   6.289   2.046
18648WAT      O56185   3.313   6.217   3.617
18648WAT     H156186   3.254   6.137   3.629
18648WAT     H256187   3.262   6.299   3.642
18649WAT      O56188   7.805   3.669   6.501
18649WAT     H156189   7.880   3.689   6.565
18649WAT     H256190   7.738   3.743   6.503
18650WAT      O56191   3.790   9.744   0.747
18650WAT     H156192   3.805   9.697   0.834
18650WAT     H256193   3.695   9.733   0.719
18651WAT      O56194   4.552   3.170   9.182
18651WAT     H156195   4.459   3.202   9.200
18651WAT     H256196   4.576   3.188   9.086
18652WAT      O56197   8.079   5.315   2.736
18652WAT     H156198   8.165   5.303   2.785
18652WAT     H256199   8.087   5.391   2.671
18653WAT      O56200   0.312   3.524   9.766
18653WAT     H156201   0.366   3.450   9.808
18653WAT     H256202   0.290   3.592   9.836
18654WAT      O56203   9.649   9.564   8.818
18654WAT     H156204   9.723   9.496   8.809
18654WAT     H256205   9.575   9.526   8.873
18655WAT      O56206   4.894   0.253   1.180
18655WAT     H156207   4.868   0.350   1.174
18655WAT     H256208   4.946   0.238   1.264
18656WAT      O56209   3.924   5.345   6.801
18656WAT     H156210   3.979   5.379   6.725
18656WAT     H256211   3.840   5.303   6.766
18657WAT      O56212   7.449   5.084   7.186
18657WAT     H156213   7.504   5.026   7.246
18657WAT     H256214   7.355   5.051   7.184
18658WAT      O56215   7.794   0.524   2.261
18658WAT     H156216   7.751   0.454   2.203
18658WAT     H256217   7.724   0.568   2.317
18659WAT      O56218   3.079   9.132   4.302
18659WAT     H156219   3.126   9.060   4.354
18659WAT     H256220   3.133   9.216   4.306
18660WAT      O56221   4.689   9.781   8.887
18660WAT     H156222   4.740   9.708   8.842
18660WAT     H256223   4.690   9.766   8.986
18661WAT      O56224   2.912   3.017   3.546
18661WAT     H156225   2.992   3.000   3.488
18661WAT     H256226   2.853   3.085   3.503
18662WAT      O56227   1.210   4.195   3.120
18662WAT     H156228   1.177   4.144   3.200
18662WAT     H256229   1.196   4.140   3.038
18663WAT      O56230   6.503   8.355   4.219
18663WAT     H156231   6.569   8.393   4.283
18663WAT     H256232   6.488   8.258   4.240
18664WAT      O56233   7.086   6.314   4.344
18664WAT     H156234   7.039   6.292   4.258
18664WAT     H256235   7.041   6.393   4.387
18665WAT      O56236   3.634   6.005   5.680
18665WAT     H156237   3.688   5.921   5.682
18665WAT     H256238   3.664   6.067   5.753
18666WAT      O56239   6.327   1.737   0.040
18666WAT     H156240   6.329   1.657   0.101
18666WAT     H256241   6.406   1.796   0.060
18667WAT      O56242   4.557   7.227   6.344
18667WAT     H156243   4.591   7.295   6.409
18667WAT     H256244   4.530   7.273   6.259
18668WAT      O56245   5.799   3.934   6.831
18668WAT     H156246   5.795   4.007   6.763
18668WAT     H256247   5.891   3.931   6.871
18669WAT      O56248   1.084   2.035   1.727
18669WAT     H156249   1.070   1.939   1.749
18669WAT     H256250   1.179   2.049   1.698
18670WAT      O56251   5.052   6.433   3.895
18670WAT     H156252   5.149   6.423   3.919
18670WAT     H256253   4.997   6.377   3.957
18671WAT      O56254   7.962   3.009   5.088
18671WAT     H156255   7.933   3.084   5.028
18671WAT     H256256   7.954   2.922   5.039
18672WAT      O56257   9.716   3.257   3.783
18672WAT     H156258   9.806   3.283   3.818
18672WAT     H256259   9.680   3.181   3.837
18673WAT      O56260   1.528   5.063   1.609
18673WAT     H156261   1.486   4.992   1.667
18673WAT     H256262   1.605   5.104   1.658
18674WAT      O56263   8.601   1.500   7.577
18674WAT     H156264   8.652   1.472   7.496
18674WAT     H256265   8.635   1.589   7.609
18675WAT      O56266   2.642   4.113   2.998
18675WAT     H156267   2.576   4.105   3.072
18675WAT     H256268   2.594   4.108   2.910
18676WAT      O56269   1.425   1.186   3.570
18676WAT     H156270   1.474   1.266   3.604
18676WAT     H256271   1.423   1.116   3.641
18677WAT      O56272   8.368   2.219   0.187
18677WAT     H156273   8.405   2.307   0.218
18677WAT     H256274   8.336   2.166   0.265
18678WAT      O56275   1.439   0.876   5.651
18678WAT     H156276   1.530   0.889   5.692
18678WAT     H256277   1.447   0.878   5.551
18679WAT      O56278   0.996   5.869   4.401
18679WAT     H156279   1.077   5.891   4.455
18679WAT     H256280   1.005   5.909   4.310
18680WAT      O56281   7.128   5.076   9.025
18680WAT     H156282   7.062   5.037   9.088
18680WAT     H256283   7.082   5.139   8.962
18681WAT      O56284   6.489   8.891   8.420
18681WAT     H156285   6.416   8.912   8.485
18681WAT     H256286   6.484   8.953   8.342
18682WAT      O56287   4.687   1.538   1.757
18682WAT     H156288   4.618   1.536   1.829
18682WAT     H256289   4.712   1.445   1.731
18683WAT      O56290   1.516   5.199   4.669
18683WAT     H156291   1.486   5.290   4.638
18683WAT     H256292   1.444   5.133   4.650
18684WAT      O56293   0.893   0.987   5.169
18684WAT     H156294   0.829   1.040   5.113
18684WAT     H256295   0.923   1.044   5.247
18685WAT      O56296   1.840   5.977   1.414
18685WAT     H156297   1.885   5.975   1.325
18685WAT     H256298   1.875   5.903   1.471
18686WAT      O56299   4.471   3.365   7.133
18686WAT     H156300   4.502   3.426   7.206
18686WAT     H256301   4.490   3.270   7.158
18687WAT      O56302   0.792   8.710   4.889
18687WAT     H156303   0.770   8.808   4.885
18687WAT     H256304   0.710   8.659   4.917
18688WAT      O56305   9.262   9.683   7.284
18688WAT     H156306   9.329   9.647   7.350
18688WAT     H256307   9.287   9.653   7.192
18689WAT      O56308   7.795   2.238   0.854
18689WAT     H156309   7.882   2.224   0.901
18689WAT     H256310   7.750   2.151   0.839
18690WAT      O56311   9.084   8.426   1.718
18690WAT     H156312   9.046   8.418   1.626
18690WAT     H256313   9.025   8.484   1.774
18691WAT      O56314   1.997   5.903   6.883
18691WAT     H156315   2.094   5.925   6.892
18691WAT     H256316   1.987   5.813   6.839
18692WAT      O56317   5.263   1.923   3.372
18692WAT     H156318   5.187   1.859   3.384
18692WAT     H256319   5.242   2.008   3.421
18693WAT      O56320   8.694   7.291   9.675
18693WAT     H156321   8.723   7.201   9.709
18693WAT     H256322   8.661   7.347   9.751
18694WAT      O56323   7.780   3.416   4.720
18694WAT     H156324   7.782   3.516   4.714
18694WAT     H256325   7.776   3.378   4.628
18695WAT      O56326   8.049   7.442   4.493
18695WAT     H156327   7.966   7.403   4.452
18695WAT     H256328   8.024   7.510   4.561
18696WAT      O56329   1.737   7.872   0.658
18696WAT     H156330   1.800   7.897   0.731
18696WAT     H256331   1.788   7.835   0.581
18697WAT      O56332   1.934   3.887   7.784
18697WAT     H156333   1.974   3.961   7.839
18697WAT     H256334   1.932   3.915   7.688
18698WAT      O56335   6.482   1.738   8.811
18698WAT     H156336   6.460   1.650   8.768
18698WAT     H256337   6.541   1.723   8.890
18699WAT      O56338   5.472   8.214   3.240
18699WAT     H156339   5.410   8.292   3.231
18699WAT     H256340   5.459   8.152   3.163
18700WAT      O56341   3.927   8.757   8.603
18700WAT     H156342   3.887   8.666   8.596
18700WAT     H256343   3.901   8.810   8.522
18701WAT      O56344   9.602   0.557   1.420
18701WAT     H156345   9.549   0.641   1.411
18701WAT     H256346   9.698   0.576   1.401
18702WAT      O56347   6.353   7.453   9.326
18702WAT     H156348   6.338   7.359   9.294
18702WAT     H256349   6.296   7.516   9.273
18703WAT      O56350   6.885   3.367   0.320
18703WAT     H156351   6.836   3.422   0.253
18703WAT     H256352   6.983   3.388   0.316
18704WAT      O56353   1.505   8.458   5.663
18704WAT     H156354   1.464   8.510   5.588
18704WAT     H256355   1.597   8.492   5.681
18705WAT      O56356   1.814   4.834   5.216
18705WAT     H156357   1.820   4.846   5.117
18705WAT     H256358   1.849   4.743   5.241
18706WAT      O56359   2.482   7.983   9.270
18706WAT     H156360   2.478   7.970   9.171
18706WAT     H256361   2.507   8.078   9.290
18707WAT      O56362   9.283   3.282   6.447
18707WAT     H156363   9.344   3.236   6.383
18707WAT     H256364   9.190   3.245   6.436
18708WAT      O56365   9.114   2.263   6.345
18708WAT     H156366   9.069   2.186   6.390
18708WAT     H256367   9.213   2.254   6.354
18709WAT      O56368   4.776   8.241   0.772
18709WAT     H156369   4.864   8.206   0.804
18709WAT     H256370   4.787   8.335   0.741
18710WAT      O56371   1.386   8.062   1.430
18710WAT     H156372   1.430   8.149   1.408
18710WAT     H256373   1.337   8.071   1.517
18711WAT      O56374   5.147   3.237   3.362
18711WAT     H156375   5.093   3.208   3.442
18711WAT     H256376   5.244   3.238   3.387
18712WAT      O56377   5.099   3.490   0.730
18712WAT     H156378   5.013   3.469   0.684
18712WAT     H256379   5.126   3.414   0.788
18713WAT      O56380   5.851   2.278   5.338
18713WAT     H156381   5.930   2.336   5.321
18713WAT     H256382   5.879   2.195   5.386
18714WAT      O56383   7.451   8.808   2.802
18714WAT     H156384   7.437   8.878   2.732
18714WAT     H256385   7.363   8.780   2.840
18715WAT      O56386   7.395   6.872   0.074
18715WAT     H156387   7.375   6.790   0.020
18715WAT     H256388   7.342   6.870   0.158
18716WAT      O56389   0.509   1.015   1.435
18716WAT     H156390   0.427   0.984   1.483
18716WAT     H256391   0.567   1.067   1.498
18717WAT      O56392   2.378   6.238   0.569
18717WAT     H156393   2.290   6.286   0.574
18717WAT     H256394   2.452   6.302   0.586
18718WAT      O56395   5.795   3.756   4.247
18718WAT     H156396   5.745   3.780   4.164
18718WAT     H256397   5.746   3.792   4.327
18719WAT      O56398   7.435   0.517   8.217
18719WAT     H156399   7.474   0.585   8.155
18719WAT     H256400   7.441   0.426   8.175
18720WAT      O56401   6.527   1.469   7.110
18720WAT     H156402   6.586   1.509   7.040
18720WAT     H256403   6.478   1.391   7.072
18721WAT      O56404   6.243   7.955   5.062
18721WAT     H156405   6.329   7.906   5.051
18721WAT     H256406   6.237   7.992   5.155
18722WAT      O56407   1.208   9.757   6.732
18722WAT     H156408   1.128   9.796   6.778
18722WAT     H256409   1.182   9.672   6.687
18723WAT      O56410   3.148   4.553   9.793
18723WAT     H156411   3.131   4.623   9.724
18723WAT     H256412   3.151   4.463   9.750
18724WAT      O56413   4.701   6.460   9.078
18724WAT     H156414   4.720   6.475   8.981
18724WAT     H256415   4.648   6.536   9.114
18725WAT      O56416   2.527   1.483   2.117
18725WAT     H156417   2.594   1.538   2.068
18725WAT     H256418   2.471   1.543   2.175
18726WAT      O56419   7.761   7.916   4.495
18726WAT     H156420   7.664   7.938   4.487
18726WAT     H256421   7.803   7.975   4.564
18727WAT      O56422   5.263   7.807   1.871
18727WAT     H156423   5.219   7.841   1.954
18727WAT     H256424   5.216   7.724   1.841
18728WAT      O56425   1.730   2.457   1.308
18728WAT     H156426   1.811   2.498   1.348
18728WAT     H256427   1.669   2.529   1.274
18729WAT      O56428   6.606   3.327   6.991
18729WAT     H156429   6.694   3.369   6.971
18729WAT     H256430   6.549   3.391   7.044
18730WAT      O56431   6.482   7.727   5.933
18730WAT     H156432   6.532   7.656   5.983
18730WAT     H256433   6.391   7.693   5.909
18731WAT      O56434   2.468   6.597   8.838
18731WAT     H156435   2.503   6.523   8.781
18731WAT     H256436   2.530   6.613   8.914
18732WAT      O56437   6.225   4.754   4.059
18732WAT     H156438   6.185   4.845   4.046
18732WAT     H256439   6.322   4.756   4.037
18733WAT      O56440   9.066   7.551   4.589
18733WAT     H156441   9.119   7.490   4.530
18733WAT     H256442   8.975   7.512   4.605
18734WAT      O56443   6.594   5.551   8.641
18734WAT     H156444   6.530   5.628   8.646
18734WAT     H256445   6.591   5.511   8.549
18735WAT      O56446   6.728   0.283   0.256
18735WAT     H156447   6.648   0.224   0.267
18735WAT     H256448   6.801   0.233   0.209
18736WAT      O56449   5.628   3.532   0.722
18736WAT     H156450   5.600   3.471   0.648
18736WAT     H256451   5.627   3.481   0.809
18737WAT      O56452   9.786   4.538   6.174
18737WAT     H156453   9.739   4.625   6.159
18737WAT     H256454   9.749   4.494   6.256
18738WAT      O56455   9.502   0.262   8.038
18738WAT     H156456   9.416   0.215   8.056
18738WAT     H256457   9.527   0.251   7.942
18739WAT      O56458   3.415   4.867   3.729
18739WAT     H156459   3.508   4.845   3.699
18739WAT     H256460   3.409   4.857   3.828
18740WAT      O56461   3.485   2.816   2.142
18740WAT     H156462   3.556   2.837   2.074
18740WAT     H256463   3.527   2.796   2.230
18741WAT      O56464   7.584   4.594   7.750
18741WAT     H156465   7.620   4.501   7.747
18741WAT     H256466   7.607   4.635   7.838
18742WAT      O56467   8.318   7.184   1.763
18742WAT     H156468   8.222   7.164   1.744
18742WAT     H256469   8.329   7.282   1.778
18743WAT      O56470   5.188   0.762   6.487
18743WAT     H156471   5.159   0.784   6.394
18743WAT     H256472   5.140   0.821   6.552
18744WAT      O56473   7.805   9.495   7.031
18744WAT     H156474   7.856   9.570   6.989
18744WAT     H256475   7.715   9.528   7.061
18745WAT      O56476   1.883   4.234   4.921
18745WAT     H156477   1.893   4.272   4.829
18745WAT     H256478   1.795   4.188   4.929
18746WAT      O56479   6.150   8.940   4.128
18746WAT     H156480   6.138   8.987   4.216
18746WAT     H256481   6.135   8.842   4.140
18747WAT      O56482   7.887   6.212   2.747
18747WAT     H156483   7.889   6.144   2.820
18747WAT     H256484   7.948   6.184   2.673
18748WAT      O56485   2.495   4.398   2.795
18748WAT     H156486   2.592   4.390   2.769
18748WAT     H256487   2.483   4.479   2.853
18749WAT      O56488   1.986   7.158   8.197
18749WAT     H156489   2.044   7.236   8.176
18749WAT     H256490   1.971   7.104   8.114
18750WAT      O56491   5.693   4.056   6.266
18750WAT     H156492   5.775   4.040   6.211
18750WAT     H256493   5.705   4.141   6.319
18751WAT      O56494   8.931   2.992   9.297
18751WAT     H156495   8.854   2.928   9.310
18751WAT     H256496   8.899   3.085   9.311
18752WAT      O56497   3.534   8.249   3.121
18752WAT     H156498   3.458   8.273   3.180
18752WAT     H256499   3.619   8.285   3.160
18753WAT      O56500   6.672   2.267   0.968
18753WAT     H156501   6.686   2.168   0.958
18753WAT     H256502   6.729   2.316   0.903
18754WAT      O56503   3.589   6.477   8.879
18754WAT     H156504   3.505   6.526   8.852
18754WAT     H256505   3.566   6.408   8.947
18755WAT      O56506   3.372   6.606   3.502
18755WAT     H156507   3.468   6.592   3.527
18755WAT     H256508   3.367   6.643   3.409
18756WAT      O56509   2.734   9.121   1.735
18756WAT     H156510   2.718   9.212   1.695
18756WAT     H256511   2.817   9.082   1.698
18757WAT      O56512   0.272   0.873   7.664
18757WAT     H156513   0.339   0.927   7.714
18757WAT     H256514   0.277   0.896   7.566
18758WAT      O56515   5.145   6.465   3.623
18758WAT     H156516   5.203   6.545   3.612
18758WAT     H256517   5.095   6.471   3.709
18759WAT      O56518   8.960   5.584   4.548
18759WAT     H156519   9.035   5.553   4.606
18759WAT     H256520   8.996   5.611   4.459
18760WAT      O56521   2.065   4.069   8.721
18760WAT     H156522   2.026   4.049   8.632
18760WAT     H256523   2.135   4.001   8.743
18761WAT      O56524   2.490   8.537   8.126
18761WAT     H156525   2.491   8.610   8.058
18761WAT     H256526   2.487   8.577   8.218
18762WAT      O56527   4.342   0.542   4.725
18762WAT     H156528   4.342   0.563   4.627
18762WAT     H256529   4.321   0.445   4.739
18763WAT      O56530   2.845   5.862   2.422
18763WAT     H156531   2.784   5.913   2.361
18763WAT     H256532   2.826   5.764   2.414
18764WAT      O56533   5.777   9.041   4.994
18764WAT     H156534   5.822   8.970   5.047
18764WAT     H256535   5.792   9.024   4.896
18765WAT      O56536   6.433   3.388   8.634
18765WAT     H156537   6.491   3.307   8.628
18765WAT     H256538   6.447   3.445   8.553
18766WAT      O56539   1.768   8.125   3.755
18766WAT     H156540   1.744   8.161   3.845
18766WAT     H256541   1.788   8.201   3.693
18767WAT      O56542   7.190   6.779   9.143
18767WAT     H156543   7.152   6.751   9.056
18767WAT     H256544   7.144   6.861   9.176
18768WAT      O56545   7.912   1.276   8.467
18768WAT     H156546   7.851   1.348   8.432
18768WAT     H256547   7.881   1.187   8.433
18769WAT      O56548   1.179   0.213   3.624
18769WAT     H156549   1.101   0.187   3.679
18769WAT     H256550   1.241   0.135   3.613
18770WAT      O56551   2.282   3.490   4.398
18770WAT     H156552   2.302   3.576   4.444
18770WAT     H256553   2.183   3.481   4.386
18771WAT      O56554   5.302   5.624   6.964
18771WAT     H156555   5.211   5.624   7.007
18771WAT     H256556   5.372   5.608   7.033
18772WAT      O56557   9.567   3.551   0.909
18772WAT     H156558   9.613   3.639   0.919
18772WAT     H256559   9.636   3.480   0.895
18773WAT      O56560   4.605   5.699   4.933
18773WAT     H156561   4.577   5.788   4.896
18773WAT     H256562   4.697   5.677   4.900
18774WAT      O56563   4.069   9.811   8.637
18774WAT     H156564   4.158   9.806   8.591
18774WAT     H256565   4.044   9.721   8.672
18775WAT      O56566   2.498   5.495   4.902
18775WAT     H156567   2.487   5.549   4.819
18775WAT     H256568   2.587   5.514   4.943
18776WAT      O56569   7.430   4.337   7.941
18776WAT     H156570   7.386   4.247   7.933
18776WAT     H256571   7.482   4.341   8.026
18777WAT      O56572   3.062   2.015   7.709
18777WAT     H156573   3.011   2.032   7.625
18777WAT     H256574   3.153   1.980   7.686
18778WAT      O56575   1.974   8.788   0.903
18778WAT     H156576   1.927   8.699   0.904
18778WAT     H256577   1.906   8.860   0.916
18779WAT      O56578   7.126   4.297   8.076
18779WAT     H156579   7.114   4.347   8.161
18779WAT     H256580   7.100   4.201   8.089
18780WAT      O56581   8.809   5.826   1.843
18780WAT     H156582   8.737   5.890   1.867
18780WAT     H256583   8.827   5.832   1.744
18781WAT      O56584   6.131   2.138   1.174
18781WAT     H156585   6.221   2.153   1.134
18781WAT     H256586   6.139   2.073   1.250
18782WAT      O56587   0.044   2.757   6.937
18782WAT     H156588   0.051   2.807   6.851
18782WAT     H256589   0.118   2.690   6.943
18783WAT      O56590   8.695   4.262   2.635
18783WAT     H156591   8.748   4.216   2.565
18783WAT     H256592   8.742   4.254   2.723
18784WAT      O56593   7.339   3.100   6.944
18784WAT     H156594   7.432   3.078   6.915
18784WAT     H256595   7.289   3.015   6.960
18785WAT      O56596   8.513   1.275   5.885
18785WAT     H156597   8.602   1.300   5.846
18785WAT     H256598   8.505   1.316   5.977
18786WAT      O56599   2.840   8.656   9.290
18786WAT     H156600   2.906   8.584   9.311
18786WAT     H256601   2.839   8.723   9.364
18787WAT      O56602   6.511   6.234   3.459
18787WAT     H156603   6.493   6.136   3.466
18787WAT     H256604   6.546   6.267   3.547
18788WAT      O56605   8.914   6.395   0.840
18788WAT     H156606   8.856   6.323   0.800
18788WAT     H256607   8.862   6.445   0.908
18789WAT      O56608   1.173   7.167   8.687
18789WAT     H156609   1.247   7.224   8.652
18789WAT     H256610   1.088   7.219   8.686
18790WAT      O56611   4.682   6.437   4.179
18790WAT     H156612   4.636   6.409   4.263
18790WAT     H256613   4.626   6.505   4.130
18791WAT      O56614   0.590   9.759   6.259
18791WAT     H156615   0.654   9.688   6.230
18791WAT     H256616   0.523   9.720   6.323
18792WAT      O56617   3.195   9.192   8.193
18792WAT     H156618   3.127   9.264   8.175
18792WAT     H256619   3.282   9.235   8.218
18793WAT      O56620   8.092   2.652   3.692
18793WAT     H156621   8.027   2.633   3.766
18793WAT     H256622   8.070   2.740   3.650
18794WAT      O56623   0.648   6.130   2.666
18794WAT     H156624   0.660   6.170   2.757
18794WAT     H256625   0.558   6.085   2.661
18795WAT      O56626   3.121   1.295   1.007
18795WAT     H156627   3.071   1.225   1.058
18795WAT     H256628   3.182   1.251   0.941
18796WAT      O56629   1.439   8.588   9.342
18796WAT     H156630   1.378   8.589   9.263
18796WAT     H256631   1.511   8.520   9.328
18797WAT      O56632   7.941   1.359   9.873
18797WAT     H156633   8.022   1.311   9.838
18797WAT     H256634   7.929   1.339   9.970
18798WAT      O56635   2.042   9.564   3.088
18798WAT     H156636   1.954   9.592   3.127
18798WAT     H256637   2.026   9.514   3.003
18799WAT      O56638   6.287   2.803   9.241
18799WAT     H156639   6.339   2.744   9.180
18799WAT     H256640   6.350   2.852   9.303
18800WAT      O56641   4.401   2.601   8.770
18800WAT     H156642   4.362   2.577   8.681
18800WAT     H256643   4.328   2.603   8.838
18801WAT      O56644   8.431   6.709   3.434
18801WAT     H156645   8.449   6.628   3.379
18801WAT     H256646   8.496   6.781   3.410
18802WAT      O56647   9.365   6.235   4.534
18802WAT     H156648   9.371   6.314   4.474
18802WAT     H256649   9.455   6.216   4.574
18803WAT      O56650   9.408   8.115   9.153
18803WAT     H156651   9.401   8.037   9.214
18803WAT     H256652   9.351   8.190   9.188
18804WAT      O56653   1.571   0.025   0.444
18804WAT     H156654   1.502   0.023   0.372
18804WAT     H256655   1.580  -0.066   0.484
18805WAT      O56656   4.034   6.625   9.542
18805WAT     H156657   4.115   6.588   9.588
18805WAT     H256658   3.967   6.654   9.611
18806WAT      O56659   8.188   5.464   4.869
18806WAT     H156660   8.192   5.459   4.969
18806WAT     H256661   8.267   5.417   4.830
18807WAT      O56662   8.717   0.073   1.417
18807WAT     H156663   8.774  -0.005   1.443
18807WAT     H256664   8.626   0.041   1.391
18808WAT      O56665   0.956   1.251   7.523
18808WAT     H156666   0.970   1.212   7.614
18808WAT     H256667   1.005   1.196   7.455
18809WAT      O56668   7.039   2.701   8.335
18809WAT     H156669   7.004   2.616   8.296
18809WAT     H256670   7.136   2.711   8.313
18810WAT      O56671   0.516   0.363   7.465
18810WAT     H156672   0.599   0.326   7.508
18810WAT     H256673   0.436   0.336   7.518
18811WAT      O56674   8.094   6.278   9.204
18811WAT     H156675   8.183   6.267   9.247
18811WAT     H256676   8.089   6.219   9.124
18812WAT      O56677   9.257   9.770   0.328
18812WAT     H156678   9.162   9.756   0.303
18812WAT     H256679   9.286   9.862   0.301
18813WAT      O56680   4.467   7.792   1.196
18813WAT     H156681   4.462   7.880   1.149
18813WAT     H256682   4.425   7.799   1.286
18814WAT      O56683   9.886   8.098   4.331
18814WAT     H156684   9.947   8.133   4.260
18814WAT     H256685   9.793   8.132   4.314
18815WAT      O56686   4.206   3.877   8.624
18815WAT     H156687   4.210   3.782   8.591
18815WAT     H256688   4.283   3.928   8.585
18816WAT      O56689   5.180   2.465   8.881
18816WAT     H156690   5.200   2.519   8.799
18816WAT     H256691   5.104   2.507   8.930
18817WAT      O56692   1.769   6.892   1.998
18817WAT     H156693   1.840   6.887   2.068
18817WAT     H256694   1.796   6.957   1.927
18818WAT      O56695   0.478   0.291   8.694
18818WAT     H156696   0.384   0.316   8.673
18818WAT     H256697   0.505   0.212   8.638
18819WAT      O56698   9.455   0.407   7.679
18819WAT     H156699   9.528   0.346   7.649
18819WAT     H256700   9.378   0.352   7.713
18820WAT      O56701   4.648   8.020   7.300
18820WAT     H156702   4.731   7.988   7.346
18820WAT     H256703   4.655   8.001   7.202
18821WAT      O56704   0.349   7.007   2.483
18821WAT     H156705   0.428   6.948   2.467
18821WAT     H256706   0.324   7.053   2.398
18822WAT      O56707   2.868   6.913   6.820
18822WAT     H156708   2.814   6.962   6.752
18822WAT     H256709   2.950   6.966   6.842
18823WAT      O56710   5.462   4.073   8.562
18823WAT     H156711   5.454   4.072   8.662
18823WAT     H256712   5.534   4.137   8.535
18824WAT      O56713   3.795   4.906   8.461
18824WAT     H156714   3.834   4.821   8.425
18824WAT     H256715   3.720   4.935   8.402
18825WAT      O56716   3.541   1.220   0.054
18825WAT     H156717   3.566   1.165  -0.025
18825WAT     H256718   3.618   1.279   0.080
18826WAT      O56719   2.487   1.161   5.531
18826WAT     H156720   2.389   1.176   5.525
18826WAT     H256721   2.506   1.086   5.594
18827WAT      O56722   8.085   4.064   8.570
18827WAT     H156723   8.078   3.973   8.612
18827WAT     H256724   8.021   4.070   8.493
18828WAT      O56725   1.767   4.674   1.207
18828WAT     H156726   1.861   4.659   1.239
18828WAT     H256727   1.734   4.762   1.243
18829WAT      O56728   3.542   2.332   9.321
18829WAT     H156729   3.483   2.413   9.312
18829WAT     H256730   3.524   2.269   9.246
18830WAT      O56731   0.135   2.340   2.602
18830WAT     H156732   0.169   2.433   2.609
18830WAT     H256733   0.176   2.294   2.524
18831WAT      O56734   6.920   9.311   4.558
18831WAT     H156735   6.975   9.395   4.563
18831WAT     H256736   6.823   9.336   4.549
18832WAT      O56737   2.324   6.297   7.734
18832WAT     H156738   2.298   6.203   7.709
18832WAT     H256739   2.326   6.353   7.651
18833WAT      O56740   9.626   7.835   6.049
18833WAT     H156741   9.707   7.820   6.105
18833WAT     H256742   9.623   7.769   5.975
18834WAT      O56743   6.309   1.153   4.296
18834WAT     H156744   6.408   1.147   4.309
18834WAT     H256745   6.265   1.173   4.384
18835WAT      O56746   4.874   9.406   6.264
18835WAT     H156747   4.875   9.431   6.360
18835WAT     H256748   4.896   9.309   6.254
18836WAT      O56749   0.807   6.010   1.694
18836WAT     H156750   0.781   5.922   1.653
18836WAT     H256751   0.725   6.059   1.722
18837WAT      O56752   3.183   2.034   7.384
18837WAT     H156753   3.281   2.046   7.401
18837WAT     H256754   3.163   2.049   7.287
18838WAT      O56755   7.129   7.867   0.004
18838WAT     H156756   7.123   7.846   0.102
18838WAT     H256757   7.050   7.923  -0.023
18839WAT      O56758   2.346   4.352   8.719
18839WAT     H156759   2.357   4.313   8.627
18839WAT     H256760   2.276   4.424   8.716
18840WAT      O56761   8.360   7.562   6.162
18840WAT     H156762   8.307   7.589   6.081
18840WAT     H256763   8.316   7.483   6.206
18841WAT      O56764   3.469   8.718   8.328
18841WAT     H156765   3.436   8.670   8.410
18841WAT     H256766   3.391   8.758   8.279
18842WAT      O56767   4.033   6.064   5.230
18842WAT     H156768   4.022   5.994   5.160
18842WAT     H256769   4.114   6.119   5.210
18843WAT      O56770   6.367   3.388   6.487
18843WAT     H156771   6.307   3.430   6.555
18843WAT     H256772   6.361   3.288   6.494
18844WAT      O56773   1.303   7.931   9.160
18844WAT     H156774   1.353   7.938   9.074
18844WAT     H256775   1.315   8.016   9.213
18845WAT      O56776   9.122   0.111   1.530
18845WAT     H156777   9.038   0.132   1.580
18845WAT     H256778   9.146   0.188   1.470
18846WAT      O56779   0.334   7.515   4.383
18846WAT     H156780   0.431   7.500   4.404
18846WAT     H256781   0.290   7.562   4.459
18847WAT      O56782   8.280   7.372   6.314
18847WAT     H156783   8.372   7.358   6.351
18847WAT     H256784   8.213   7.329   6.375
18848WAT      O56785   2.706   0.768   3.293
18848WAT     H156786   2.766   0.702   3.337
18848WAT     H256787   2.738   0.786   3.200
18849WAT      O56788   8.718   3.583   4.394
18849WAT     H156789   8.686   3.579   4.299
18849WAT     H256790   8.816   3.567   4.397
18850WAT      O56791   7.352   2.589   2.866
18850WAT     H156792   7.399   2.669   2.830
18850WAT     H256793   7.259   2.615   2.895
18851WAT      O56794   7.497   0.849   6.589
18851WAT     H156795   7.405   0.822   6.618
18851WAT     H256796   7.496   0.946   6.562
18852WAT      O56797   9.691   0.764   6.013
18852WAT     H156798   9.757   0.704   6.057
18852WAT     H256799   9.695   0.855   6.054
18853WAT      O56800   7.041   2.876   3.371
18853WAT     H156801   6.952   2.876   3.416
18853WAT     H256802   7.078   2.969   3.369
18854WAT      O56803   0.292   9.377   4.587
18854WAT     H156804   0.327   9.455   4.640
18854WAT     H256805   0.317   9.292   4.633
18855WAT      O56806   7.416   9.094   7.720
18855WAT     H156807   7.495   9.033   7.714
18855WAT     H256808   7.400   9.137   7.632
18856WAT      O56809   7.668   9.559   3.277
18856WAT     H156810   7.601   9.626   3.309
18856WAT     H256811   7.737   9.605   3.222
18857WAT      O56812   5.896   1.272   5.925
18857WAT     H156813   5.926   1.354   5.974
18857WAT     H256814   5.954   1.195   5.951
18858WAT      O56815   8.326   9.842   1.866
18858WAT     H156816   8.366   9.889   1.787
18858WAT     H256817   8.399   9.802   1.921
18859WAT      O56818   1.842   5.212   1.992
18859WAT     H156819   1.918   5.242   1.933
18859WAT     H256820   1.878   5.189   2.083
18860WAT      O56821   0.301   6.098   3.777
18860WAT     H156822   0.390   6.102   3.731
18860WAT     H256823   0.312   6.057   3.867
18861WAT      O56824   4.372   5.996   6.912
18861WAT     H156825   4.334   6.066   6.852
18861WAT     H256826   4.297   5.952   6.963
18862WAT      O56827   8.691   8.493   3.448
18862WAT     H156828   8.625   8.513   3.521
18862WAT     H256829   8.680   8.398   3.419
18863WAT      O56830   9.050   5.815   0.502
18863WAT     H156831   9.079   5.728   0.541
18863WAT     H256832   9.027   5.804   0.405
18864WAT      O56833   9.227   2.419   4.042
18864WAT     H156834   9.189   2.472   3.967
18864WAT     H256835   9.260   2.481   4.113
18865WAT      O56836   1.951   2.488   5.489
18865WAT     H156837   1.983   2.577   5.522
18865WAT     H256838   1.965   2.481   5.391
18866WAT      O56839   5.691   2.672   8.096
18866WAT     H156840   5.738   2.606   8.038
18866WAT     H256841   5.608   2.703   8.049
18867WAT      O56842   9.716   2.360   7.946
18867WAT     H156843   9.691   2.410   8.029
18867WAT     H256844   9.661   2.277   7.939
18868WAT      O56845   8.971   3.165   1.522
18868WAT     H156846   9.032   3.200   1.450
18868WAT     H256847   8.909   3.097   1.483
18869WAT      O56848   7.006   0.191   8.903
18869WAT     H156849   7.083   0.157   8.957
18869WAT     H256850   6.981   0.283   8.934
18870WAT      O56851   8.581   7.297   2.922
18870WAT     H156852   8.509   7.233   2.947
18870WAT     H256853   8.634   7.260   2.846
18871WAT      O56854   5.981   6.454   0.060
18871WAT     H156855   6.080   6.438   0.051
18871WAT     H256856   5.941   6.383   0.118
18872WAT      O56857   6.013   0.272   7.572
18872WAT     H156858   5.956   0.288   7.491
18872WAT     H256859   6.109   0.279   7.547
18873WAT      O56860   9.639   0.917   5.440
18873WAT     H156861   9.601   0.826   5.457
18873WAT     H256862   9.579   0.967   5.378
18874WAT      O56863   9.839   2.576   2.064
18874WAT     H156864   9.842   2.669   2.026
18874WAT     H256865   9.896   2.572   2.147
18875WAT      O56866   2.700   7.079   0.182
18875WAT     H156867   2.690   7.069   0.280
18875WAT     H256868   2.633   7.021   0.135
18876WAT      O56869   3.362   0.959   4.563
18876WAT     H156870   3.289   0.892   4.558
18876WAT     H256871   3.334   1.043   4.517
18877WAT      O56872   4.055   4.848   3.165
18877WAT     H156873   4.149   4.881   3.158
18877WAT     H256874   3.993   4.926   3.170
18878WAT      O56875   4.107   4.641   3.589
18878WAT     H156876   4.045   4.651   3.666
18878WAT     H256877   4.201   4.630   3.623
18879WAT      O56878   6.464   9.477   7.813
18879WAT     H156879   6.414   9.397   7.781
18879WAT     H256880   6.549   9.486   7.761
18880WAT      O56881   5.812   4.483   6.641
18880WAT     H156882   5.723   4.526   6.630
18880WAT     H256883   5.880   4.533   6.588
18881WAT      O56884   9.087   5.750   2.817
18881WAT     H156885   9.169   5.801   2.842
18881WAT     H256886   9.009   5.786   2.869
18882WAT      O56887   6.925   5.249   1.429
18882WAT     H156888   6.981   5.320   1.471
18882WAT     H256889   6.913   5.174   1.494
18883WAT      O56890   0.297   3.936   4.631
18883WAT     H156891   0.199   3.924   4.645
18883WAT     H256892   0.315   3.957   4.535
18884WAT      O56893   4.033   0.400   9.059
18884WAT     H156894   4.022   0.308   9.020
18884WAT     H256895   4.081   0.393   9.146
18885WAT      O56896   4.049   9.767   1.164
18885WAT     H156897   4.038   9.855   1.117
18885WAT     H256898   4.103   9.780   1.247
18886WAT      O56899   4.668   1.148   4.949
18886WAT     H156900   4.724   1.066   4.962
18886WAT     H256901   4.571   1.122   4.949
18887WAT      O56902   6.764   8.709   8.972
18887WAT     H156903   6.744   8.625   9.022
18887WAT     H256904   6.850   8.748   9.006
18888WAT      O56905   9.221   5.127   6.998
18888WAT     H156906   9.199   5.052   6.935
18888WAT     H256907   9.194   5.101   7.091
18889WAT      O56908   7.365   1.104   2.231
18889WAT     H156909   7.428   1.057   2.292
18889WAT     H256910   7.330   1.039   2.163
18890WAT      O56911   4.337   2.047   9.511
18890WAT     H156912   4.436   2.053   9.523
18890WAT     H256913   4.314   2.060   9.414
18891WAT      O56914   0.612   4.161   9.624
18891WAT     H156915   0.636   4.077   9.672
18891WAT     H256916   0.647   4.157   9.530
18892WAT      O56917   5.996   4.165   0.770
18892WAT     H156918   6.074   4.106   0.787
18892WAT     H256919   5.955   4.193   0.857
18893WAT      O56920   6.606   5.980   6.370
18893WAT     H156921   6.532   6.020   6.316
18893WAT     H256922   6.567   5.923   6.442
18894WAT      O56923   6.146   6.894   7.247
18894WAT     H156924   6.100   6.851   7.326
18894WAT     H256925   6.078   6.918   7.178
18895WAT      O56926   6.541   4.163   7.611
18895WAT     H156927   6.525   4.222   7.532
18895WAT     H256928   6.490   4.198   7.690
18896WAT      O56929   2.802   5.131   6.559
18896WAT     H156930   2.894   5.167   6.545
18896WAT     H256931   2.807   5.050   6.618
18897WAT      O56932   2.419   6.231   2.937
18897WAT     H156933   2.426   6.323   2.975
18897WAT     H256934   2.510   6.194   2.921
18898WAT      O56935   8.449   2.985   2.615
18898WAT     H156936   8.386   2.961   2.689
18898WAT     H256937   8.542   2.961   2.642
18899WAT      O56938   9.758   6.752   7.100
18899WAT     H156939   9.673   6.794   7.068
18899WAT     H256940   9.822   6.745   7.024
18900WAT      O56941   7.231   8.765   1.455
18900WAT     H156942   7.315   8.724   1.490
18900WAT     H256943   7.157   8.697   1.456
18901WAT      O56944   0.403   5.134   1.855
18901WAT     H156945   0.457   5.187   1.920
18901WAT     H256946   0.307   5.133   1.884
18902WAT      O56947   7.981   3.918   0.055
18902WAT     H156948   7.997   4.012   0.024
18902WAT     H256949   7.956   3.919   0.151
18903WAT      O56950   1.039   5.104   5.882
18903WAT     H156951   0.984   5.060   5.811
18903WAT     H256952   0.991   5.185   5.916
18904WAT      O56953   7.513   9.601   5.293
18904WAT     H156954   7.606   9.627   5.321
18904WAT     H256955   7.482   9.524   5.349
18905WAT      O56956   5.340   9.032   6.000
18905WAT     H156957   5.361   9.019   6.096
18905WAT     H256958   5.370   9.123   5.970
18906WAT      O56959   3.465   7.441   5.398
18906WAT     H156960   3.399   7.367   5.411
18906WAT     H256961   3.447   7.487   5.312
18907WAT      O56962   7.145   1.853   0.840
18907WAT     H156963   7.085   1.895   0.772
18907WAT     H256964   7.098   1.851   0.928
18908WAT      O56965   1.152   7.702   2.257
18908WAT     H156966   1.128   7.797   2.275
18908WAT     H256967   1.169   7.655   2.343
18909WAT      O56968   0.710   7.660   9.190
18909WAT     H156969   0.756   7.604   9.120
18909WAT     H256970   0.660   7.734   9.145
18910WAT      O56971   4.227   1.422   4.771
18910WAT     H156972   4.194   1.328   4.772
18910WAT     H256973   4.149   1.485   4.766
18911WAT      O56974   1.554   7.492   9.536
18911WAT     H156975   1.454   7.488   9.542
18911WAT     H256976   1.591   7.535   9.618
18912WAT      O56977   2.075   5.466   8.502
18912WAT     H156978   1.976   5.459   8.510
18912WAT     H256979   2.113   5.500   8.588
18913WAT      O56980   3.690   9.432   8.840
18913WAT     H156981   3.609   9.411   8.785
18913WAT     H256982   3.723   9.348   8.883
18914WAT      O56983   5.186   2.460   4.834
18914WAT     H156984   5.207   2.372   4.793
18914WAT     H256985   5.251   2.479   4.908
18915WAT      O56986   7.379   4.308   5.447
18915WAT     H156987   7.363   4.326   5.545
18915WAT     H256988   7.292   4.295   5.401
18916WAT      O56989   8.501   1.041   4.320
18916WAT     H156990   8.507   0.979   4.398
18916WAT     H256991   8.405   1.066   4.305
18917WAT      O56992   0.662   2.746   1.640
18917WAT     H156993   0.706   2.662   1.610
18917WAT     H256994   0.584   2.725   1.699
18918WAT      O56995   4.282   9.220   2.166
18918WAT     H156996   4.265   9.315   2.140
18918WAT     H256997   4.364   9.187   2.119
18919WAT      O56998   9.216   8.650   8.293
18919WAT     H156999   9.120   8.649   8.264
18919WAT     H257000   9.261   8.566   8.261
18920WAT      O57001   8.051   0.954   6.874
18920WAT     H157002   8.096   0.895   6.807
18920WAT     H257003   7.981   0.902   6.923
18921WAT      O57004   4.260   0.406   4.042
18921WAT     H157005   4.167   0.383   4.072
18921WAT     H257006   4.325   0.383   4.115
18922WAT      O57007   6.349   2.375   7.175
18922WAT     H157008   6.316   2.452   7.121
18922WAT     H257009   6.392   2.409   7.259
18923WAT      O57010   6.671   1.242   4.957
18923WAT     H157011   6.679   1.328   5.007
18923WAT     H257012   6.611   1.179   5.007
18924WAT      O57013   8.368   4.382   4.003
18924WAT     H157014   8.360   4.473   4.044
18924WAT     H257015   8.313   4.317   4.054
18925WAT      O57016   3.390   7.233   7.762
18925WAT     H157017   3.443   7.291   7.701
18925WAT     H257018   3.446   7.207   7.841
18926WAT      O57019   8.978   5.514   8.644
18926WAT     H157020   9.042   5.467   8.705
18926WAT     H257021   9.013   5.510   8.550
18927WAT      O57022   5.640   4.955   7.654
18927WAT     H157023   5.680   4.949   7.746
18927WAT     H257024   5.541   4.946   7.660
18928WAT      O57025   9.533   0.148   4.581
18928WAT     H157026   9.506   0.175   4.489
18928WAT     H257027   9.570   0.228   4.629
18929WAT      O57028   9.078   8.162   5.300
18929WAT     H157029   8.987   8.120   5.301
18929WAT     H257030   9.094   8.208   5.388
18930WAT      O57031   2.346   2.391   7.706
18930WAT     H157032   2.286   2.448   7.649
18930WAT     H257033   2.335   2.418   7.802
18931WAT      O57034   7.610   5.089   0.916
18931WAT     H157035   7.544   5.162   0.894
18931WAT     H257036   7.605   5.069   1.014
18932WAT      O57037   1.662   6.781   0.622
18932WAT     H157038   1.713   6.775   0.708
18932WAT     H257039   1.592   6.852   0.629
18933WAT      O57040   7.350   7.418   2.038
18933WAT     H157041   7.423   7.388   1.975
18933WAT     H257042   7.271   7.357   2.028
18934WAT      O57043   3.090   5.424   8.474
18934WAT     H157044   3.081   5.523   8.488
18934WAT     H257045   3.129   5.382   8.556
18935WAT      O57046   2.914   5.566   5.197
18935WAT     H157047   2.846   5.603   5.260
18935WAT     H257048   2.987   5.632   5.183
18936WAT      O57049   6.051   5.135   7.519
18936WAT     H157050   5.978   5.159   7.583
18936WAT     H257051   6.139   5.142   7.565
18937WAT      O57052   6.579   6.693   2.429
18937WAT     H157053   6.494   6.730   2.468
18937WAT     H257054   6.652   6.761   2.439
18938WAT      O57055   3.059   5.182   6.493
18938WAT     H157056   3.126   5.184   6.568
18938WAT     H257057   3.058   5.270   6.446
18939WAT      O57058   2.723   3.770   1.642
18939WAT     H157059   2.758   3.678   1.627
18939WAT     H257060   2.776   3.816   1.713
18940WAT      O57061   9.607   9.323   2.257
18940WAT     H157062   9.668   9.369   2.323
18940WAT     H257063   9.605   9.375   2.172
18941WAT      O57064   0.815   7.694   7.580
18941WAT     H157065   0.853   7.626   7.517
18941WAT     H257066   0.741   7.744   7.534
18942WAT      O57067   6.985   7.636   6.659
18942WAT     H157068   7.035   7.692   6.594
18942WAT     H257069   7.029   7.546   6.667
18943WAT      O57070   9.352   2.289   4.379
18943WAT     H157071   9.359   2.323   4.286
18943WAT     H257072   9.433   2.236   4.403
18944WAT      O57073   4.187   8.577   9.450
18944WAT     H157074   4.142   8.645   9.507
18944WAT     H257075   4.178   8.601   9.354
18945WAT      O57076   9.025   8.834   4.090
18945WAT     H157077   9.017   8.789   4.179
18945WAT     H257078   9.095   8.905   4.094
18946WAT      O57079   7.764   2.926   4.858
18946WAT     H157080   7.677   2.974   4.863
18946WAT     H257081   7.761   2.844   4.914
18947WAT      O57082   6.208   5.031   8.043
18947WAT     H157083   6.165   4.987   7.964
18947WAT     H257084   6.308   5.029   8.032
18948WAT      O57085   1.075   0.128   1.086
18948WAT     H157086   1.070   0.218   1.130
18948WAT     H257087   1.088   0.139   0.988
18949WAT      O57088   0.791   0.853   5.758
18949WAT     H157089   0.759   0.810   5.673
18949WAT     H257090   0.734   0.933   5.778
18950WAT      O57091   5.586   5.444   4.605
18950WAT     H157092   5.666   5.386   4.587
18950WAT     H257093   5.570   5.503   4.526
18951WAT      O57094   1.985   4.740   0.518
18951WAT     H157095   1.942   4.683   0.448
18951WAT     H257096   2.021   4.823   0.475
18952WAT      O57097   4.474   9.707   6.359
18952WAT     H157098   4.402   9.688   6.291
18952WAT     H257099   4.435   9.758   6.435
18953WAT      O57100   8.206   2.013   2.270
18953WAT     H157101   8.296   1.998   2.229
18953WAT     H257102   8.212   2.004   2.369
18954WAT      O57103   1.964   7.595   2.258
18954WAT     H157104   1.894   7.644   2.311
18954WAT     H257105   2.054   7.610   2.300
18955WAT      O57106   5.589   5.638   9.146
18955WAT     H157107   5.534   5.656   9.065
18955WAT     H257108   5.682   5.615   9.118
18956WAT      O57109   1.582   3.748   1.711
18956WAT     H157110   1.635   3.665   1.729
18956WAT     H257111   1.621   3.824   1.762
18957WAT      O57112   1.427   3.646   5.024
18957WAT     H157113   1.395   3.594   5.103
18957WAT     H257114   1.524   3.627   5.009
18958WAT      O57115   6.618   4.836   0.491
18958WAT     H157116   6.565   4.783   0.559
18958WAT     H257117   6.634   4.779   0.410
18959WAT      O57118   5.834   2.596   8.760
18959WAT     H157119   5.878   2.533   8.823
18959WAT     H257120   5.855   2.690   8.787
18960WAT      O57121   2.369   7.583   8.733
18960WAT     H157122   2.457   7.588   8.685
18960WAT     H257123   2.362   7.496   8.780
18961WAT      O57124   2.414   2.942   3.087
18961WAT     H157125   2.375   2.965   2.998
18961WAT     H257126   2.344   2.957   3.158
18962WAT      O57127   2.079   3.523   1.253
18962WAT     H157128   2.041   3.455   1.190
18962WAT     H257129   2.023   3.605   1.252
18963WAT      O57130   1.458   3.458   8.705
18963WAT     H157131   1.510   3.376   8.682
18963WAT     H257132   1.395   3.438   8.780
18964WAT      O57133   6.841   0.176   2.458
18964WAT     H157134   6.760   0.139   2.413
18964WAT     H257135   6.816   0.256   2.513
18965WAT      O57136   8.785   8.979   3.035
18965WAT     H157137   8.746   8.904   2.982
18965WAT     H257138   8.756   8.971   3.131
18966WAT      O57139   7.656   0.358   2.091
18966WAT     H157140   7.659   0.260   2.113
18966WAT     H257141   7.685   0.372   1.996
18967WAT      O57142   4.660   7.575   3.766
18967WAT     H157143   4.687   7.600   3.859
18967WAT     H257144   4.571   7.616   3.745
18968WAT      O57145   5.332   1.050   9.194
18968WAT     H157146   5.265   0.992   9.240
18968WAT     H257147   5.286   1.105   9.125
18969WAT      O57148   5.859   1.699   9.544
18969WAT     H157149   5.891   1.780   9.593
18969WAT     H257150   5.925   1.625   9.558
18970WAT      O57151   0.294   8.054   5.612
18970WAT     H157152   0.236   8.050   5.694
18970WAT     H257153   0.236   8.062   5.531
18971WAT      O57154   2.432   6.140   8.784
18971WAT     H157155   2.395   6.137   8.691
18971WAT     H257156   2.460   6.048   8.811
18972WAT      O57157   9.608   5.028   8.517
18972WAT     H157158   9.556   4.947   8.541
18972WAT     H257159   9.656   5.063   8.598
18973WAT      O57160   8.611   0.963   1.734
18973WAT     H157161   8.600   1.016   1.650
18973WAT     H257162   8.550   0.999   1.805
18974WAT      O57163   1.554   8.344   9.023
18974WAT     H157164   1.644   8.333   9.065
18974WAT     H257165   1.547   8.285   8.942
18975WAT      O57166   2.266   0.845   8.822
18975WAT     H157167   2.168   0.857   8.810
18975WAT     H257168   2.303   0.921   8.877
18976WAT      O57169   1.905   3.790   9.504
18976WAT     H157170   1.874   3.836   9.421
18976WAT     H257171   1.975   3.845   9.549
18977WAT      O57172   1.355   1.067   8.006
18977WAT     H157173   1.309   0.980   7.989
18977WAT     H257174   1.289   1.141   7.994
18978WAT      O57175   1.493   8.906   4.369
18978WAT     H157176   1.430   8.890   4.293
18978WAT     H257177   1.525   8.819   4.405
18979WAT      O57178   7.866   6.836   6.860
18979WAT     H157179   7.868   6.901   6.936
18979WAT     H257180   7.945   6.850   6.802
18980WAT      O57181   4.112   6.121   9.522
18980WAT     H157182   4.031   6.086   9.475
18980WAT     H257183   4.176   6.045   9.539
18981WAT      O57184   5.126   1.462   0.395
18981WAT     H157185   5.048   1.498   0.343
18981WAT     H257186   5.093   1.408   0.472
18982WAT      O57187   8.296   7.151   8.020
18982WAT     H157188   8.256   7.060   8.037
18982WAT     H257189   8.304   7.165   7.921
18983WAT      O57190   7.283   3.891   9.586
18983WAT     H157191   7.248   3.798   9.574
18983WAT     H257192   7.217   3.945   9.638
18984WAT      O57193   8.847   0.256   7.077
18984WAT     H157194   8.907   0.191   7.029
18984WAT     H257195   8.767   0.276   7.020
18985WAT      O57196   7.475   8.873   8.193
18985WAT     H157197   7.534   8.794   8.176
18985WAT     H257198   7.454   8.879   8.291
18986WAT      O57199   9.854   5.315   3.568
18986WAT     H157200   9.919   5.270   3.630
18986WAT     H257201   9.863   5.414   3.576
18987WAT      O57202   3.956   0.141   9.015
18987WAT     H157203   3.908   0.139   9.102
18987WAT     H257204   3.897   0.106   8.943
18988WAT      O57205   9.736   9.641   5.337
18988WAT     H157206   9.822   9.678   5.372
18988WAT     H257207   9.719   9.551   5.378
18989WAT      O57208   0.794   7.166   7.082
18989WAT     H157209   0.760   7.096   7.020
18989WAT     H257210   0.724   7.188   7.150
18990WAT      O57211   3.043   5.516   1.446
18990WAT     H157212   2.962   5.559   1.487
18990WAT     H257213   3.016   5.462   1.367
18991WAT      O57214   0.051   0.771   3.896
18991WAT     H157215   0.041   0.678   3.930
18991WAT     H257216   0.148   0.792   3.885
18992WAT      O57217   6.508   2.676   6.426
18992WAT     H157218   6.490   2.694   6.522
18992WAT     H257219   6.600   2.708   6.402
18993WAT      O57220   5.216   7.046   3.778
18993WAT     H157221   5.313   7.051   3.802
18993WAT     H257222   5.162   7.024   3.859
18994WAT      O57223   6.247   5.712   1.396
18994WAT     H157224   6.162   5.756   1.369
18994WAT     H257225   6.324   5.771   1.372
18995WAT      O57226   4.460   6.308   8.520
18995WAT     H157227   4.375   6.353   8.492
18995WAT     H257228   4.451   6.273   8.613
18996WAT      O57229   2.153   4.084   3.685
18996WAT     H157230   2.242   4.039   3.689
18996WAT     H257231   2.107   4.073   3.773
18997WAT      O57232   3.815   5.941   7.152
18997WAT     H157233   3.716   5.947   7.141
18997WAT     H257234   3.844   5.847   7.137
18998WAT      O57235   9.263   4.908   5.342
18998WAT     H157236   9.306   4.949   5.422
18998WAT     H257237   9.274   4.968   5.263
18999WAT      O57238   6.136   3.622   0.359
18999WAT     H157239   6.080   3.655   0.436
18999WAT     H257240   6.164   3.528   0.377
19000WAT      O57241   1.624   6.100   2.869
19000WAT     H157242   1.568   6.180   2.848
19000WAT     H257243   1.721   6.126   2.866
19001WAT      O57244   1.393   0.645   6.988
19001WAT     H157245   1.449   0.652   7.071
19001WAT     H257246   1.389   0.549   6.959
19002WAT      O57247   5.015   2.104   9.735
19002WAT     H157248   5.043   2.081   9.642
19002WAT     H257249   4.921   2.136   9.734
19003WAT      O57250   5.613   3.661   6.176
19003WAT     H157251   5.675   3.583   6.173
19003WAT     H257252   5.519   3.628   6.187
19004WAT      O57253   5.243   4.730   5.125
19004WAT     H157254   5.186   4.795   5.174
19004WAT     H257255   5.339   4.746   5.148
19005WAT      O57256   7.004   3.048   4.073
19005WAT     H157257   6.962   3.103   4.145
19005WAT     H257258   6.940   3.037   3.998
19006WAT      O57259   0.586   6.389   7.284
19006WAT     H157260   0.489   6.366   7.287
19006WAT     H257261   0.637   6.328   7.345
19007WAT      O57262   3.263   2.737   7.172
19007WAT     H157263   3.325   2.665   7.138
19007WAT     H257264   3.238   2.716   7.267
19008WAT      O57265   7.732   6.526   1.667
19008WAT     H157266   7.673   6.601   1.697
19008WAT     H257267   7.819   6.530   1.717
19009WAT      O57268   6.920   3.556   9.426
19009WAT     H157269   6.878   3.580   9.338
19009WAT     H257270   6.939   3.458   9.428
19010WAT      O57271   6.365   9.691   7.491
19010WAT     H157272   6.448   9.637   7.483
19010WAT     H257273   6.378   9.779   7.445
19011WAT      O57274   9.644   3.954   7.316
19011WAT     H157275   9.694   4.018   7.374
19011WAT     H257276   9.623   3.871   7.369
19012WAT      O57277   8.037   7.083   4.479
19012WAT     H157278   8.060   6.995   4.438
19012WAT     H257279   7.987   7.068   4.564
19013WAT      O57280   2.652   1.936   5.266
19013WAT     H157281   2.743   1.924   5.226
19013WAT     H257282   2.592   1.862   5.235
19014WAT      O57283   1.795   7.584   4.015
19014WAT     H157284   1.708   7.601   3.968
19014WAT     H257285   1.800   7.488   4.044
19015WAT      O57286   0.790   6.025   3.184
19015WAT     H157287   0.696   5.996   3.200
19015WAT     H257288   0.815   6.006   3.089
19016WAT      O57289   0.907   1.508   6.813
19016WAT     H157290   0.887   1.420   6.769
19016WAT     H257291   0.895   1.582   6.747
19017WAT      O57292   9.558   4.493   4.786
19017WAT     H157293   9.475   4.547   4.795
19017WAT     H257294   9.628   4.548   4.740
19018WAT      O57295   7.411   3.923   5.634
19018WAT     H157296   7.510   3.937   5.627
19018WAT     H257297   7.367   3.955   5.550
19019WAT      O57298   9.287   8.777   6.749
19019WAT     H157299   9.372   8.828   6.761
19019WAT     H257300   9.275   8.715   6.826
19020WAT      O57301   9.159   6.390   5.612
19020WAT     H157302   9.127   6.463   5.551
19020WAT     H257303   9.114   6.304   5.588
19021WAT      O57304   4.857   1.351   4.821
19021WAT     H157305   4.808   1.294   4.887
19021WAT     H257306   4.804   1.433   4.801
19022WAT      O57307   4.121   4.891   0.354
19022WAT     H157308   4.067   4.819   0.310
19022WAT     H257309   4.070   4.927   0.432
19023WAT      O57310   0.689   3.937   6.184
19023WAT     H157311   0.721   3.855   6.232
19023WAT     H257312   0.591   3.928   6.166
19024WAT      O57313   4.451   7.266   7.385
19024WAT     H157314   4.458   7.307   7.293
19024WAT     H257315   4.536   7.283   7.435
19025WAT      O57316   7.526   7.425   6.920
19025WAT     H157317   7.478   7.369   6.852
19025WAT     H257318   7.463   7.448   6.994
19026WAT      O57319   4.768   5.184   2.937
19026WAT     H157320   4.730   5.119   2.872
19026WAT     H257321   4.846   5.232   2.895
19027WAT      O57322   0.773   9.017   9.389
19027WAT     H157323   0.731   8.970   9.466
19027WAT     H257324   0.777   9.115   9.407
19028WAT      O57325   6.905   9.300   8.059
19028WAT     H157326   6.859   9.212   8.073
19028WAT     H257327   6.937   9.334   8.147
19029WAT      O57328   8.498   7.466   5.211
19029WAT     H157329   8.452   7.548   5.176
19029WAT     H257330   8.596   7.481   5.210
19030WAT      O57331   2.689   7.615   8.817
19030WAT     H157332   2.625   7.661   8.878
19030WAT     H257333   2.658   7.521   8.801
19031WAT      O57334   8.487   8.457   1.163
19031WAT     H157335   8.586   8.462   1.149
19031WAT     H257336   8.446   8.399   1.093
19032WAT      O57337   2.268   3.951   1.514
19032WAT     H157338   2.315   3.903   1.588
19032WAT     H257339   2.184   3.993   1.549
19033WAT      O57340   3.789   5.378   8.651
19033WAT     H157341   3.772   5.279   8.651
19033WAT     H257342   3.885   5.396   8.630
19034WAT      O57343   1.707   2.237   9.407
19034WAT     H157344   1.699   2.159   9.345
19034WAT     H257345   1.646   2.223   9.485
19035WAT      O57346   3.481   7.202   2.371
19035WAT     H157347   3.416   7.130   2.346
19035WAT     H257348   3.495   7.262   2.292
19036WAT      O57349   6.907   1.674   6.254
19036WAT     H157350   6.913   1.755   6.195
19036WAT     H257351   6.889   1.593   6.198
19037WAT      O57352   2.553   6.302   7.952
19037WAT     H157353   2.631   6.251   7.914
19037WAT     H257354   2.478   6.301   7.886
19038WAT      O57355   6.413   2.424   6.389
19038WAT     H157356   6.319   2.422   6.355
19038WAT     H257357   6.452   2.516   6.376
19039WAT      O57358   0.377   0.665   1.213
19039WAT     H157359   0.456   0.726   1.227
19039WAT     H257360   0.396   0.576   1.255
19040WAT      O57361   8.573   7.781   4.813
19040WAT     H157362   8.558   7.790   4.714
19040WAT     H257363   8.631   7.701   4.830
19041WAT      O57364   5.688   3.674   9.894
19041WAT     H157365   5.701   3.585   9.851
19041WAT     H257366   5.657   3.740   9.826
19042WAT      O57367   6.485   1.254   1.732
19042WAT     H157368   6.564   1.214   1.778
19042WAT     H257369   6.515   1.299   1.648
19043WAT      O57370   9.210   2.263   7.391
19043WAT     H157371   9.232   2.199   7.464
19043WAT     H257372   9.114   2.288   7.395
19044WAT      O57373   8.898   5.063   6.757
19044WAT     H157374   8.982   5.042   6.707
19044WAT     H257375   8.887   4.999   6.832
19045WAT      O57376   8.333   2.807   5.110
19045WAT     H157377   8.274   2.727   5.114
19045WAT     H257378   8.394   2.808   5.189
19046WAT      O57379   2.942   6.887   7.679
19046WAT     H157380   3.008   6.867   7.606
19046WAT     H257381   2.857   6.839   7.661
19047WAT      O57382   0.338   6.852   1.852
19047WAT     H157383   0.365   6.948   1.859
19047WAT     H257384   0.412   6.794   1.884
19048WAT      O57385   4.148   8.956   3.149
19048WAT     H157386   4.099   8.925   3.231
19048WAT     H257387   4.201   8.881   3.110
19049WAT      O57388   0.221   0.286   4.226
19049WAT     H157389   0.242   0.372   4.180
19049WAT     H257390   0.209   0.214   4.157
19050WAT      O57391   2.776   7.662   2.712
19050WAT     H157392   2.875   7.646   2.715
19050WAT     H257393   2.728   7.587   2.757
19051WAT      O57394   7.473   5.917   5.436
19051WAT     H157395   7.449   6.009   5.466
19051WAT     H257396   7.392   5.858   5.442
19052WAT      O57397   1.272   3.317   6.483
19052WAT     H157398   1.205   3.385   6.512
19052WAT     H257399   1.355   3.362   6.453
19053WAT      O57400   4.248   0.131   8.957
19053WAT     H157401   4.308   0.210   8.945
19053WAT     H257402   4.154   0.158   8.936
19054WAT      O57403   1.117   7.655   9.470
19054WAT     H157404   1.204   7.674   9.424
19054WAT     H257405   1.045   7.709   9.427
19055WAT      O57406   1.846   7.705   3.295
19055WAT     H157407   1.899   7.775   3.343
19055WAT     H257408   1.831   7.627   3.356
19056WAT      O57409   6.433   7.528   3.365
19056WAT     H157410   6.436   7.584   3.448
19056WAT     H257411   6.340   7.528   3.329
19057WAT      O57412   2.077   5.577   1.644
19057WAT     H157413   2.035   5.552   1.557
19057WAT     H257414   2.034   5.661   1.678
19058WAT      O57415   5.594   4.548   0.352
19058WAT     H157416   5.619   4.455   0.381
19058WAT     H257417   5.549   4.595   0.428
19059WAT      O57418   5.366   2.743   2.626
19059WAT     H157419   5.436   2.720   2.694
19059WAT     H257420   5.297   2.671   2.624
19060WAT      O57421   3.004   3.373   6.918
19060WAT     H157422   3.046   3.311   6.851
19060WAT     H257423   2.967   3.453   6.871
19061WAT      O57424   3.461   9.277   4.300
19061WAT     H157425   3.558   9.293   4.282
19061WAT     H257426   3.428   9.199   4.247
19062WAT      O57427   6.591   2.341   2.181
19062WAT     H157428   6.517   2.399   2.213
19062WAT     H257429   6.563   2.293   2.098
19063WAT      O57430   3.244   8.444   2.394
19063WAT     H157431   3.240   8.425   2.296
19063WAT     H257432   3.164   8.406   2.439
19064WAT      O57433   9.449   6.656   6.760
19064WAT     H157434   9.420   6.662   6.665
19064WAT     H257435   9.463   6.561   6.786
19065WAT      O57436   5.575   9.507   4.534
19065WAT     H157437   5.673   9.493   4.547
19065WAT     H257438   5.548   9.475   4.444
19066WAT      O57439   9.071   4.586   4.778
19066WAT     H157440   9.009   4.515   4.812
19066WAT     H257441   9.033   4.626   4.695
19067WAT      O57442   3.624   4.146   8.035
19067WAT     H157443   3.684   4.207   8.087
19067WAT     H257444   3.647   4.153   7.937
19068WAT      O57445   2.039   9.379   8.188
19068WAT     H157446   2.051   9.464   8.137
19068WAT     H257447   2.121   9.359   8.241
19069WAT      O57448   3.948   5.845   5.054
19069WAT     H157449   3.852   5.857   5.077
19069WAT     H257450   3.971   5.748   5.053
19070WAT      O57451   1.849   5.028   1.228
19070WAT     H157452   1.779   4.985   1.286
19070WAT     H257453   1.864   5.122   1.259
19071WAT      O57454   0.178   9.066   0.715
19071WAT     H157455   0.170   9.152   0.663
19071WAT     H257456   0.107   9.063   0.785
19072WAT      O57457   2.506   4.001   5.570
19072WAT     H157458   2.586   4.053   5.539
19072WAT     H257459   2.469   4.045   5.652
19073WAT      O57460   7.060   8.257   6.188
19073WAT     H157461   7.028   8.219   6.102
19073WAT     H257462   7.083   8.183   6.251
19074WAT      O57463   1.172   3.751   6.592
19074WAT     H157464   1.246   3.786   6.534
19074WAT     H257465   1.208   3.684   6.656
19075WAT      O57466   4.296   3.756   6.351
19075WAT     H157467   4.299   3.780   6.254
19075WAT     H257468   4.374   3.799   6.398
19076WAT      O57469   2.369   5.395   3.395
19076WAT     H157470   2.271   5.411   3.381
19076WAT     H257471   2.422   5.458   3.339
19077WAT      O57472   6.489   0.061   5.352
19077WAT     H157473   6.404   0.008   5.349
19077WAT     H257474   6.467   0.157   5.371
19078WAT      O57475   0.623   2.965   1.107
19078WAT     H157476   0.578   2.971   1.197
19078WAT     H257477   0.722   2.961   1.120
19079WAT      O57478   0.007   0.239   9.168
19079WAT     H157479   0.053   0.297   9.100
19079WAT     H257480   0.069   0.165   9.195
19080WAT      O57481   8.242   6.756   2.749
19080WAT     H157482   8.315   6.766   2.682
19080WAT     H257483   8.181   6.836   2.744
19081WAT      O57484   9.698   2.467   3.750
19081WAT     H157485   9.605   2.487   3.782
19081WAT     H257486   9.697   2.451   3.652
19082WAT      O57487   6.043   3.684   3.073
19082WAT     H157488   6.105   3.606   3.082
19082WAT     H257489   6.068   3.754   3.139
19083WAT      O57490   6.309   0.339   4.281
19083WAT     H157491   6.272   0.311   4.192
19083WAT     H257492   6.408   0.353   4.273
19084WAT      O57493   7.295   2.488   8.535
19084WAT     H157494   7.215   2.520   8.585
19084WAT     H257495   7.373   2.481   8.597
19085WAT      O57496   8.329   6.081   7.761
19085WAT     H157497   8.282   6.139   7.828
19085WAT     H257498   8.318   6.119   7.670
19086WAT      O57499   4.267   1.911   9.004
19086WAT     H157500   4.204   1.887   8.931
19086WAT     H257501   4.284   1.831   9.062
19087WAT      O57502   6.595   0.096   2.394
19087WAT     H157503   6.538   0.015   2.378
19087WAT     H257504   6.546   0.178   2.364
19088WAT      O57505   2.052   2.903   0.050
19088WAT     H157506   2.044   3.001   0.070
19088WAT     H257507   2.115   2.889  -0.026
19089WAT      O57508   2.570   8.296   1.988
19089WAT     H157509   2.632   8.295   2.067
19089WAT     H257510   2.603   8.362   1.921
19090WAT      O57511   0.546   4.265   2.099
19090WAT     H157512   0.515   4.208   2.175
19090WAT     H257513   0.476   4.268   2.028
19091WAT      O57514   3.828   0.674   6.070
19091WAT     H157515   3.870   0.733   6.002
19091WAT     H257516   3.729   0.685   6.068
19092WAT      O57517   0.507   2.823   7.230
19092WAT     H157518   0.532   2.913   7.266
19092WAT     H257519   0.422   2.792   7.275
19093WAT      O57520   9.648   3.727   5.753
19093WAT     H157521   9.691   3.793   5.691
19093WAT     H257522   9.614   3.774   5.834
19094WAT      O57523   0.160   2.771   1.629
19094WAT     H157524   0.065   2.793   1.650
19094WAT     H257525   0.219   2.804   1.703
19095WAT      O57526   7.790   1.731   8.913
19095WAT     H157527   7.824   1.675   8.989
19095WAT     H257528   7.867   1.761   8.856
19096WAT      O57529   1.319   4.380   8.826
19096WAT     H157530   1.243   4.347   8.769
19096WAT     H257531   1.323   4.480   8.821
19097WAT      O57532   9.186   8.771   0.239
19097WAT     H157533   9.150   8.820   0.318
19097WAT     H257534   9.281   8.797   0.224
19098WAT      O57535   6.390   5.558   3.594
19098WAT     H157536   6.443   5.640   3.573
19098WAT     H257537   6.442   5.477   3.568
19099WAT      O57538   2.115   5.406   2.562
19099WAT     H157539   2.031   5.445   2.524
19099WAT     H257540   2.102   5.309   2.582
19100WAT      O57541  -0.001   6.090   8.512
19100WAT     H157542   0.086   6.040   8.508
19100WAT     H257543   0.007   6.175   8.461
19101WAT      O57544   4.977   8.823   0.037
19101WAT     H157545   5.040   8.748   0.017
19101WAT     H257546   4.938   8.810   0.128
19102WAT      O57547   0.793   8.932   9.764
19102WAT     H157548   0.887   8.902   9.779
19102WAT     H257549   0.794   9.027   9.732
19103WAT      O57550   4.690   1.342   7.098
19103WAT     H157551   4.704   1.258   7.045
19103WAT     H257552   4.625   1.401   7.051
19104WAT      O57553   2.158   0.338   6.547
19104WAT     H157554   2.098   0.393   6.605
19104WAT     H257555   2.191   0.394   6.470
19105WAT      O57556   1.434   7.281   2.920
19105WAT     H157557   1.425   7.357   2.984
19105WAT     H257558   1.472   7.313   2.834
19106WAT      O57559   2.401   5.826   6.295
19106WAT     H157560   2.340   5.771   6.239
19106WAT     H257561   2.475   5.769   6.329
19107WAT      O57562   8.562   6.353   4.060
19107WAT     H157563   8.655   6.382   4.036
19107WAT     H257564   8.511   6.432   4.094
19108WAT      O57565   2.362   7.467   9.634
19108WAT     H157566   2.432   7.461   9.705
19108WAT     H257567   2.362   7.559   9.595
19109WAT      O57568   4.369   4.830   4.442
19109WAT     H157569   4.293   4.876   4.397
19109WAT     H257570   4.335   4.753   4.495
19110WAT      O57571   2.079   2.148   6.007
19110WAT     H157572   2.114   2.214   5.940
19110WAT     H257573   2.146   2.074   6.019
19111WAT      O57574   5.859   3.688   0.780
19111WAT     H157575   5.870   3.677   0.879
19111WAT     H257576   5.762   3.677   0.757
19112WAT      O57577   4.972   7.283   8.389
19112WAT     H157578   4.884   7.288   8.438
19112WAT     H257579   5.041   7.333   8.441
19113WAT      O57580   1.984   3.883   8.518
19113WAT     H157581   1.950   3.908   8.427
19113WAT     H257582   1.956   3.790   8.540
19114WAT      O57583   4.579   1.096   8.040
19114WAT     H157584   4.573   1.025   7.970
19114WAT     H257585   4.574   1.186   7.997
19115WAT      O57586   7.602   4.313   1.422
19115WAT     H157587   7.626   4.360   1.337
19115WAT     H257588   7.557   4.226   1.400
19116WAT      O57589   8.846   9.325   7.955
19116WAT     H157590   8.850   9.241   8.009
19116WAT     H257591   8.856   9.404   8.015
19117WAT      O57592   9.870   0.542   7.501
19117WAT     H157593   9.926   0.605   7.555
19117WAT     H257594   9.781   0.584   7.483
19118WAT      O57595   7.634   3.070   2.622
19118WAT     H157596   7.574   3.081   2.543
19118WAT     H257597   7.688   3.153   2.635
19119WAT      O57598   3.383   9.256   5.451
19119WAT     H157599   3.413   9.161   5.449
19119WAT     H257600   3.436   9.308   5.384
19120WAT      O57601   9.798   1.542   3.007
19120WAT     H157602   9.788   1.509   2.913
19120WAT     H257603   9.810   1.642   3.005
19121WAT      O57604   2.685   0.647   0.778
19121WAT     H157605   2.672   0.550   0.798
19121WAT     H257606   2.619   0.677   0.709
19122WAT      O57607   6.614   3.014   8.747
19122WAT     H157608   6.659   3.058   8.670
19122WAT     H257609   6.672   3.020   8.828
19123WAT      O57610   2.212   8.301   5.986
19123WAT     H157611   2.135   8.280   6.047
19123WAT     H257612   2.210   8.238   5.909
19124WAT      O57613   1.305   2.030   6.029
19124WAT     H157614   1.388   1.984   6.058
19124WAT     H257615   1.293   2.019   5.930
19125WAT      O57616   5.216   1.152   2.136
19125WAT     H157617   5.296   1.134   2.192
19125WAT     H257618   5.170   1.235   2.168
19126WAT      O57619   5.998   9.323   7.584
19126WAT     H157620   6.036   9.231   7.575
19126WAT     H257621   6.063   9.389   7.547
19127WAT      O57622   9.711   3.208   9.606
19127WAT     H157623   9.696   3.231   9.702
19127WAT     H257624   9.808   3.189   9.592
19128WAT      O57625   9.480   1.771   6.333
19128WAT     H157626   9.475   1.865   6.368
19128WAT     H257627   9.423   1.763   6.251
19129WAT      O57628   0.275   2.054   4.599
19129WAT     H157629   0.259   2.071   4.696
19129WAT     H257630   0.336   1.975   4.588
19130WAT      O57631   7.264   8.685   5.385
19130WAT     H157632   7.270   8.663   5.287
19130WAT     H257633   7.284   8.603   5.438
19131WAT      O57634   0.138   7.313   6.769
19131WAT     H157635   0.069   7.365   6.718
19131WAT     H257636   0.227   7.324   6.725
19132WAT      O57637   7.790   9.468   1.748
19132WAT     H157638   7.841   9.437   1.667
19132WAT     H257639   7.695   9.436   1.742
19133WAT      O57640   3.122   7.298   8.668
19133WAT     H157641   3.114   7.308   8.569
19133WAT     H257642   3.148   7.385   8.709
19134WAT      O57643   7.955   1.647   5.188
19134WAT     H157644   8.003   1.608   5.267
19134WAT     H257645   7.887   1.582   5.155
19135WAT      O57646   9.249   9.203   9.139
19135WAT     H157647   9.180   9.270   9.110
19135WAT     H257648   9.222   9.166   9.228
19136WAT      O57649   0.363   1.069   2.106
19136WAT     H157650   0.363   0.982   2.155
19136WAT     H257651   0.451   1.080   2.059
19137WAT      O57652   8.108   9.240   5.773
19137WAT     H157653   8.106   9.308   5.847
19137WAT     H257654   8.190   9.255   5.717
19138WAT      O57655   3.286   8.336   9.149
19138WAT     H157656   3.360   8.330   9.215
19138WAT     H257657   3.206   8.379   9.192
19139WAT      O57658   5.273   7.519   9.766
19139WAT     H157659   5.179   7.496   9.741
19139WAT     H257660   5.274   7.571   9.852
19140WAT      O57661   2.784   4.383   8.057
19140WAT     H157662   2.763   4.288   8.035
19140WAT     H257663   2.879   4.402   8.032
19141WAT      O57664   4.486   7.456   3.228
19141WAT     H157665   4.408   7.481   3.285
19141WAT     H257666   4.510   7.534   3.169
19142WAT      O57667   4.278   5.315   1.068
19142WAT     H157668   4.270   5.256   1.149
19142WAT     H257669   4.229   5.273   0.992
19143WAT      O57670   8.351   5.693   4.362
19143WAT     H157671   8.329   5.762   4.431
19143WAT     H257672   8.284   5.696   4.289
19144WAT      O57673   3.398   0.572   5.424
19144WAT     H157674   3.313   0.536   5.387
19144WAT     H257675   3.467   0.499   5.428
19145WAT      O57676   5.246   2.511   8.137
19145WAT     H157677   5.230   2.608   8.158
19145WAT     H257678   5.159   2.461   8.141
19146WAT      O57679   4.944   0.003   3.573
19146WAT     H157680   4.874  -0.068   3.571
19146WAT     H257681   4.968   0.023   3.668
19147WAT      O57682   2.998   5.187   9.874
19147WAT     H157683   2.903   5.200   9.845
19147WAT     H257684   3.009   5.095   9.912
19148WAT      O57685   9.363   3.536   6.420
19148WAT     H157686   9.323   3.445   6.431
19148WAT     H257687   9.455   3.538   6.460
19149WAT      O57688   4.434   2.126   8.170
19149WAT     H157689   4.342   2.141   8.205
19149WAT     H257690   4.429   2.075   8.084
19150WAT      O57691   1.640   3.512   4.615
19150WAT     H157692   1.702   3.442   4.580
19150WAT     H257693   1.612   3.572   4.541
19151WAT      O57694   4.241   6.777   3.462
19151WAT     H157695   4.160   6.824   3.496
19151WAT     H257696   4.264   6.702   3.524
19152WAT      O57697   3.476   7.483   3.055
19152WAT     H157698   3.397   7.491   3.116
19152WAT     H257699   3.538   7.560   3.071
19153WAT      O57700   8.588   5.226   5.748
19153WAT     H157701   8.539   5.295   5.801
19153WAT     H257702   8.672   5.266   5.710
19154WAT      O57703   7.548   5.161   4.033
19154WAT     H157704   7.634   5.135   4.077
19154WAT     H257705   7.518   5.088   3.971
19155WAT      O57706   1.935   2.377   4.914
19155WAT     H157707   1.876   2.414   4.842
19155WAT     H257708   2.015   2.435   4.925
19156WAT      O57709   0.805   5.867   9.790
19156WAT     H157710   0.826   5.889   9.886
19156WAT     H257711   0.757   5.779   9.786
19157WAT      O57712   2.833   2.803   8.630
19157WAT     H157713   2.900   2.830   8.561
19157WAT     H257714   2.864   2.721   8.676
19158WAT      O57715   1.295   2.095   0.199
19158WAT     H157716   1.284   2.144   0.286
19158WAT     H257717   1.390   2.103   0.168
19159WAT      O57718   1.071   6.041   5.177
19159WAT     H157719   1.015   6.034   5.260
19159WAT     H257720   1.036   6.116   5.120
19160WAT      O57721   5.882   5.269   2.136
19160WAT     H157722   5.959   5.207   2.147
19160WAT     H257723   5.797   5.221   2.156
19161WAT      O57724   0.795   3.282   4.791
19161WAT     H157725   0.779   3.195   4.745
19161WAT     H257726   0.893   3.303   4.790
19162WAT      O57727   5.553   0.810   1.345
19162WAT     H157728   5.579   0.888   1.403
19162WAT     H257729   5.604   0.729   1.373
19163WAT      O57730   0.340   4.281   1.928
19163WAT     H157731   0.386   4.369   1.916
19163WAT     H257732   0.241   4.294   1.922
19164WAT      O57733   5.863   4.173   0.991
19164WAT     H157734   5.861   4.262   1.037
19164WAT     H257735   5.901   4.105   1.053
19165WAT      O57736   2.835   1.338   9.504
19165WAT     H157737   2.775   1.266   9.539
19165WAT     H257738   2.891   1.302   9.429
19166WAT      O57739   1.875   2.789   5.018
19166WAT     H157740   1.936   2.755   4.947
19166WAT     H257741   1.913   2.768   5.108
19167WAT      O57742   0.409   8.044   0.855
19167WAT     H157743   0.434   8.022   0.949
19167WAT     H257744   0.332   8.108   0.856
19168WAT      O57745   4.936   0.094   7.334
19168WAT     H157746   4.965   0.125   7.424
19168WAT     H257747   4.843   0.056   7.339
19169WAT      O57748   3.190   8.856   2.690
19169WAT     H157749   3.113   8.809   2.735
19169WAT     H257750   3.172   8.862   2.592
19170WAT      O57751   3.482   8.581   0.601
19170WAT     H157752   3.384   8.567   0.612
19170WAT     H257753   3.508   8.567   0.505
19171WAT      O57754   5.471   7.264   1.291
19171WAT     H157755   5.535   7.297   1.360
19171WAT     H257756   5.391   7.223   1.335
19172WAT      O57757   6.758   5.797   5.100
19172WAT     H157758   6.752   5.795   5.000
19172WAT     H257759   6.732   5.707   5.136
19173WAT      O57760   9.569   5.478   0.421
19173WAT     H157761   9.522   5.543   0.360
19173WAT     H257762   9.551   5.503   0.516
19174WAT      O57763   9.706   2.053   1.498
19174WAT     H157764   9.653   2.097   1.425
19174WAT     H257765   9.764   2.122   1.542
19175WAT      O57766   8.075   8.163   1.824
19175WAT     H157767   8.175   8.165   1.837
19175WAT     H257768   8.053   8.092   1.758
19176WAT      O57769   6.117   9.779   5.455
19176WAT     H157770   6.073   9.710   5.398
19176WAT     H257771   6.157   9.735   5.536
19177WAT      O57772   3.729   8.496   5.777
19177WAT     H157773   3.722   8.418   5.714
19177WAT     H257774   3.765   8.464   5.865
19178WAT      O57775   4.911   7.751   9.061
19178WAT     H157776   4.931   7.660   9.100
19178WAT     H257777   4.813   7.764   9.056
19179WAT      O57778   0.328   3.681   9.520
19179WAT     H157779   0.337   3.642   9.611
19179WAT     H257780   0.274   3.765   9.525
19180WAT      O57781   3.203   2.977   7.056
19180WAT     H157782   3.202   2.888   7.100
19180WAT     H257783   3.292   3.020   7.071
19181WAT      O57784   7.961   5.392   2.398
19181WAT     H157785   7.961   5.422   2.303
19181WAT     H257786   8.034   5.438   2.448
19182WAT      O57787   3.873   9.791   5.596
19182WAT     H157788   3.826   9.873   5.629
19182WAT     H257789   3.824   9.755   5.516
19183WAT      O57790   7.080   5.960   6.794
19183WAT     H157791   7.087   6.048   6.841
19183WAT     H257792   7.172   5.925   6.777
19184WAT      O57793   5.330   1.642   7.186
19184WAT     H157794   5.331   1.689   7.275
19184WAT     H257795   5.262   1.684   7.127
19185WAT      O57796   4.526   0.112   0.949
19185WAT     H157797   4.606   0.080   0.897
19185WAT     H257798   4.484   0.034   0.996
19186WAT      O57799   1.939   4.378   0.254
19186WAT     H157800   1.906   4.472   0.248
19186WAT     H257801   1.868   4.321   0.295
19187WAT      O57802   2.596   6.340   8.220
19187WAT     H157803   2.563   6.338   8.125
19187WAT     H257804   2.690   6.374   8.222
19188WAT      O57805   6.127   2.836   1.060
19188WAT     H157806   6.173   2.751   1.087
19188WAT     H257807   6.111   2.836   0.961
19189WAT      O57808   1.271   7.561   9.208
19189WAT     H157809   1.174   7.540   9.206
19189WAT     H257810   1.319   7.493   9.264
19190WAT      O57811   1.231   0.243   2.647
19190WAT     H157812   1.212   0.207   2.738
19190WAT     H257813   1.150   0.233   2.589
19191WAT      O57814   5.809   5.632   3.737
19191WAT     H157815   5.819   5.566   3.812
19191WAT     H257816   5.800   5.724   3.775
19192WAT      O57817   1.733   2.456   8.862
19192WAT     H157818   1.713   2.525   8.931
19192WAT     H257819   1.831   2.436   8.861
19193WAT      O57820   5.035   7.937   2.685
19193WAT     H157821   4.958   7.877   2.665
19193WAT     H257822   5.117   7.901   2.641
19194WAT      O57823   5.713   6.993   9.011
19194WAT     H157824   5.620   6.957   9.018
19194WAT     H257825   5.757   6.956   8.930
19195WAT      O57826   6.374   7.762   6.361
19195WAT     H157827   6.279   7.792   6.366
19195WAT     H257828   6.423   7.789   6.444
19196WAT      O57829   0.918   3.183   2.682
19196WAT     H157830   0.862   3.250   2.730
19196WAT     H257831   0.925   3.208   2.585
19197WAT      O57832   3.921   8.925   8.816
19197WAT     H157833   3.909   8.841   8.762
19197WAT     H257834   3.970   8.993   8.762
19198WAT      O57835   9.891   2.281   4.225
19198WAT     H157836   9.862   2.255   4.133
19198WAT     H257837   9.830   2.352   4.261
19199WAT      O57838   1.167   3.560   8.524
19199WAT     H157839   1.076   3.602   8.520
19199WAT     H257840   1.218   3.599   8.600
19200WAT      O57841   1.136   8.498   0.072
19200WAT     H157842   1.195   8.579   0.077
19200WAT     H257843   1.105   8.473   0.164
19201WAT      O57844   8.415   0.531   9.229
19201WAT     H157845   8.477   0.459   9.261
19201WAT     H257846   8.348   0.491   9.166
19202WAT      O57847   9.220   7.459   5.633
19202WAT     H157848   9.183   7.453   5.540
19202WAT     H257849   9.297   7.523   5.634
19203WAT      O57850   2.484   4.498   1.122
19203WAT     H157851   2.512   4.587   1.158
19203WAT     H257852   2.414   4.511   1.052
19204WAT      O57853   9.043   9.237   1.594
19204WAT     H157854   9.008   9.265   1.684
19204WAT     H257855   8.981   9.170   1.553
19205WAT      O57856   6.024   3.428   9.890
19205WAT     H157857   5.992   3.365   9.960
19205WAT     H257858   5.946   3.460   9.836
19206WAT      O57859   8.957   5.658   2.308
19206WAT     H157860   9.016   5.739   2.298
19206WAT     H257861   8.870   5.675   2.262
19207WAT      O57862   9.230   1.295   1.632
19207WAT     H157863   9.326   1.321   1.634
19207WAT     H257864   9.191   1.303   1.724
19208WAT      O57865   9.879   5.969   4.708
19208WAT     H157866   9.872   6.029   4.628
19208WAT     H257867   9.952   6.004   4.768
19209WAT      O57868   2.076   4.316   8.123
19209WAT     H157869   2.169   4.353   8.121
19209WAT     H257870   2.013   4.380   8.077
19210WAT      O57871   4.885   1.410   5.380
19210WAT     H157872   4.803   1.442   5.427
19210WAT     H257873   4.865   1.399   5.282
19211WAT      O57874   7.457   6.319   6.665
19211WAT     H157875   7.380   6.276   6.618
19211WAT     H257876   7.449   6.305   6.764
19212WAT      O57877   0.554   4.698   0.241
19212WAT     H157878   0.591   4.605   0.239
19212WAT     H257879   0.609   4.754   0.304
19213WAT      O57880   3.823   8.918   3.144
19213WAT     H157881   3.734   8.873   3.141
19213WAT     H257882   3.885   8.873   3.080
19214WAT      O57883   2.793   4.705   8.837
19214WAT     H157884   2.809   4.635   8.767
19214WAT     H257885   2.710   4.683   8.888
19215WAT      O57886   3.808   3.748   8.452
19215WAT     H157887   3.799   3.754   8.353
19215WAT     H257888   3.721   3.718   8.492
19216WAT      O57889   3.734   5.011   0.639
19216WAT     H157890   3.804   5.015   0.567
19216WAT     H257891   3.669   5.086   0.627
19217WAT      O57892   3.558   0.005   9.320
19217WAT     H157893   3.522  -0.070   9.376
19217WAT     H257894   3.483   0.053   9.276
19218WAT      O57895   1.968   8.928   5.626
19218WAT     H157896   2.052   8.947   5.575
19218WAT     H257897   1.991   8.887   5.714
19219WAT      O57898   1.892   5.306   9.432
19219WAT     H157899   1.862   5.361   9.354
19219WAT     H257900   1.897   5.365   9.513
19220WAT      O57901   0.777   4.209   3.489
19220WAT     H157902   0.701   4.201   3.553
19220WAT     H257903   0.852   4.151   3.519
19221WAT      O57904   0.132   2.465   7.980
19221WAT     H157905   0.195   2.463   7.902
19221WAT     H257906   0.038   2.474   7.947
19222WAT      O57907   8.236   0.530   0.826
19222WAT     H157908   8.226   0.629   0.823
19222WAT     H257909   8.311   0.506   0.887
19223WAT      O57910   9.559   3.204   5.634
19223WAT     H157911   9.553   3.303   5.644
19223WAT     H257912   9.495   3.174   5.564
19224WAT      O57913   2.989   2.826   6.861
19224WAT     H157914   3.041   2.880   6.927
19224WAT     H257915   2.998   2.729   6.883
19225WAT      O57916   2.997   7.397   6.261
19225WAT     H157917   2.961   7.308   6.288
19225WAT     H257918   3.005   7.456   6.342
19226WAT      O57919   1.282   6.559   1.790
19226WAT     H157920   1.200   6.596   1.835
19226WAT     H257921   1.254   6.496   1.718
19227WAT      O57922   1.863   9.405   9.443
19227WAT     H157923   1.776   9.387   9.488
19227WAT     H257924   1.885   9.330   9.381
19228WAT      O57925   4.826   6.311   7.170
19228WAT     H157926   4.778   6.311   7.082
19228WAT     H257927   4.892   6.386   7.172
19229WAT      O57928   1.276   7.539   4.759
19229WAT     H157929   1.323   7.453   4.738
19229WAT     H257930   1.229   7.530   4.847
19230WAT      O57931   6.112   6.599   4.626
19230WAT     H157932   6.013   6.599   4.640
19230WAT     H257933   6.144   6.692   4.612
19231WAT      O57934   9.558   3.881   2.822
19231WAT     H157935   9.549   3.853   2.918
19231WAT     H257936   9.554   3.981   2.816
19232WAT      O57937   6.669   0.697   7.205
19232WAT     H157938   6.702   0.647   7.125
19232WAT     H257939   6.677   0.795   7.189
19233WAT      O57940   7.011   2.842   4.294
19233WAT     H157941   7.026   2.784   4.374
19233WAT     H257942   7.090   2.836   4.233
19234WAT      O57943   0.707   1.091   1.614
19234WAT     H157944   0.776   1.038   1.563
19234WAT     H257945   0.714   1.187   1.589
19235WAT      O57946   1.789   1.418   1.590
19235WAT     H157947   1.828   1.429   1.682
19235WAT     H257948   1.853   1.456   1.523
19236WAT      O57949   9.518   8.347   1.804
19236WAT     H157950   9.610   8.367   1.838
19236WAT     H257951   9.524   8.301   1.715
19237WAT      O57952   7.331   6.429   7.888
19237WAT     H157953   7.328   6.402   7.985
19237WAT     H257954   7.238   6.446   7.856
19238WAT      O57955   3.896   2.551   7.998
19238WAT     H157956   3.875   2.645   8.023
19238WAT     H257957   3.967   2.514   8.058
19239WAT      O57958   8.889   1.545   7.905
19239WAT     H157959   8.861   1.453   7.932
19239WAT     H257960   8.889   1.605   7.985
19240WAT      O57961   1.393   2.335   9.760
19240WAT     H157962   1.406   2.433   9.750
19240WAT     H257963   1.296   2.313   9.755
19241WAT      O57964   4.565   3.498   2.420
19241WAT     H157965   4.629   3.575   2.422
19241WAT     H257966   4.512   3.496   2.505
19242WAT      O57967   6.419   5.315   6.646
19242WAT     H157968   6.403   5.404   6.602
19242WAT     H257969   6.332   5.275   6.672
19243WAT      O57970   2.748   8.941   6.315
19243WAT     H157971   2.796   8.880   6.252
19243WAT     H257972   2.660   8.899   6.340
19244WAT      O57973   5.297   8.329   7.169
19244WAT     H157974   5.201   8.319   7.195
19244WAT     H257975   5.304   8.342   7.070
19245WAT      O57976   3.247   9.110   9.860
19245WAT     H157977   3.194   9.115   9.945
19245WAT     H257978   3.203   9.167   9.791
19246WAT      O57979   0.881   9.166   7.977
19246WAT     H157980   0.895   9.146   8.074
19246WAT     H257981   0.785   9.188   7.961
19247WAT      O57982   2.932   8.416   7.954
19247WAT     H157983   2.909   8.419   7.857
19247WAT     H257984   2.980   8.500   7.980
19248WAT      O57985   8.436   0.018   1.396
19248WAT     H157986   8.409   0.063   1.312
19248WAT     H257987   8.397  -0.074   1.399
19249WAT      O57988   0.910   6.592   6.270
19249WAT     H157989   0.899   6.688   6.247
19249WAT     H257990   0.905   6.580   6.369
19250WAT      O57991   8.878   4.712   2.590
19250WAT     H157992   8.939   4.639   2.621
19250WAT     H257993   8.930   4.782   2.542
19251WAT      O57994   8.916   0.270   9.760
19251WAT     H157995   8.901   0.263   9.661
19251WAT     H257996   8.911   0.366   9.788
19252WAT      O57997   2.696   6.157   4.046
19252WAT     H157998   2.610   6.158   3.994
19252WAT     H257999   2.761   6.219   4.004
19253WAT      O58000   0.749   8.062   1.160
19253WAT     H158001   0.779   8.001   1.233
19253WAT     H258002   0.656   8.038   1.133
19254WAT      O58003   4.975   7.331   0.034
19254WAT     H158004   4.953   7.423   0.002
19254WAT     H258005   5.073   7.316   0.028
19255WAT      O58006   7.516   4.395   5.691
19255WAT     H158007   7.466   4.408   5.776
19255WAT     H258008   7.555   4.303   5.690
19256WAT      O58009   5.946   5.992   9.346
19256WAT     H158010   6.031   6.043   9.361
19256WAT     H258011   5.917   5.948   9.431
19257WAT      O58012   8.418   8.743   7.160
19257WAT     H158013   8.505   8.791   7.160
19257WAT     H258014   8.379   8.743   7.252
19258WAT      O58015   6.183   2.578   1.192
19258WAT     H158016   6.183   2.503   1.258
19258WAT     H258017   6.277   2.598   1.165
19259WAT      O58018   1.904   5.725   4.951
19259WAT     H158019   1.885   5.703   5.046
19259WAT     H258020   1.821   5.712   4.896
19260WAT      O58021   1.130   4.065   6.499
19260WAT     H158022   1.068   3.993   6.528
19260WAT     H258023   1.165   4.044   6.407
19261WAT      O58024   7.293   2.532   7.398
19261WAT     H158025   7.249   2.442   7.392
19261WAT     H258026   7.329   2.545   7.490
19262WAT      O58027   8.652   9.471   5.705
19262WAT     H158028   8.572   9.529   5.690
19262WAT     H258029   8.647   9.429   5.796
19263WAT      O58030   6.677   5.165   4.017
19263WAT     H158031   6.715   5.177   4.109
19263WAT     H258032   6.585   5.203   4.013
19264WAT      O58033   6.238   1.547   6.848
19264WAT     H158034   6.211   1.536   6.944
19264WAT     H258035   6.304   1.477   6.823
19265WAT      O58036   6.224   0.984   5.412
19265WAT     H158037   6.228   1.052   5.339
19265WAT     H258038   6.145   1.003   5.471
19266WAT      O58039   8.022   2.370   2.094
19266WAT     H158040   8.100   2.360   2.031
19266WAT     H258041   8.005   2.283   2.140
19267WAT      O58042   6.116   5.290   9.019
19267WAT     H158043   6.195   5.352   9.019
19267WAT     H258044   6.046   5.327   8.958
19268WAT      O58045   9.382   1.560   1.969
19268WAT     H158046   9.358   1.561   1.872
19268WAT     H258047   9.386   1.653   2.004
19269WAT      O58048   3.782   8.719   9.872
19269WAT     H158049   3.847   8.736   9.946
19269WAT     H258050   3.689   8.733   9.905
19270WAT      O58051   7.828   1.058   2.826
19270WAT     H158052   7.811   1.018   2.917
19270WAT     H258053   7.744   1.097   2.791
19271WAT      O58054   4.693   4.589   8.253
19271WAT     H158055   4.701   4.687   8.272
19271WAT     H258056   4.778   4.555   8.213
19272WAT      O58057   4.355   7.514   6.896
19272WAT     H158058   4.260   7.496   6.868
19272WAT     H258059   4.363   7.610   6.924
19273WAT      O58060   2.315   7.790   3.291
19273WAT     H158061   2.251   7.722   3.328
19273WAT     H258062   2.392   7.800   3.353
19274WAT      O58063   8.363   3.832   7.939
19274WAT     H158064   8.380   3.874   8.028
19274WAT     H258065   8.317   3.744   7.953
19275WAT      O58066   7.307   8.954   1.838
19275WAT     H158067   7.294   8.868   1.887
19275WAT     H258068   7.290   9.031   1.900
19276WAT      O58069   3.764   1.980   2.788
19276WAT     H158070   3.716   2.061   2.753
19276WAT     H258071   3.783   1.918   2.712
19277WAT      O58072   1.232   3.307   5.381
19277WAT     H158073   1.224   3.265   5.471
19277WAT     H258074   1.170   3.262   5.317
19278WAT      O58075   5.091   0.782   6.235
19278WAT     H158076   5.125   0.688   6.222
19278WAT     H258077   5.074   0.823   6.145
19279WAT      O58078   4.207   2.922   1.964
19279WAT     H158079   4.219   2.859   1.887
19279WAT     H258080   4.187   2.871   2.047
19280WAT      O58081   2.958   7.316   7.223
19280WAT     H158082   2.939   7.245   7.291
19280WAT     H258083   2.924   7.404   7.256
19281WAT      O58084   2.348   3.677   5.280
19281WAT     H158085   2.370   3.589   5.322
19281WAT     H258086   2.352   3.749   5.350
19282WAT      O58087   2.529   4.053   3.260
19282WAT     H158088   2.441   4.013   3.286
19282WAT     H258089   2.602   3.987   3.278
19283WAT      O58090   9.078   1.952   5.829
19283WAT     H158091   8.996   1.930   5.881
19283WAT     H258092   9.100   2.049   5.841
19284WAT      O58093   6.639   7.274   7.971
19284WAT     H158094   6.605   7.209   8.038
19284WAT     H258095   6.602   7.251   7.881
19285WAT      O58096   6.512   9.397   5.878
19285WAT     H158097   6.579   9.425   5.810
19285WAT     H258098   6.547   9.319   5.929
19286WAT      O58099   8.221   1.894   5.358
19286WAT     H158100   8.185   1.828   5.423
19286WAT     H258101   8.250   1.847   5.274
19287WAT      O58102   0.567   8.307   6.784
19287WAT     H158103   0.490   8.371   6.781
19287WAT     H258104   0.652   8.359   6.793
19288WAT      O58105   1.133   9.521   9.658
19288WAT     H158106   1.177   9.483   9.740
19288WAT     H258107   1.123   9.448   9.590
19289WAT      O58108   3.681   4.834   1.465
19289WAT     H158109   3.607   4.880   1.515
19289WAT     H258110   3.765   4.839   1.520
19290WAT      O58111   7.397   7.970   1.502
19290WAT     H158112   7.418   8.030   1.426
19290WAT     H258113   7.370   8.025   1.582
19291WAT      O58114   5.979   8.321   1.602
19291WAT     H158115   5.902   8.256   1.607
19291WAT     H258116   6.001   8.339   1.506
19292WAT      O58117   6.271   8.386   9.344
19292WAT     H158118   6.351   8.344   9.301
19292WAT     H258119   6.293   8.478   9.375
19293WAT      O58120   1.433   1.902   8.775
19293WAT     H158121   1.463   1.843   8.700
19293WAT     H258122   1.512   1.932   8.828
19294WAT      O58123   6.146   8.403   5.099
19294WAT     H158124   6.210   8.448   5.036
19294WAT     H258125   6.104   8.325   5.054
19295WAT      O58126   8.566   9.018   4.534
19295WAT     H158127   8.617   9.074   4.470
19295WAT     H258128   8.572   9.058   4.626
19296WAT      O58129   0.879   6.503   5.615
19296WAT     H158130   0.950   6.437   5.639
19296WAT     H258131   0.866   6.503   5.516
19297WAT      O58132   7.108   4.135   8.466
19297WAT     H158133   7.185   4.146   8.403
19297WAT     H258134   7.023   4.129   8.414
19298WAT      O58135   4.265   9.516   3.833
19298WAT     H158136   4.170   9.517   3.804
19298WAT     H258137   4.321   9.565   3.767
19299WAT      O58138   2.665   0.926   0.866
19299WAT     H158139   2.668   0.827   0.852
19299WAT     H258140   2.725   0.971   0.799
19300WAT      O58141   1.918   4.158   3.009
19300WAT     H158142   1.969   4.215   3.073
19300WAT     H258143   1.853   4.214   2.957
19301WAT      O58144   9.355   4.771   3.644
19301WAT     H158145   9.451   4.742   3.640
19301WAT     H258146   9.343   4.854   3.589
19302WAT      O58147   6.457   0.605   3.213
19302WAT     H158148   6.433   0.509   3.208
19302WAT     H258149   6.523   0.619   3.287
19303WAT      O58150   4.306   8.062   9.435
19303WAT     H158151   4.393   8.111   9.442
19303WAT     H258152   4.231   8.126   9.423
19304WAT      O58153   5.706   8.785   2.130
19304WAT     H158154   5.700   8.713   2.199
19304WAT     H258155   5.673   8.749   2.042
19305WAT      O58156   5.780   5.022   7.912
19305WAT     H158157   5.719   5.096   7.942
19305WAT     H258158   5.752   4.937   7.956
19306WAT      O58159   9.810   5.383   7.505
19306WAT     H158160   9.767   5.297   7.531
19306WAT     H258161   9.756   5.459   7.542
19307WAT      O58162   5.397   5.985   0.887
19307WAT     H158163   5.461   6.014   0.957
19307WAT     H258164   5.355   5.898   0.913
19308WAT      O58165   3.986   0.947   2.279
19308WAT     H158166   4.001   0.883   2.203
19308WAT     H258167   4.073   0.964   2.326
19309WAT      O58168   3.308   6.312   0.225
19309WAT     H158169   3.276   6.407   0.228
19309WAT     H258170   3.293   6.270   0.315
19310WAT      O58171   1.379   1.314   7.460
19310WAT     H158172   1.365   1.346   7.366
19310WAT     H258173   1.326   1.230   7.474
19311WAT      O58174   7.875   2.369   5.283
19311WAT     H158175   7.964   2.352   5.242
19311WAT     H258176   7.833   2.449   5.241
19312WAT      O58177   5.369   6.619   3.302
19312WAT     H158178   5.383   6.584   3.395
19312WAT     H258179   5.397   6.715   3.299
19313WAT      O58180   8.172   6.228   3.457
19313WAT     H158181   8.254   6.197   3.505
19313WAT     H258182   8.183   6.213   3.359
19314WAT      O58183   3.990   0.333   2.101
19314WAT     H158184   3.948   0.332   2.192
19314WAT     H258185   3.924   0.298   2.034
19315WAT      O58186   2.674   6.857   4.880
19315WAT     H158187   2.670   6.835   4.782
19315WAT     H258188   2.654   6.954   4.893
19316WAT      O58189   2.541   1.271   1.921
19316WAT     H158190   2.506   1.345   1.978
19316WAT     H258191   2.565   1.307   1.831
19317WAT      O58192   6.267   8.338   1.170
19317WAT     H158193   6.207   8.306   1.096
19317WAT     H258194   6.292   8.433   1.153
19318WAT      O58195   3.014   7.236   9.842
19318WAT     H158196   3.029   7.271   9.934
19318WAT     H258197   3.037   7.307   9.775
19319WAT      O58198   4.511   6.585   4.586
19319WAT     H158199   4.437   6.583   4.654
19319WAT     H258200   4.483   6.641   4.508
19320WAT      O58201   6.789   8.950   2.261
19320WAT     H158202   6.742   9.029   2.301
19320WAT     H258203   6.887   8.969   2.256
19321WAT      O58204   3.688   0.793   0.057
19321WAT     H158205   3.662   0.864   0.122
19321WAT     H258206   3.695   0.705   0.104
19322WAT      O58207   9.595   0.047   8.206
19322WAT     H158208   9.682   0.075   8.248
19322WAT     H258209   9.565   0.118   8.142
19323WAT      O58210   0.787   0.691   5.221
19323WAT     H158211   0.869   0.739   5.250
19323WAT     H258212   0.807   0.594   5.208
19324WAT      O58213   0.021   3.281   6.854
19324WAT     H158214  -0.037   3.354   6.890
19324WAT     H258215   0.117   3.302   6.873
19325WAT      O58216   6.610   6.142   5.004
19325WAT     H158217   6.545   6.218   5.000
19325WAT     H258218   6.676   6.151   4.930
19326WAT      O58219   3.470   7.974   1.993
19326WAT     H158220   3.476   7.906   1.920
19326WAT     H258221   3.393   8.036   1.976
19327WAT      O58222   5.810   1.181   8.137
19327WAT     H158223   5.874   1.128   8.082
19327WAT     H258224   5.789   1.131   8.221
19328WAT      O58225   6.271   3.158   3.916
19328WAT     H158226   6.184   3.200   3.938
19328WAT     H258227   6.304   3.105   3.994
19329WAT      O58228   3.724   5.580   0.886
19329WAT     H158229   3.644   5.632   0.915
19329WAT     H258230   3.711   5.483   0.907
19330WAT      O58231   4.475   5.884   4.211
19330WAT     H158232   4.412   5.807   4.216
19330WAT     H258233   4.565   5.853   4.181
19331WAT      O58234   5.103   4.252   6.031
19331WAT     H158235   5.049   4.272   5.949
19331WAT     H258236   5.131   4.338   6.074
19332WAT      O58237   3.493   4.789   3.989
19332WAT     H158238   3.571   4.826   3.938
19332WAT     H258239   3.526   4.727   4.060
19333WAT      O58240   4.326   2.589   3.220
19333WAT     H158241   4.405   2.577   3.160
19333WAT     H258242   4.279   2.501   3.230
19334WAT      O58243   2.011   3.923   6.149
19334WAT     H158244   2.107   3.896   6.154
19334WAT     H258245   1.977   3.943   6.241
19335WAT      O58246   8.937   1.697   9.340
19335WAT     H158247   8.968   1.660   9.428
19335WAT     H258248   8.838   1.704   9.340
19336WAT      O58249   1.850   3.981   0.490
19336WAT     H158250   1.926   3.932   0.448
19336WAT     H258251   1.764   3.942   0.459
19337WAT      O58252   3.268   2.059   9.177
19337WAT     H158253   3.218   2.136   9.217
19337WAT     H258254   3.357   2.051   9.221
19338WAT      O58255   1.330   2.280   3.545
19338WAT     H158256   1.250   2.265   3.487
19338WAT     H258257   1.413   2.279   3.489
19339WAT      O58258   9.367   3.616   3.687
19339WAT     H158259   9.426   3.622   3.607
19339WAT     H258260   9.320   3.703   3.701
19340WAT      O58261   0.817   9.345   9.459
19340WAT     H158262   0.832   9.409   9.534
19340WAT     H258263   0.859   9.382   9.376
19341WAT      O58264   1.984   9.293   8.840
19341WAT     H158265   2.058   9.328   8.782
19341WAT     H258266   2.022   9.244   8.918
19342WAT      O58267   5.013   2.319   0.473
19342WAT     H158268   5.105   2.335   0.509
19342WAT     H258269   5.018   2.253   0.398
19343WAT      O58270   1.014   6.745   3.616
19343WAT     H158271   1.029   6.798   3.533
19343WAT     H258272   0.916   6.740   3.635
19344WAT      O58273   0.933   0.483   1.142
19344WAT     H158274   0.986   0.548   1.087
19344WAT     H258275   0.905   0.527   1.227
19345WAT      O58276   9.793   9.345   6.135
19345WAT     H158277   9.775   9.353   6.037
19345WAT     H258278   9.890   9.327   6.151
19346WAT      O58279   0.877   9.672   4.976
19346WAT     H158280   0.780   9.688   4.992
19346WAT     H258281   0.929   9.702   5.056
19347WAT      O58282   2.519   4.358   7.354
19347WAT     H158283   2.617   4.360   7.376
19347WAT     H258284   2.484   4.452   7.351
19348WAT      O58285   1.424   8.585   7.430
19348WAT     H158286   1.390   8.624   7.344
19348WAT     H258287   1.392   8.639   7.507
19349WAT      O58288   9.178   9.184   5.030
19349WAT     H158289   9.272   9.156   5.052
19349WAT     H258290   9.180   9.276   4.990
19350WAT      O58291   7.122   4.345   3.565
19350WAT     H158292   7.027   4.364   3.589
19350WAT     H258293   7.181   4.366   3.643
19351WAT      O58294   0.527   1.440   8.291
19351WAT     H158295   0.444   1.448   8.347
19351WAT     H258296   0.509   1.377   8.215
19352WAT      O58297   1.336   6.093   2.605
19352WAT     H158298   1.253   6.040   2.586
19352WAT     H258299   1.411   6.030   2.627
19353WAT      O58300   5.015   6.013   0.198
19353WAT     H158301   4.948   5.944   0.170
19353WAT     H258302   5.106   5.972   0.202
19354WAT      O58303   0.701   5.387   5.740
19354WAT     H158304   0.740   5.348   5.657
19354WAT     H258305   0.722   5.485   5.744
19355WAT      O58306   6.878   2.125   3.373
19355WAT     H158307   6.941   2.202   3.366
19355WAT     H258308   6.928   2.043   3.402
19356WAT      O58309   9.823   4.786   8.400
19356WAT     H158310   9.764   4.867   8.396
19356WAT     H258311   9.799   4.723   8.326
19357WAT      O58312   3.833   0.472   4.827
19357WAT     H158313   3.923   0.430   4.813
19357WAT     H258314   3.833   0.564   4.789
19358WAT      O58315   5.075   9.632   1.636
19358WAT     H158316   5.018   9.623   1.554
19358WAT     H258317   5.165   9.667   1.610
19359WAT      O58318   7.496   2.543   8.711
19359WAT     H158319   7.562   2.567   8.640
19359WAT     H258320   7.470   2.625   8.762
19360WAT      O58321   8.352   2.047   5.105
19360WAT     H158322   8.296   2.023   5.184
19360WAT     H258323   8.381   1.964   5.058
19361WAT      O58324   0.193   2.379   0.122
19361WAT     H158325   0.165   2.320   0.198
19361WAT     H258326   0.116   2.390   0.058
19362WAT      O58327   4.649   6.091   4.212
19362WAT     H158328   4.557   6.063   4.238
19362WAT     H258329   4.707   6.096   4.294
19363WAT      O58330   5.439   9.660   1.920
19363WAT     H158331   5.498   9.717   1.864
19363WAT     H258332   5.422   9.573   1.873
19364WAT      O58333   6.184   7.382   0.895
19364WAT     H158334   6.113   7.415   0.958
19364WAT     H258335   6.252   7.329   0.947
19365WAT      O58336   0.732   3.732   7.754
19365WAT     H158337   0.809   3.795   7.761
19365WAT     H258338   0.728   3.675   7.836
19366WAT      O58339   9.798   2.512   0.952
19366WAT     H158340   9.766   2.574   1.023
19366WAT     H258341   9.748   2.426   0.958
19367WAT      O58342   8.627   6.768   8.798
19367WAT     H158343   8.589   6.854   8.762
19367WAT     H258344   8.668   6.716   8.723
19368WAT      O58345   4.078   0.241   8.698
19368WAT     H158346   3.996   0.286   8.734
19368WAT     H258347   4.060   0.145   8.682
19369WAT      O58348   0.941   9.129   4.243
19369WAT     H158349   0.990   9.042   4.231
19369WAT     H258350   1.008   9.203   4.250
19370WAT      O58351   8.202   8.490   1.276
19370WAT     H158352   8.291   8.525   1.246
19370WAT     H258353   8.191   8.509   1.374
19371WAT      O58354   4.563   2.642   8.030
19371WAT     H158355   4.556   2.640   8.129
19371WAT     H258356   4.480   2.682   7.991
19372WAT      O58357   9.070   3.185   2.007
19372WAT     H158358   9.084   3.280   2.034
19372WAT     H258359   9.108   3.171   1.915
19373WAT      O58360   1.086   2.873   1.670
19373WAT     H158361   0.989   2.897   1.672
19373WAT     H258362   1.129   2.898   1.757
19374WAT      O58363   6.936   6.311   5.458
19374WAT     H158364   6.970   6.318   5.552
19374WAT     H258365   6.876   6.389   5.438
19375WAT      O58366   8.313   7.998   2.305
19375WAT     H158367   8.251   8.062   2.258
19375WAT     H258368   8.288   7.992   2.401
19376WAT      O58369   0.806   8.424   6.749
19376WAT     H158370   0.876   8.408   6.680
19376WAT     H258371   0.845   8.415   6.840
19377WAT      O58372   3.742   5.391   7.658
19377WAT     H158373   3.667   5.455   7.674
19377WAT     H258374   3.801   5.425   7.585
19378WAT      O58375   3.196   7.544   1.695
19378WAT     H158376   3.258   7.466   1.701
19378WAT     H258377   3.249   7.627   1.679
19379WAT      O58378   4.338   7.550   6.032
19379WAT     H158379   4.257   7.528   5.977
19379WAT     H258380   4.321   7.635   6.083
19380WAT      O58381   5.890   7.271   1.566
19380WAT     H158382   5.918   7.364   1.540
19380WAT     H258383   5.818   7.239   1.505
19381WAT      O58384   8.654   4.689   0.159
19381WAT     H158385   8.696   4.750   0.091
19381WAT     H258386   8.555   4.692   0.150
19382WAT      O58387   7.092   9.338   8.907
19382WAT     H158388   7.011   9.383   8.869
19382WAT     H258389   7.173   9.367   8.855
19383WAT      O58390   7.013   1.859   7.388
19383WAT     H158391   7.010   1.844   7.289
19383WAT     H258392   7.103   1.895   7.414
19384WAT      O58393   9.178   4.154   9.664
19384WAT     H158394   9.107   4.202   9.612
19384WAT     H258395   9.236   4.101   9.601
19385WAT      O58396   6.847   3.165   0.098
19385WAT     H158397   6.813   3.168   0.192
19385WAT     H258398   6.776   3.198   0.036
19386WAT      O58399   0.046   4.780   3.890
19386WAT     H158400   0.071   4.768   3.794
19386WAT     H258401   0.128   4.793   3.945
19387WAT      O58402   9.690   7.680   0.033
19387WAT     H158403   9.694   7.755  -0.033
19387WAT     H258404   9.660   7.716   0.122
19388WAT      O58405   8.715   8.527   6.909
19388WAT     H158406   8.662   8.520   6.824
19388WAT     H258407   8.800   8.577   6.890
19389WAT      O58408   1.445   1.452   8.194
19389WAT     H158409   1.477   1.432   8.102
19389WAT     H258410   1.467   1.376   8.255
19390WAT      O58411   4.760   5.435   8.180
19390WAT     H158412   4.828   5.364   8.165
19390WAT     H258413   4.699   5.441   8.101
19391WAT      O58414   6.049   2.029   5.730
19391WAT     H158415   6.019   1.972   5.806
19391WAT     H258416   6.103   2.105   5.764
19392WAT      O58417   2.098   6.488   5.029
19392WAT     H158418   2.130   6.439   4.948
19392WAT     H258419   2.175   6.501   5.093
19393WAT      O58420   5.798   5.387   3.233
19393WAT     H158421   5.742   5.436   3.168
19393WAT     H258422   5.871   5.447   3.267
19394WAT      O58423   4.501   3.318   8.932
19394WAT     H158424   4.501   3.333   8.833
19394WAT     H258425   4.419   3.267   8.958
19395WAT      O58426   3.875   0.610   2.297
19395WAT     H158427   3.780   0.582   2.285
19395WAT     H258428   3.930   0.532   2.326
19396WAT      O58429   8.261   9.693   7.991
19396WAT     H158430   8.248   9.629   7.916
19396WAT     H258431   8.317   9.650   8.063
19397WAT      O58432   6.005   8.363   9.407
19397WAT     H158433   5.976   8.271   9.431
19397WAT     H258434   6.101   8.362   9.379
19398WAT      O58435   7.571   5.702   9.222
19398WAT     H158436   7.661   5.696   9.177
19398WAT     H258437   7.535   5.611   9.237
19399WAT      O58438   3.515   8.636   5.660
19399WAT     H158439   3.586   8.598   5.719
19399WAT     H258440   3.487   8.726   5.695
19400WAT      O58441   4.925   3.082   7.403
19400WAT     H158442   4.907   2.997   7.452
19400WAT     H258443   4.957   3.152   7.467
19401WAT      O58444   5.277   8.306   6.615
19401WAT     H158445   5.377   8.299   6.607
19401WAT     H258446   5.245   8.389   6.570
19402WAT      O58447   2.684   6.097   9.210
19402WAT     H158448   2.718   6.190   9.196
19402WAT     H258449   2.760   6.037   9.236
19403WAT      O58450   1.325   8.664   0.684
19403WAT     H158451   1.407   8.711   0.718
19403WAT     H258452   1.325   8.667   0.584
19404WAT      O58453   8.486   6.833   1.633
19404WAT     H158454   8.477   6.734   1.640
19404WAT     H258455   8.575   6.861   1.669
19405WAT      O58456   0.485   9.543   8.832
19405WAT     H158457   0.498   9.448   8.804
19405WAT     H258458   0.510   9.552   8.929
19406WAT      O58459   2.801   2.687   3.200
19406WAT     H158460   2.764   2.634   3.277
19406WAT     H258461   2.735   2.757   3.173
19407WAT      O58462   9.220   0.087   7.388
19407WAT     H158463   9.275   0.107   7.469
19407WAT     H258464   9.254   0.004   7.344
19408WAT      O58465   1.181   0.487   4.457
19408WAT     H158466   1.084   0.476   4.433
19408WAT     H258467   1.222   0.556   4.397
19409WAT      O58468   0.195   6.952   8.738
19409WAT     H158469   0.159   7.038   8.774
19409WAT     H258470   0.172   6.878   8.801
19410WAT      O58471   0.466   2.674   4.444
19410WAT     H158472   0.481   2.769   4.471
19410WAT     H258473   0.480   2.614   4.523
19411WAT      O58474   2.034   8.165   5.459
19411WAT     H158475   1.987   8.188   5.373
19411WAT     H258476   2.101   8.093   5.442
19412WAT      O58477   2.246   2.945   8.812
19412WAT     H158478   2.297   2.944   8.899
19412WAT     H258479   2.148   2.938   8.831
19413WAT      O58480   2.398   7.764   1.077
19413WAT     H158481   2.381   7.757   1.175
19413WAT     H258482   2.416   7.860   1.053
19414WAT      O58483   2.748   9.217   1.130
19414WAT     H158484   2.654   9.183   1.137
19414WAT     H258485   2.770   9.271   1.212
19415WAT      O58486   8.108   4.653   1.836
19415WAT     H158487   8.096   4.723   1.766
19415WAT     H258488   8.186   4.595   1.813
19416WAT      O58489   4.098   5.433   6.567
19416WAT     H158490   4.188   5.415   6.526
19416WAT     H258491   4.026   5.396   6.508
19417WAT      O58492   1.967   1.762   5.171
19417WAT     H158493   1.946   1.807   5.084
19417WAT     H258494   1.995   1.830   5.238
19418WAT      O58495   4.300   2.528   8.164
19418WAT     H158496   4.206   2.492   8.166
19418WAT     H258497   4.352   2.489   8.240
19419WAT      O58498   3.342   6.600   8.802
19419WAT     H158499   3.373   6.692   8.778
19419WAT     H258500   3.256   6.581   8.756
19420WAT      O58501   1.795   9.661   1.858
19420WAT     H158502   1.864   9.706   1.914
19420WAT     H258503   1.705   9.696   1.881
19421WAT      O58504   4.441   8.548   1.481
19421WAT     H158505   4.530   8.570   1.520
19421WAT     H258506   4.374   8.618   1.509
19422WAT      O58507   2.424   8.428   6.501
19422WAT     H158508   2.503   8.474   6.541
19422WAT     H258509   2.430   8.430   6.401
19423WAT      O58510   0.597   0.021   7.615
19423WAT     H158511   0.568  -0.049   7.680
19423WAT     H258512   0.572   0.111   7.650
19424WAT      O58513   9.534   5.794   8.326
19424WAT     H158514   9.534   5.872   8.389
19424WAT     H258515   9.623   5.786   8.283
19425WAT      O58516   3.238   9.719   0.913
19425WAT     H158517   3.211   9.723   0.817
19425WAT     H258518   3.321   9.773   0.926
19426WAT      O58519   3.936   7.980   6.616
19426WAT     H158520   3.957   8.078   6.618
19426WAT     H258521   4.005   7.933   6.561
19427WAT      O58522   8.727   4.224   5.853
19427WAT     H158523   8.802   4.256   5.795
19427WAT     H258524   8.650   4.287   5.844
19428WAT      O58525   1.824   0.578   2.099
19428WAT     H158526   1.828   0.498   2.039
19428WAT     H258527   1.901   0.575   2.163
19429WAT      O58528   2.382   7.664   4.945
19429WAT     H158529   2.408   7.761   4.945
19429WAT     H258530   2.309   7.649   5.011
19430WAT      O58531   4.469   5.981   2.837
19430WAT     H158532   4.515   6.068   2.855
19430WAT     H258533   4.386   5.997   2.784
19431WAT      O58534   1.050   0.259   3.918
19431WAT     H158535   1.021   0.176   3.871
19431WAT     H258536   1.015   0.339   3.869
19432WAT      O58537   8.680   5.865   1.368
19432WAT     H158538   8.636   5.865   1.457
19432WAT     H258539   8.626   5.920   1.304
19433WAT      O58540   7.481   7.939   4.507
19433WAT     H158541   7.453   8.022   4.458
19433WAT     H258542   7.420   7.924   4.585
19434WAT      O58543   6.162   3.922   4.163
19434WAT     H158544   6.090   3.976   4.208
19434WAT     H258545   6.228   3.984   4.120
19435WAT      O58546   3.103   5.247   2.377
19435WAT     H158547   3.085   5.331   2.427
19435WAT     H258548   3.186   5.204   2.414
19436WAT      O58549   9.461   4.024   4.802
19436WAT     H158550   9.493   4.103   4.751
19436WAT     H258551   9.503   3.941   4.765
19437WAT      O58552   7.600   3.379   9.272
19437WAT     H158553   7.692   3.345   9.295
19437WAT     H258554   7.577   3.456   9.332
19438WAT      O58555   8.535   3.591   9.787
19438WAT     H158556   8.470   3.599   9.863
19438WAT     H258557   8.486   3.565   9.704
19439WAT      O58558   0.193   5.422   7.553
19439WAT     H158559   0.202   5.521   7.542
19439WAT     H258560   0.101   5.394   7.525
19440WAT      O58561   3.998   3.980   2.638
19440WAT     H158562   4.090   3.955   2.668
19440WAT     H258563   3.990   3.967   2.539
19441WAT      O58564   5.134   7.267   2.478
19441WAT     H158565   5.181   7.193   2.430
19441WAT     H258566   5.198   7.311   2.542
19442WAT      O58567   7.208   8.460   2.901
19442WAT     H158568   7.220   8.554   2.931
19442WAT     H258569   7.264   8.399   2.958
19443WAT      O58570   3.377   7.007   0.096
19443WAT     H158571   3.360   6.988   0.193
19443WAT     H258572   3.331   7.091   0.070
19444WAT      O58573   3.215   1.123   3.502
19444WAT     H158574   3.180   1.172   3.422
19444WAT     H258575   3.301   1.164   3.531
19445WAT      O58576   5.577   6.948   7.469
19445WAT     H158577   5.492   6.904   7.496
19445WAT     H258578   5.642   6.878   7.438
19446WAT      O58579   1.945   5.682   8.191
19446WAT     H158580   1.980   5.730   8.111
19446WAT     H258581   2.012   5.686   8.265
19447WAT      O58582   8.935   4.701   1.791
19447WAT     H158583   8.887   4.741   1.868
19447WAT     H258584   9.014   4.757   1.767
19448WAT      O58585   4.083   8.327   1.473
19448WAT     H158586   4.028   8.410   1.460
19448WAT     H258587   4.177   8.344   1.442
19449WAT      O58588   2.864   7.026   8.880
19449WAT     H158589   2.835   6.943   8.833
19449WAT     H258590   2.894   7.003   8.973
19450WAT      O58591   6.991   9.554   9.470
19450WAT     H158592   7.002   9.647   9.503
19450WAT     H258593   7.014   9.550   9.372
19451WAT      O58594   4.263   8.848   9.113
19451WAT     H158595   4.209   8.929   9.091
19451WAT     H258596   4.286   8.848   9.210
19452WAT      O58597   7.253   2.780   3.174
19452WAT     H158598   7.267   2.693   3.222
19452WAT     H258599   7.200   2.842   3.233
19453WAT      O58600   5.715   2.734   1.562
19453WAT     H158601   5.639   2.671   1.545
19453WAT     H258602   5.680   2.816   1.608
19454WAT      O58603   3.102   3.691   0.007
19454WAT     H158604   3.150   3.604   0.018
19454WAT     H258605   3.137   3.756   0.074
19455WAT      O58606   5.983   6.777   7.963
19455WAT     H158607   6.079   6.803   7.967
19455WAT     H258608   5.965   6.703   8.028
19456WAT      O58609   8.046   8.154   3.937
19456WAT     H158610   8.028   8.174   3.841
19456WAT     H258611   8.013   8.062   3.958
19457WAT      O58612   4.357   1.877   7.245
19457WAT     H158613   4.416   1.944   7.199
19457WAT     H258614   4.306   1.923   7.318
19458WAT      O58615   2.223   7.544   2.855
19458WAT     H158616   2.174   7.496   2.928
19458WAT     H258617   2.281   7.615   2.895
19459WAT      O58618   0.476   8.499   4.185
19459WAT     H158619   0.493   8.401   4.194
19459WAT     H258620   0.441   8.535   4.272
19460WAT      O58621   2.834   0.051   9.521
19460WAT     H158622   2.890   0.134   9.519
19460WAT     H258623   2.779   0.047   9.438
19461WAT      O58624   2.268   3.140   5.982
19461WAT     H158625   2.240   3.083   6.059
19461WAT     H258626   2.348   3.099   5.937
19462WAT      O58627   1.061   9.454   0.203
19462WAT     H158628   0.985   9.405   0.160
19462WAT     H258629   1.141   9.394   0.208
19463WAT      O58630   1.734   7.570   3.524
19463WAT     H158631   1.717   7.496   3.589
19463WAT     H258632   1.695   7.655   3.559
19464WAT      O58633   7.276   0.456   1.527
19464WAT     H158634   7.371   0.485   1.528
19464WAT     H258635   7.223   0.518   1.468
19465WAT      O58636   6.400   6.611   5.607
19465WAT     H158637   6.347   6.694   5.589
19465WAT     H258638   6.497   6.631   5.595
19466WAT      O58639   0.298   1.562   7.700
19466WAT     H158640   0.379   1.621   7.702
19466WAT     H258641   0.248   1.578   7.615
19467WAT      O58642   3.878   9.329   2.553
19467WAT     H158643   3.853   9.378   2.637
19467WAT     H258644   3.939   9.253   2.575
19468WAT      O58645   2.046   1.643   7.894
19468WAT     H158646   2.115   1.572   7.902
19468WAT     H258647   2.087   1.726   7.855
19469WAT      O58648   0.364   7.552   7.553
19469WAT     H158649   0.385   7.556   7.651
19469WAT     H258650   0.368   7.645   7.515
19470WAT      O58651   6.039   8.291   4.171
19470WAT     H158652   5.967   8.316   4.235
19470WAT     H258653   6.015   8.207   4.123
19471WAT      O58654   7.949   8.862   5.410
19471WAT     H158655   8.039   8.902   5.428
19471WAT     H258656   7.950   8.766   5.437
19472WAT      O58657   8.901   8.702   6.125
19472WAT     H158658   8.821   8.745   6.167
19472WAT     H258659   8.969   8.683   6.195
19473WAT      O58660   9.138   7.342   7.202
19473WAT     H158661   9.172   7.280   7.131
19473WAT     H258662   9.212   7.361   7.267
19474WAT      O58663   5.591   3.150   5.647
19474WAT     H158664   5.560   3.188   5.734
19474WAT     H258665   5.511   3.129   5.590
19475WAT      O58666   5.316   1.131   1.811
19475WAT     H158667   5.410   1.160   1.796
19475WAT     H258668   5.310   1.081   1.897
19476WAT      O58669   4.774   7.120   1.562
19476WAT     H158670   4.686   7.082   1.590
19476WAT     H258671   4.831   7.135   1.643
19477WAT      O58672   7.581   9.620   7.320
19477WAT     H158673   7.614   9.554   7.388
19477WAT     H258674   7.559   9.706   7.366
19478WAT      O58675   9.509   1.921   7.344
19478WAT     H158676   9.515   1.981   7.424
19478WAT     H258677   9.581   1.945   7.279
19479WAT      O58678   1.910   9.082   8.360
19479WAT     H158679   1.890   9.002   8.304
19479WAT     H258680   1.844   9.154   8.341
19480WAT      O58681   6.314   5.689   8.999
19480WAT     H158682   6.300   5.780   8.960
19480WAT     H258683   6.299   5.692   9.098
19481WAT      O58684   5.148   5.138   7.971
19481WAT     H158685   5.117   5.213   8.029
19481WAT     H258686   5.244   5.151   7.947
19482WAT      O58687   5.172   4.443   2.431
19482WAT     H158688   5.182   4.541   2.413
19482WAT     H258689   5.116   4.430   2.513
19483WAT      O58690   8.013   1.881   2.659
19483WAT     H158691   8.048   1.792   2.687
19483WAT     H258692   7.974   1.928   2.738
19484WAT      O58693   7.520   2.771   8.877
19484WAT     H158694   7.505   2.754   8.975
19484WAT     H258695   7.473   2.855   8.850
19485WAT      O58696   0.840   4.306   5.205
19485WAT     H158697   0.878   4.228   5.255
19485WAT     H258698   0.794   4.274   5.122
19486WAT      O58699   8.197   9.110   2.473
19486WAT     H158700   8.134   9.151   2.408
19486WAT     H258701   8.186   9.011   2.473
19487WAT      O58702   0.675   7.972   8.577
19487WAT     H158703   0.710   7.885   8.613
19487WAT     H258704   0.748   8.041   8.579
19488WAT      O58705   4.048   3.205   7.381
19488WAT     H158706   4.122   3.251   7.331
19488WAT     H258707   3.961   3.226   7.338
19489WAT      O58708   5.135   0.359   4.612
19489WAT     H158709   5.216   0.309   4.581
19489WAT     H258710   5.115   0.335   4.707
19490WAT      O58711   4.993   5.194   9.392
19490WAT     H158712   4.906   5.178   9.438
19490WAT     H258713   4.981   5.182   9.293
19491WAT      O58714   6.683   3.290   7.420
19491WAT     H158715   6.742   3.258   7.495
19491WAT     H258716   6.682   3.222   7.348
19492WAT      O58717   1.635   5.395   4.885
19492WAT     H158718   1.617   5.493   4.888
19492WAT     H258719   1.710   5.376   4.822
19493WAT      O58720   9.624   7.943   8.394
19493WAT     H158721   9.684   7.863   8.400
19493WAT     H258722   9.626   7.992   8.481
19494WAT      O58723   0.320   1.926   8.576
19494WAT     H158724   0.354   1.994   8.511
19494WAT     H258725   0.233   1.890   8.543
19495WAT      O58726   9.191   3.969   2.261
19495WAT     H158727   9.132   3.890   2.278
19495WAT     H258728   9.241   3.956   2.176
19496WAT      O58729   5.365   4.454   8.936
19496WAT     H158730   5.299   4.528   8.927
19496WAT     H258731   5.452   4.482   8.895
19497WAT      O58732   2.442   4.750   1.781
19497WAT     H158733   2.446   4.740   1.682
19497WAT     H258734   2.458   4.661   1.825
19498WAT      O58735   3.759   8.300   3.821
19498WAT     H158736   3.853   8.277   3.845
19498WAT     H258737   3.746   8.399   3.826
19499WAT      O58738   0.333   2.445   8.415
19499WAT     H158739   0.249   2.470   8.367
19499WAT     H258740   0.376   2.528   8.450
19500WAT      O58741   4.426   7.246   8.599
19500WAT     H158742   4.453   7.291   8.514
19500WAT     H258743   4.331   7.218   8.592
19501WAT      O58744   6.951   9.343   7.540
19501WAT     H158745   6.947   9.283   7.460
19501WAT     H258746   7.045   9.377   7.551
19502WAT      O58747   8.093   4.006   7.303
19502WAT     H158748   8.052   3.939   7.242
19502WAT     H258749   8.193   3.997   7.301
19503WAT      O58750   3.952   7.820   4.761
19503WAT     H158751   4.035   7.852   4.807
19503WAT     H258752   3.977   7.767   4.680
19504WAT      O58753   4.940   5.800   6.148
19504WAT     H158754   5.036   5.814   6.123
19504WAT     H258755   4.932   5.719   6.207
19505WAT      O58756   2.787   4.065   8.707
19505WAT     H158757   2.854   4.136   8.684
19505WAT     H258758   2.799   3.987   8.646
19506WAT      O58759   4.003   4.524   0.181
19506WAT     H158760   3.974   4.620   0.175
19506WAT     H258761   4.096   4.516   0.144
19507WAT      O58762   4.933   8.032   5.412
19507WAT     H158763   4.871   7.971   5.462
19507WAT     H258764   5.022   8.035   5.459
19508WAT      O58765   4.966   8.190   7.482
19508WAT     H158766   4.989   8.159   7.574
19508WAT     H258767   4.879   8.238   7.484
19509WAT      O58768   5.835   7.924   4.095
19509WAT     H158769   5.905   7.988   4.063
19509WAT     H258770   5.759   7.975   4.136
19510WAT      O58771   7.907   5.841   2.730
19510WAT     H158772   7.858   5.762   2.768
19510WAT     H258773   7.843   5.895   2.675
19511WAT      O58774   1.862   5.676   7.102
19511WAT     H158775   1.921   5.695   7.024
19511WAT     H258776   1.846   5.578   7.110
19512WAT      O58777   4.429   5.470   7.787
19512WAT     H158778   4.417   5.415   7.704
19512WAT     H258779   4.342   5.479   7.834
19513WAT      O58780   0.561   2.390   4.069
19513WAT     H158781   0.519   2.467   4.117
19513WAT     H258782   0.656   2.412   4.047
19514WAT      O58783   9.314   4.122   3.348
19514WAT     H158784   9.288   4.168   3.433
19514WAT     H258785   9.360   4.187   3.287
19515WAT      O58786   5.612   9.621   8.604
19515WAT     H158787   5.639   9.555   8.535
19515WAT     H258788   5.662   9.707   8.589
19516WAT      O58789   4.221   3.182   8.553
19516WAT     H158790   4.299   3.239   8.578
19516WAT     H258791   4.217   3.102   8.611
19517WAT      O58792   7.913   6.805   9.587
19517WAT     H158793   7.850   6.794   9.664
19517WAT     H258794   8.004   6.825   9.621
19518WAT      O58795   5.732   5.024   0.233
19518WAT     H158796   5.750   4.940   0.283
19518WAT     H258797   5.733   5.006   0.134
19519WAT      O58798   4.368   3.397   7.604
19519WAT     H158799   4.317   3.466   7.656
19519WAT     H258800   4.313   3.314   7.596
19520WAT      O58801   2.164   4.511   5.869
19520WAT     H158802   2.224   4.469   5.937
19520WAT     H258803   2.092   4.447   5.844
19521WAT      O58804   8.076   9.063   2.190
19521WAT     H158805   8.168   9.025   2.181
19521WAT     H258806   8.081   9.163   2.201
19522WAT      O58807   9.882   9.535   3.127
19522WAT     H158808   9.943   9.456   3.127
19522WAT     H258809   9.844   9.549   3.218
19523WAT      O58810   6.810   7.643   1.655
19523WAT     H158811   6.886   7.577   1.653
19523WAT     H258812   6.787   7.665   1.750
19524WAT      O58813   7.590   6.035   3.615
19524WAT     H158814   7.523   6.052   3.542
19524WAT     H258815   7.562   6.084   3.697
19525WAT      O58816   1.187   6.175   3.544
19525WAT     H158817   1.139   6.247   3.494
19525WAT     H258818   1.148   6.086   3.522
19526WAT      O58819   9.710   1.554   1.810
19526WAT     H158820   9.653   1.473   1.820
19526WAT     H258821   9.723   1.598   1.899
19527WAT      O58822   6.243   6.389   3.128
19527WAT     H158823   6.287   6.379   3.039
19527WAT     H258824   6.145   6.401   3.115
19528WAT      O58825   5.611   5.731   2.220
19528WAT     H158826   5.676   5.788   2.270
19528WAT     H258827   5.613   5.638   2.256
19529WAT      O58828   6.515   3.765   0.116
19529WAT     H158829   6.544   3.671   0.097
19529WAT     H258830   6.570   3.802   0.191
19530WAT      O58831   9.598   3.384   5.009
19530WAT     H158832   9.607   3.483   5.001
19530WAT     H258833   9.686   3.341   4.986
19531WAT      O58834   5.645   1.920   6.496
19531WAT     H158835   5.692   1.917   6.408
19531WAT     H258836   5.584   1.999   6.498
19532WAT      O58837   7.839   7.299   8.378
19532WAT     H158838   7.810   7.386   8.339
19532WAT     H258839   7.883   7.243   8.307
19533WAT      O58840   0.663   4.355   1.493
19533WAT     H158841   0.650   4.440   1.442
19533WAT     H258842   0.574   4.311   1.507
19534WAT      O58843   9.010   3.650   4.393
19534WAT     H158844   9.048   3.734   4.430
19534WAT     H258845   9.078   3.577   4.400
19535WAT      O58846   3.929   5.464   1.854
19535WAT     H158847   4.007   5.402   1.865
19535WAT     H258848   3.959   5.558   1.873
19536WAT      O58849   8.244   0.095   2.186
19536WAT     H158850   8.221   0.156   2.110
19536WAT     H258851   8.314   0.138   2.243
19537WAT      O58852   4.877   4.964   8.446
19537WAT     H158853   4.939   4.897   8.486
19537WAT     H258854   4.851   5.031   8.516
19538WAT      O58855   4.750   6.353   3.683
19538WAT     H158856   4.737   6.276   3.621
19538WAT     H258857   4.729   6.324   3.777
19539WAT      O58858   1.748   1.105   4.951
19539WAT     H158859   1.700   1.018   4.966
19539WAT     H258860   1.801   1.099   4.867
19540WAT      O58861   1.712   1.866   7.783
19540WAT     H158862   1.778   1.906   7.719
19540WAT     H258863   1.753   1.863   7.875
19541WAT      O58864   3.763   0.016   8.839
19541WAT     H158865   3.817  -0.062   8.871
19541WAT     H258866   3.674  -0.017   8.807
19542WAT      O58867   3.811   1.932   0.963
19542WAT     H158868   3.900   1.927   0.919
19542WAT     H258869   3.743   1.965   0.897
19543WAT      O58870   5.808   1.661   3.463
19543WAT     H158871   5.875   1.601   3.505
19543WAT     H258872   5.800   1.745   3.516
19544WAT      O58873   8.759   2.156   6.879
19544WAT     H158874   8.848   2.154   6.923
19544WAT     H258875   8.746   2.245   6.833
19545WAT      O58876   3.224   7.502   7.342
19545WAT     H158877   3.174   7.424   7.380
19545WAT     H258878   3.295   7.470   7.280
19546WAT      O58879   7.615   1.863   7.769
19546WAT     H158880   7.629   1.881   7.672
19546WAT     H258881   7.692   1.809   7.804
19547WAT      O58882   4.087   1.647   0.982
19547WAT     H158883   4.150   1.718   1.013
19547WAT     H258884   3.997   1.662   1.022
19548WAT      O58885   1.927   6.910   4.277
19548WAT     H158886   1.955   7.001   4.249
19548WAT     H258887   2.004   6.861   4.316
19549WAT      O58888   8.416   5.394   5.892
19549WAT     H158889   8.327   5.349   5.901
19549WAT     H258890   8.431   5.456   5.969
19550WAT      O58891   8.395   9.003   6.353
19550WAT     H158892   8.428   8.953   6.273
19550WAT     H258893   8.316   9.058   6.327
19551WAT      O58894   1.025   8.934   6.440
19551WAT     H158895   1.007   8.916   6.344
19551WAT     H258896   1.050   9.030   6.452
19552WAT      O58897   4.107   6.833   6.718
19552WAT     H158898   4.154   6.844   6.805
19552WAT     H258899   4.010   6.856   6.730
19553WAT      O58900   9.746   9.083   9.124
19553WAT     H158901   9.770   9.118   9.033
19553WAT     H258902   9.770   8.987   9.130
19554WAT      O58903   6.289   8.456   6.352
19554WAT     H158904   6.319   8.550   6.366
19554WAT     H258905   6.208   8.455   6.294
19555WAT      O58906   5.461   0.838   7.138
19555WAT     H158907   5.466   0.742   7.165
19555WAT     H258908   5.383   0.882   7.185
19556WAT      O58909   7.060   5.310   9.588
19556WAT     H158910   7.156   5.330   9.568
19556WAT     H258911   7.004   5.336   9.509
19557WAT      O58912   9.888   8.046   6.790
19557WAT     H158913   9.941   7.967   6.758
19557WAT     H258914   9.796   8.042   6.750
19558WAT      O58915   1.034   6.597   0.640
19558WAT     H158916   0.975   6.548   0.576
19558WAT     H258917   1.103   6.534   0.677
19559WAT      O58918   4.422   2.277   3.094
19559WAT     H158919   4.376   2.220   3.026
19559WAT     H258920   4.493   2.223   3.139
19560WAT      O58921   7.676   1.682   8.617
19560WAT     H158922   7.715   1.612   8.677
19560WAT     H258923   7.579   1.663   8.601
19561WAT      O58924   9.141   5.392   5.336
19561WAT     H158925   9.190   5.363   5.254
19561WAT     H258926   9.186   5.471   5.377
19562WAT      O58927   0.759   3.780   4.941
19562WAT     H158928   0.714   3.701   4.897
19562WAT     H258929   0.763   3.856   4.877
19563WAT      O58930   8.378   9.179   1.350
19563WAT     H158931   8.431   9.232   1.283
19563WAT     H258932   8.285   9.167   1.316
19564WAT      O58933   8.686   3.215   4.760
19564WAT     H158934   8.592   3.246   4.745
19564WAT     H258935   8.747   3.294   4.764
19565WAT      O58936   8.298   5.088   0.743
19565WAT     H158937   8.384   5.070   0.695
19565WAT     H258938   8.318   5.125   0.833
19566WAT      O58939   6.816   8.834   9.833
19566WAT     H158940   6.882   8.793   9.770
19566WAT     H258941   6.776   8.916   9.792
19567WAT      O58942   1.228   5.062   5.603
19567WAT     H158943   1.187   5.149   5.575
19567WAT     H258944   1.266   5.070   5.695
19568WAT      O58945   6.147   6.054   9.631
19568WAT     H158946   6.207   5.977   9.611
19568WAT     H258947   6.052   6.029   9.613
19569WAT      O58948   1.092   7.880   5.498
19569WAT     H158949   1.054   7.914   5.584
19569WAT     H258950   1.168   7.939   5.469
19570WAT      O58951   6.682   0.038   5.182
19570WAT     H158952   6.641   0.067   5.095
19570WAT     H258953   6.616   0.052   5.256
19571WAT      O58954   9.336   8.165   2.175
19571WAT     H158955   9.258   8.167   2.113
19571WAT     H258956   9.303   8.170   2.270
19572WAT      O58957   6.860   2.672   9.023
19572WAT     H158958   6.853   2.758   8.973
19572WAT     H258959   6.782   2.614   9.001
19573WAT      O58960   5.701   1.733   5.237
19573WAT     H158961   5.652   1.659   5.190
19573WAT     H258962   5.648   1.817   5.233
19574WAT      O58963   7.733   1.708   3.585
19574WAT     H158964   7.699   1.775   3.518
19574WAT     H258965   7.671   1.704   3.663
19575WAT      O58966   9.009   0.668   3.612
19575WAT     H158967   8.952   0.717   3.546
19575WAT     H258968   9.076   0.612   3.563
19576WAT      O58969   9.807   4.706   7.694
19576WAT     H158970   9.770   4.711   7.601
19576WAT     H258971   9.902   4.676   7.691
19577WAT      O58972   2.827   5.865   3.423
19577WAT     H158973   2.765   5.934   3.385
19577WAT     H258974   2.920   5.900   3.422
19578WAT      O58975   1.478   0.185   5.740
19578WAT     H158976   1.496   0.090   5.715
19578WAT     H258977   1.560   0.225   5.780
19579WAT      O58978   9.083   9.351   9.370
19579WAT     H158979   9.100   9.399   9.284
19579WAT     H258980   8.990   9.314   9.369
19580WAT      O58981   6.714   3.421   2.441
19580WAT     H158982   6.700   3.339   2.496
19580WAT     H258983   6.670   3.410   2.352
19581WAT      O58984   0.185   2.520   1.513
19581WAT     H158985   0.251   2.524   1.438
19581WAT     H258986   0.165   2.613   1.545
19582WAT      O58987   1.572   5.711   1.680
19582WAT     H158988   1.580   5.771   1.600
19582WAT     H258989   1.616   5.624   1.660
19583WAT      O58990   4.786   6.724   7.947
19583WAT     H158991   4.863   6.784   7.928
19583WAT     H258992   4.816   6.629   7.946
19584WAT      O58993   0.951   8.789   2.548
19584WAT     H158994   1.004   8.865   2.509
19584WAT     H258995   0.854   8.808   2.540
19585WAT      O58996   9.757   1.799   2.444
19585WAT     H158997   9.783   1.888   2.481
19585WAT     H258998   9.664   1.805   2.407
19586WAT      O58999   5.513   8.731   9.254
19586WAT     H159000   5.575   8.663   9.291
19586WAT     H259001   5.437   8.685   9.207
19587WAT      O59002   5.101   2.814   1.317
19587WAT     H159003   5.123   2.738   1.378
19587WAT     H259004   5.156   2.894   1.342
19588WAT      O59005   6.343   4.709   5.904
19588WAT     H159006   6.252   4.710   5.945
19588WAT     H259007   6.350   4.780   5.834
19589WAT      O59008   9.331   4.621   3.275
19589WAT     H159009   9.247   4.642   3.225
19589WAT     H259010   9.406   4.611   3.211
19590WAT      O59011   5.046   4.241   1.585
19590WAT     H159012   5.108   4.314   1.555
19590WAT     H259013   4.952   4.275   1.587
19591WAT      O59014   2.155   1.176   1.802
19591WAT     H159015   2.190   1.143   1.889
19591WAT     H259016   2.070   1.129   1.780
19592WAT      O59017   8.523   5.176   6.595
19592WAT     H159018   8.608   5.163   6.545
19592WAT     H259019   8.446   5.150   6.537
19593WAT      O59020   6.203   1.165   5.158
19593WAT     H159021   6.256   1.139   5.077
19593WAT     H259022   6.138   1.237   5.133
19594WAT      O59023   3.203   1.217   8.473
19594WAT     H159024   3.170   1.165   8.394
19594WAT     H259025   3.289   1.178   8.505
19595WAT      O59026   9.554   8.911   7.676
19595WAT     H159027   9.532   8.920   7.578
19595WAT     H259028   9.548   9.001   7.719
19596WAT      O59029   4.655   2.865   9.779
19596WAT     H159030   4.742   2.869   9.829
19596WAT     H259031   4.583   2.909   9.834
19597WAT      O59032   2.927   2.683   7.225
19597WAT     H159033   2.986   2.635   7.160
19597WAT     H259034   2.837   2.639   7.228
19598WAT      O59035   6.208   3.267   8.289
19598WAT     H159036   6.206   3.281   8.388
19598WAT     H259037   6.299   3.235   8.262
19599WAT      O59038   1.683   6.255   8.758
19599WAT     H159039   1.626   6.183   8.718
19599WAT     H259040   1.629   6.308   8.823
19600WAT      O59041   8.774   4.465   8.179
19600WAT     H159042   8.861   4.439   8.221
19600WAT     H259043   8.775   4.441   8.082
19601WAT      O59044   3.262   1.128   5.040
19601WAT     H159045   3.286   1.085   5.127
19601WAT     H259046   3.167   1.159   5.042
19602WAT      O59047   1.408   3.091   1.409
19602WAT     H159048   1.479   3.106   1.341
19602WAT     H259049   1.407   2.994   1.435
19603WAT      O59050   6.908   3.760   0.515
19603WAT     H159051   6.902   3.662   0.535
19603WAT     H259052   6.964   3.805   0.584
19604WAT      O59053   8.749   9.176   7.527
19604WAT     H159054   8.812   9.225   7.587
19604WAT     H259055   8.688   9.241   7.482
19605WAT      O59056   3.718   2.475   8.370
19605WAT     H159057   3.811   2.441   8.354
19605WAT     H259058   3.653   2.400   8.361
19606WAT      O59059   6.691   4.582   6.499
19606WAT     H159060   6.714   4.628   6.413
19606WAT     H259061   6.613   4.628   6.541
19607WAT      O59062   2.530   8.791   2.142
19607WAT     H159063   2.561   8.886   2.155
19607WAT     H259064   2.533   8.744   2.230
19608WAT      O59065   2.916   6.411   5.769
19608WAT     H159066   2.913   6.368   5.679
19608WAT     H259067   3.009   6.405   5.806
19609WAT      O59068   8.635   2.105   0.284
19609WAT     H159069   8.581   2.161   0.222
19609WAT     H259070   8.716   2.156   0.313
19610WAT      O59071   5.393   3.460   0.319
19610WAT     H159072   5.335   3.399   0.266
19610WAT     H259073   5.435   3.528   0.259
19611WAT      O59074   9.049   2.486   0.253
19611WAT     H159075   8.970   2.536   0.289
19611WAT     H259076   9.088   2.537   0.176
19612WAT      O59077   6.207   3.283   4.350
19612WAT     H159078   6.168   3.192   4.335
19612WAT     H259079   6.263   3.309   4.272
19613WAT      O59080   1.601   3.573   7.180
19613WAT     H159081   1.667   3.498   7.187
19613WAT     H259082   1.644   3.652   7.136
19614WAT      O59083   5.612   3.759   8.244
19614WAT     H159084   5.661   3.845   8.229
19614WAT     H259085   5.531   3.757   8.185
19615WAT      O59086   7.391   5.934   2.921
19615WAT     H159087   7.390   5.845   2.968
19615WAT     H259088   7.348   5.924   2.831
19616WAT      O59089   1.468   7.176   1.155
19616WAT     H159090   1.481   7.169   1.056
19616WAT     H259091   1.392   7.117   1.182
19617WAT      O59092   1.790   7.466   8.201
19617WAT     H159093   1.881   7.459   8.161
19617WAT     H259094   1.760   7.561   8.202
19618WAT      O59095   0.534   2.513   5.185
19618WAT     H159096   0.460   2.578   5.205
19618WAT     H259097   0.499   2.420   5.189
19619WAT      O59098   8.626   4.864   5.533
19619WAT     H159099   8.581   4.936   5.586
19619WAT     H259100   8.685   4.811   5.594
19620WAT      O59101   8.453   9.418   7.488
19620WAT     H159102   8.492   9.438   7.578
19620WAT     H259103   8.376   9.355   7.497
19621WAT      O59104   2.959   8.697   8.600
19621WAT     H159105   2.986   8.689   8.504
19621WAT     H259106   2.964   8.793   8.628
19622WAT      O59107   4.095   4.763   2.036
19622WAT     H159108   4.172   4.786   2.097
19622WAT     H259109   4.122   4.781   1.942
19623WAT      O59110   3.728   9.848   1.165
19623WAT     H159111   3.777   9.826   1.080
19623WAT     H259112   3.663   9.775   1.186
19624WAT      O59113   6.454   6.056   0.321
19624WAT     H159114   6.363   6.086   0.291
19624WAT     H259115   6.448   6.017   0.413
19625WAT      O59116   7.374   8.610   8.766
19625WAT     H159117   7.275   8.616   8.756
19625WAT     H259118   7.400   8.514   8.779
19626WAT      O59119   8.148   3.260   7.489
19626WAT     H159120   8.145   3.276   7.588
19626WAT     H259121   8.105   3.172   7.469
19627WAT      O59122   0.700   7.438   0.852
19627WAT     H159123   0.717   7.377   0.929
19627WAT     H259124   0.745   7.402   0.771
19628WAT      O59125   2.782   3.669   5.938
19628WAT     H159126   2.756   3.603   6.008
19628WAT     H259127   2.833   3.623   5.865
19629WAT      O59128   4.524   8.903   8.150
19629WAT     H159129   4.456   8.865   8.212
19629WAT     H259130   4.510   9.002   8.140
19630WAT      O59131   6.632   4.961   1.163
19630WAT     H159132   6.693   5.005   1.098
19630WAT     H259133   6.676   4.878   1.198
19631WAT      O59134   9.429   9.490   3.046
19631WAT     H159135   9.372   9.549   2.988
19631WAT     H259136   9.373   9.446   3.115
19632WAT      O59137   0.927   1.900   5.417
19632WAT     H159138   0.902   1.964   5.489
19632WAT     H259139   0.846   1.878   5.363
19633WAT      O59140   2.582   0.272   7.415
19633WAT     H159141   2.557   0.198   7.476
19633WAT     H259142   2.501   0.302   7.364
19634WAT      O59143   8.996   8.680   4.303
19634WAT     H159144   8.989   8.618   4.225
19634WAT     H259145   8.915   8.669   4.362
19635WAT      O59146   5.656   7.872   6.689
19635WAT     H159147   5.589   7.934   6.730
19635WAT     H259148   5.729   7.925   6.645
19636WAT      O59149   1.322   5.877   9.295
19636WAT     H159150   1.324   5.858   9.197
19636WAT     H259151   1.347   5.795   9.346
19637WAT      O59152   5.198   1.513   1.255
19637WAT     H159153   5.187   1.449   1.331
19637WAT     H259154   5.282   1.566   1.268
19638WAT      O59155   8.098   1.612   0.971
19638WAT     H159156   8.088   1.682   0.900
19638WAT     H259157   8.177   1.555   0.950
19639WAT      O59158   4.663   4.490   3.869
19639WAT     H159159   4.650   4.403   3.917
19639WAT     H259160   4.617   4.486   3.780
19640WAT      O59161   8.824   5.805   5.958
19640WAT     H159162   8.826   5.860   5.875
19640WAT     H259163   8.915   5.767   5.976
19641WAT      O59164   2.802   9.157   2.031
19641WAT     H159165   2.790   9.146   1.932
19641WAT     H259166   2.893   9.196   2.049
19642WAT      O59167   9.019   3.537   2.193
19642WAT     H159168   9.036   3.634   2.208
19642WAT     H259169   9.023   3.517   2.095
19643WAT      O59170   7.125   9.331   0.368
19643WAT     H159171   7.038   9.324   0.417
19643WAT     H259172   7.150   9.427   0.358
19644WAT      O59173   6.138   8.049   4.816
19644WAT     H159174   6.198   8.013   4.887
19644WAT     H259175   6.167   8.142   4.792
19645WAT      O59176   2.384   2.377   0.943
19645WAT     H159177   2.335   2.462   0.926
19645WAT     H259178   2.387   2.359   1.041
19646WAT      O59179   3.392   7.320   7.204
19646WAT     H159180   3.419   7.308   7.300
19646WAT     H259181   3.474   7.334   7.148
19647WAT      O59182   8.479   0.835   2.018
19647WAT     H159183   8.539   0.913   2.037
19647WAT     H259184   8.384   0.864   2.028
19648WAT      O59185   8.351   0.898   9.010
19648WAT     H159186   8.288   0.900   9.087
19648WAT     H259187   8.322   0.827   8.945
19649WAT      O59188   1.127   0.912   5.071
19649WAT     H159189   1.032   0.934   5.092
19649WAT     H259190   1.184   0.993   5.082
19650WAT      O59191   2.525   5.767   7.535
19650WAT     H159192   2.582   5.690   7.506
19650WAT     H259193   2.449   5.779   7.471
19651WAT      O59194   6.920   6.957   5.273
19651WAT     H159195   6.870   6.909   5.201
19651WAT     H259196   6.986   7.020   5.233
19652WAT      O59197   7.788   8.984   5.620
19652WAT     H159198   7.794   8.910   5.688
19652WAT     H259199   7.860   8.971   5.551
19653WAT      O59200   3.058   9.162   3.277
19653WAT     H159201   2.993   9.151   3.202
19653WAT     H259202   3.151   9.169   3.241
19654WAT      O59203   7.640   4.466   9.277
19654WAT     H159204   7.688   4.394   9.227
19654WAT     H259205   7.541   4.456   9.263
19655WAT      O59206   3.751   9.546   3.583
19655WAT     H159207   3.727   9.610   3.656
19655WAT     H259208   3.682   9.474   3.578
19656WAT      O59209   0.078   2.746   8.511
19656WAT     H159210   0.066   2.741   8.412
19656WAT     H259211   0.079   2.842   8.539
19657WAT      O59212   7.963   3.831   7.100
19657WAT     H159213   7.975   3.884   7.016
19657WAT     H259214   8.015   3.746   7.094
19658WAT      O59215   7.723   8.930   4.898
19658WAT     H159216   7.641   8.978   4.930
19658WAT     H259217   7.791   8.928   4.971
19659WAT      O59218   9.013   0.967   1.838
19659WAT     H159219   9.037   0.933   1.929
19659WAT     H259220   9.078   0.931   1.770
19660WAT      O59221   3.034   7.927   7.827
19660WAT     H159222   2.990   7.843   7.858
19660WAT     H259223   3.093   7.964   7.899
19661WAT      O59224   0.755   1.249   1.138
19661WAT     H159225   0.660   1.222   1.122
19661WAT     H259226   0.758   1.343   1.172
19662WAT      O59227   7.543   2.095   3.150
19662WAT     H159228   7.557   2.140   3.062
19662WAT     H259229   7.469   2.028   3.141
19663WAT      O59230   4.836   7.378   1.513
19663WAT     H159231   4.928   7.409   1.537
19663WAT     H259232   4.831   7.279   1.518
19664WAT      O59233   8.533   1.627   7.880
19664WAT     H159234   8.579   1.668   7.801
19664WAT     H259235   8.564   1.672   7.963
19665WAT      O59236   6.004   5.185   9.270
19665WAT     H159237   5.942   5.125   9.221
19665WAT     H259238   6.085   5.202   9.213
19666WAT      O59239   8.924   2.665   3.803
19666WAT     H159240   8.921   2.727   3.724
19666WAT     H259241   8.864   2.587   3.786
19667WAT      O59242   6.502   3.561   6.664
19667WAT     H159243   6.472   3.483   6.608
19667WAT     H259244   6.435   3.576   6.737
19668WAT      O59245   4.137   2.948   3.914
19668WAT     H159246   4.229   2.916   3.889
19668WAT     H259247   4.087   2.875   3.959
19669WAT      O59248   4.494   2.518   3.014
19669WAT     H159249   4.484   2.424   3.044
19669WAT     H259250   4.440   2.532   2.930
19670WAT      O59251   1.876   4.677   0.278
19670WAT     H159252   1.785   4.677   0.235
19670WAT     H259253   1.937   4.736   0.225
19671WAT      O59254   4.872   9.786   6.078
19671WAT     H159255   4.870   9.709   6.143
19671WAT     H259256   4.871   9.750   5.985
19672WAT      O59257   6.277   0.264   7.525
19672WAT     H159258   6.328   0.192   7.478
19672WAT     H259259   6.331   0.349   7.525
19673WAT      O59260   5.112   0.899   9.254
19673WAT     H159261   5.075   0.856   9.337
19673WAT     H259262   5.042   0.957   9.212
19674WAT      O59263   7.073   3.598   3.743
19674WAT     H159264   6.976   3.621   3.752
19674WAT     H259265   7.128   3.670   3.785
19675WAT      O59266   5.043   0.653   8.413
19675WAT     H159267   4.997   0.656   8.502
19675WAT     H259268   5.135   0.691   8.421
19676WAT      O59269   1.125   8.084   8.105
19676WAT     H159270   1.078   7.996   8.094
19676WAT     H259271   1.078   8.154   8.050
19677WAT      O59272   3.213   4.201   3.266
19677WAT     H159273   3.201   4.174   3.362
19677WAT     H259274   3.241   4.122   3.212
19678WAT      O59275   7.181   1.005   7.972
19678WAT     H159276   7.131   1.023   7.887
19678WAT     H259277   7.279   1.014   7.957
19679WAT      O59278   1.088   2.197   3.353
19679WAT     H159279   1.144   2.183   3.272
19679WAT     H259280   1.000   2.235   3.326
19680WAT      O59281   5.984   9.047   2.769
19680WAT     H159282   5.996   8.953   2.800
19680WAT     H259283   6.060   9.103   2.803
19681WAT      O59284   4.568   3.308   6.549
19681WAT     H159285   4.518   3.317   6.635
19681WAT     H259286   4.664   3.329   6.565
19682WAT      O59287   0.398   7.677   6.030
19682WAT     H159288   0.375   7.741   5.957
19682WAT     H259289   0.317   7.657   6.085
19683WAT      O59290   6.194   7.828   1.289
19683WAT     H159291   6.197   7.762   1.364
19683WAT     H259292   6.262   7.803   1.220
19684WAT      O59293   1.718   5.215   0.592
19684WAT     H159294   1.725   5.156   0.673
19684WAT     H259295   1.745   5.308   0.616
19685WAT      O59296   5.902   3.000   9.453
19685WAT     H159297   5.985   3.033   9.498
19685WAT     H259298   5.885   2.906   9.480
19686WAT      O59299   8.202   8.442   9.692
19686WAT     H159300   8.240   8.392   9.614
19686WAT     H259301   8.222   8.540   9.683
19687WAT      O59302   7.280   8.262   0.759
19687WAT     H159303   7.188   8.281   0.793
19687WAT     H259304   7.346   8.321   0.807
19688WAT      O59305   7.014   2.854   2.280
19688WAT     H159306   6.976   2.928   2.223
19688WAT     H259307   6.940   2.812   2.333
19689WAT      O59308   6.089   9.425   2.407
19689WAT     H159309   6.046   9.377   2.331
19689WAT     H259310   6.080   9.523   2.394
19690WAT      O59311   4.692   4.357   3.215
19690WAT     H159312   4.597   4.387   3.207
19690WAT     H259313   4.744   4.389   3.136
19691WAT      O59314   7.880   3.962   1.577
19691WAT     H159315   7.973   3.993   1.559
19691WAT     H259316   7.841   4.016   1.652
19692WAT      O59317   7.578   2.838   0.622
19692WAT     H159318   7.677   2.845   0.635
19692WAT     H259319   7.535   2.923   0.652
19693WAT      O59320   2.672   5.625   8.457
19693WAT     H159321   2.604   5.553   8.440
19693WAT     H259322   2.737   5.628   8.381
19694WAT      O59323   3.867   0.255   0.527
19694WAT     H159324   3.924   0.337   0.520
19694WAT     H259325   3.924   0.177   0.553
19695WAT      O59326   7.473   8.159   4.872
19695WAT     H159327   7.400   8.147   4.939
19695WAT     H259328   7.441   8.217   4.797
19696WAT      O59329   4.445   9.464   5.499
19696WAT     H159330   4.481   9.377   5.466
19696WAT     H259331   4.504   9.539   5.469
19697WAT      O59332   3.805   9.648   4.810
19697WAT     H159333   3.853   9.709   4.747
19697WAT     H259334   3.870   9.590   4.858
19698WAT      O59335   4.275   1.793   2.287
19698WAT     H159336   4.289   1.885   2.323
19698WAT     H259337   4.279   1.795   2.187
19699WAT      O59338   6.225   1.858   0.614
19699WAT     H159339   6.169   1.776   0.621
19699WAT     H259340   6.321   1.836   0.632
19700WAT      O59341   9.063   3.021   8.750
19700WAT     H159342   9.152   2.976   8.753
19700WAT     H259343   8.995   2.962   8.795
19701WAT      O59344   3.375   9.188   9.302
19701WAT     H159345   3.418   9.263   9.352
19701WAT     H259346   3.430   9.105   9.313
19702WAT      O59347   9.321   2.942   8.714
19702WAT     H159348   9.342   2.855   8.667
19702WAT     H259349   9.361   3.017   8.662
19703WAT      O59350   3.189   6.519   7.100
19703WAT     H159351   3.245   6.435   7.100
19703WAT     H259352   3.096   6.496   7.073
19704WAT      O59353   4.443   7.915   0.612
19704WAT     H159354   4.353   7.879   0.586
19704WAT     H259355   4.497   7.841   0.652
19705WAT      O59356   0.280   9.712   4.573
19705WAT     H159357   0.264   9.689   4.477
19705WAT     H259358   0.309   9.807   4.580
19706WAT      O59359   2.316   2.795   7.512
19706WAT     H159360   2.252   2.778   7.587
19706WAT     H259361   2.314   2.892   7.488
19707WAT      O59362   2.481   2.852   2.415
19707WAT     H159363   2.519   2.786   2.481
19707WAT     H259364   2.524   2.941   2.429
19708WAT      O59365   8.914   2.817   3.599
19708WAT     H159366   8.958   2.768   3.524
19708WAT     H259367   8.911   2.915   3.577
19709WAT      O59368   5.291   0.209   6.044
19709WAT     H159369   5.212   0.185   6.100
19709WAT     H259370   5.281   0.168   5.953
19710WAT      O59371   9.034   6.415   8.924
19710WAT     H159372   9.104   6.444   8.990
19710WAT     H259373   9.033   6.315   8.918
19711WAT      O59374   6.446   3.592   0.372
19711WAT     H159375   6.477   3.541   0.291
19711WAT     H259376   6.346   3.589   0.377
19712WAT      O59377   7.422   9.627   2.879
19712WAT     H159378   7.335   9.614   2.832
19712WAT     H259379   7.488   9.668   2.816
19713WAT      O59380   2.348   0.477   4.049
19713WAT     H159381   2.394   0.560   4.016
19713WAT     H259382   2.268   0.503   4.103
19714WAT      O59383   7.978   4.443   7.458
19714WAT     H159384   7.913   4.512   7.426
19714WAT     H259385   8.069   4.484   7.466
19715WAT      O59386   1.913   6.416   9.775
19715WAT     H159387   1.941   6.512   9.772
19715WAT     H259388   1.872   6.391   9.687
19716WAT      O59389   5.031   8.166   9.883
19716WAT     H159390   5.091   8.118   9.948
19716WAT     H259391   4.955   8.208   9.933
19717WAT      O59392   9.780   0.869   2.675
19717WAT     H159393   9.843   0.926   2.622
19717WAT     H259394   9.821   0.847   2.763
19718WAT      O59395   7.189   3.029   2.003
19718WAT     H159396   7.217   3.093   1.932
19718WAT     H259397   7.098   3.054   2.037
19719WAT      O59398   0.867   2.396   3.296
19719WAT     H159399   0.958   2.437   3.285
19719WAT     H259400   0.799   2.456   3.254
19720WAT      O59401   6.339   7.828   6.880
19720WAT     H159402   6.315   7.791   6.790
19720WAT     H259403   6.270   7.799   6.946
19721WAT      O59404   9.488   1.805   9.082
19721WAT     H159405   9.455   1.821   8.989
19721WAT     H259406   9.539   1.719   9.086
19722WAT      O59407   2.304   7.954   2.542
19722WAT     H159408   2.333   7.880   2.603
19722WAT     H259409   2.208   7.976   2.560
19723WAT      O59410   6.763   5.615   9.276
19723WAT     H159411   6.754   5.704   9.321
19723WAT     H259412   6.716   5.617   9.188
19724WAT      O59413   3.707   0.057   2.884
19724WAT     H159414   3.802   0.079   2.907
19724WAT     H259415   3.645   0.098   2.951
19725WAT      O59416   3.748   0.267   8.089
19725WAT     H159417   3.825   0.314   8.047
19725WAT     H259418   3.752   0.170   8.066
19726WAT      O59419   0.675   0.398   4.204
19726WAT     H159420   0.775   0.392   4.208
19726WAT     H259421   0.649   0.460   4.130
19727WAT      O59422   3.227   7.356   0.438
19727WAT     H159423   3.325   7.340   0.426
19727WAT     H259424   3.213   7.425   0.509
19728WAT      O59425   9.859   0.082   8.340
19728WAT     H159426   9.891   0.031   8.420
19728WAT     H259427   9.883   0.179   8.350
19729WAT      O59428   4.913   8.520   9.273
19729WAT     H159429   4.820   8.542   9.301
19729WAT     H259430   4.970   8.603   9.281
19730WAT      O59431   2.985   7.088   4.484
19730WAT     H159432   3.043   7.163   4.453
19730WAT     H259433   2.893   7.100   4.447
19731WAT      O59434   4.112   4.014   8.039
19731WAT     H159435   4.093   4.035   8.135
19731WAT     H259436   4.064   4.079   7.981
19732WAT      O59437   1.759   7.836   5.298
19732WAT     H159438   1.783   7.798   5.387
19732WAT     H259439   1.687   7.905   5.310
19733WAT      O59440   1.157   5.214   8.132
19733WAT     H159441   1.200   5.128   8.158
19733WAT     H259442   1.124   5.208   8.038
19734WAT      O59443   7.577   2.342   5.633
19734WAT     H159444   7.674   2.336   5.609
19734WAT     H259445   7.525   2.367   5.551
19735WAT      O59446   3.767   4.573   3.135
19735WAT     H159447   3.851   4.569   3.080
19735WAT     H259448   3.704   4.639   3.093
19736WAT      O59449   6.129   1.140   2.427
19736WAT     H159450   6.102   1.197   2.504
19736WAT     H259451   6.048   1.112   2.375
19737WAT      O59452   7.963   5.775   8.611
19737WAT     H159453   7.909   5.742   8.533
19737WAT     H259454   7.922   5.860   8.645
19738WAT      O59455   8.365   7.187   9.674
19738WAT     H159456   8.426   7.211   9.599
19738WAT     H259457   8.360   7.263   9.738
19739WAT      O59458   1.427   3.186   3.940
19739WAT     H159459   1.454   3.140   3.855
19739WAT     H259460   1.425   3.119   4.015
19740WAT      O59461   3.201   9.799   4.882
19740WAT     H159462   3.113   9.823   4.839
19740WAT     H259463   3.256   9.745   4.818
19741WAT      O59464   2.685   9.321   5.850
19741WAT     H159465   2.649   9.231   5.875
19741WAT     H259466   2.719   9.319   5.756
19742WAT      O59467   7.925   3.231   2.914
19742WAT     H159468   7.887   3.320   2.941
19742WAT     H259469   7.908   3.217   2.817
19743WAT      O59470   7.861   9.297   0.470
19743WAT     H159471   7.794   9.365   0.441
19743WAT     H259472   7.952   9.339   0.470
19744WAT      O59473   8.327   6.140   4.795
19744WAT     H159474   8.397   6.069   4.796
19744WAT     H259475   8.279   6.141   4.882
19745WAT      O59476   5.076   6.874   8.921
19745WAT     H159477   5.115   6.834   9.005
19745WAT     H259478   5.009   6.944   8.946
19746WAT      O59479   7.271   4.652   3.610
19746WAT     H159480   7.289   4.567   3.660
19746WAT     H259481   7.258   4.726   3.675
19747WAT      O59482   7.203   5.303   7.926
19747WAT     H159483   7.296   5.273   7.948
19747WAT     H259484   7.166   5.244   7.855
19748WAT      O59485   0.660   0.273   2.578
19748WAT     H159486   0.581   0.282   2.518
19748WAT     H259487   0.679   0.176   2.594
19749WAT      O59488   0.392   3.677   8.960
19749WAT     H159489   0.347   3.676   8.871
19749WAT     H259490   0.462   3.606   8.964
19750WAT      O59491   0.838   3.767   8.586
19750WAT     H159492   0.760   3.725   8.632
19750WAT     H259493   0.851   3.724   8.497
19751WAT      O59494   9.100   6.674   7.138
19751WAT     H159495   9.063   6.747   7.081
19751WAT     H259496   9.121   6.710   7.229
19752WAT      O59497   2.658   8.493   5.499
19752WAT     H159498   2.597   8.507   5.576
19752WAT     H259499   2.659   8.575   5.442
19753WAT      O59500   8.496   7.771   8.940
19753WAT     H159501   8.544   7.856   8.960
19753WAT     H259502   8.458   7.775   8.847
19754WAT      O59503   5.682   7.130   0.211
19754WAT     H159504   5.666   7.116   0.308
19754WAT     H259505   5.692   7.227   0.192
19755WAT      O59506   4.964   3.661   1.207
19755WAT     H159507   5.031   3.700   1.144
19755WAT     H259508   4.999   3.670   1.301
19756WAT      O59509   3.960   7.913   1.546
19756WAT     H159510   3.971   7.961   1.633
19756WAT     H259511   4.002   7.966   1.473
19757WAT      O59512   2.137   8.771   2.351
19757WAT     H159513   2.159   8.839   2.281
19757WAT     H259514   2.202   8.695   2.345
19758WAT      O59515   3.997   0.805   1.746
19758WAT     H159516   4.019   0.772   1.654
19758WAT     H259517   4.046   0.750   1.814
19759WAT      O59518   4.221   6.401   3.288
19759WAT     H159519   4.237   6.351   3.373
19759WAT     H259520   4.143   6.463   3.299
19760WAT      O59521   6.092   6.865   1.719
19760WAT     H159522   5.994   6.875   1.701
19760WAT     H259523   6.112   6.771   1.745
19761WAT      O59524   1.159   6.227   8.102
19761WAT     H159525   1.216   6.221   8.184
19761WAT     H259526   1.063   6.212   8.127
19762WAT      O59527   3.385   4.790   7.969
19762WAT     H159528   3.435   4.710   7.938
19762WAT     H259529   3.364   4.781   8.067
19763WAT      O59530   9.586   8.041   8.663
19763WAT     H159531   9.609   8.021   8.759
19763WAT     H259532   9.608   8.136   8.643
19764WAT      O59533   3.728   8.416   9.531
19764WAT     H159534   3.648   8.470   9.503
19764WAT     H259535   3.699   8.325   9.559
19765WAT      O59536   3.692   1.110   2.146
19765WAT     H159537   3.680   1.077   2.052
19765WAT     H259538   3.789   1.130   2.161
19766WAT      O59539   4.455   0.469   7.300
19766WAT     H159540   4.450   0.511   7.391
19766WAT     H259541   4.532   0.405   7.297
19767WAT      O59542   4.833   7.620   0.110
19767WAT     H159543   4.810   7.602   0.015
19767WAT     H259544   4.787   7.554   0.169
19768WAT      O59545   3.401   9.756   3.165
19768WAT     H159546   3.417   9.722   3.258
19768WAT     H259547   3.305   9.743   3.141
19769WAT      O59548   0.251   8.596   6.124
19769WAT     H159549   0.284   8.532   6.054
19769WAT     H259550   0.185   8.549   6.182
19770WAT      O59551   1.039   9.172   9.760
19770WAT     H159552   1.084   9.138   9.678
19770WAT     H259553   0.941   9.182   9.742
19771WAT      O59554   6.935   0.441   3.393
19771WAT     H159555   6.915   0.392   3.478
19771WAT     H259556   6.928   0.378   3.316
19772WAT      O59557   6.952   8.522   9.508
19772WAT     H159558   6.953   8.501   9.606
19772WAT     H259559   6.863   8.498   9.470
19773WAT      O59560   3.697   7.998   3.513
19773WAT     H159561   3.637   8.059   3.564
19773WAT     H259562   3.657   7.979   3.423
19774WAT      O59563   9.192   1.285   3.158
19774WAT     H159564   9.167   1.380   3.140
19774WAT     H259565   9.109   1.230   3.170
19775WAT      O59566   1.478   9.720   2.204
19775WAT     H159567   1.452   9.624   2.195
19775WAT     H259568   1.397   9.777   2.204
19776WAT      O59569   0.109   2.372   1.117
19776WAT     H159570   0.199   2.413   1.129
19776WAT     H259571   0.057   2.424   1.049
19777WAT      O59572   7.357   5.779   3.334
19777WAT     H159573   7.450   5.812   3.348
19777WAT     H259574   7.295   5.822   3.400
19778WAT      O59575   6.406   5.267   4.032
19778WAT     H159576   6.342   5.243   3.960
19778WAT     H259577   6.373   5.348   4.081
19779WAT      O59578   8.659   4.679   9.652
19779WAT     H159579   8.674   4.729   9.567
19779WAT     H259580   8.692   4.734   9.729
19780WAT      O59581   7.918   4.812   8.451
19780WAT     H159582   7.899   4.883   8.383
19780WAT     H259583   7.839   4.803   8.511
19781WAT      O59584   6.595   5.572   9.045
19781WAT     H159585   6.502   5.603   9.025
19781WAT     H259586   6.633   5.529   8.964
19782WAT      O59587   3.059   4.505   3.807
19782WAT     H159588   2.965   4.535   3.790
19782WAT     H259589   3.123   4.570   3.767
19783WAT      O59590   3.330   3.821   6.092
19783WAT     H159591   3.401   3.760   6.056
19783WAT     H259592   3.322   3.807   6.191
19784WAT      O59593   5.021   8.279   6.651
19784WAT     H159594   4.979   8.346   6.590
19784WAT     H259595   5.121   8.291   6.649
19785WAT      O59596   5.032   0.155   8.625
19785WAT     H159597   5.053   0.251   8.609
19785WAT     H259598   4.934   0.143   8.636
19786WAT      O59599   8.746   5.584   1.942
19786WAT     H159600   8.787   5.662   1.894
19786WAT     H259601   8.701   5.524   1.875
19787WAT      O59602   3.490   3.324   4.348
19787WAT     H159603   3.505   3.233   4.386
19787WAT     H259604   3.403   3.361   4.380
19788WAT      O59605   3.107   9.724   6.233
19788WAT     H159606   3.140   9.770   6.151
19788WAT     H259607   3.128   9.779   6.313
19789WAT      O59608   2.047   8.031   4.695
19789WAT     H159609   2.141   8.026   4.728
19789WAT     H259610   2.007   7.940   4.695
19790WAT      O59611   7.996   2.772   4.235
19790WAT     H159612   8.006   2.865   4.268
19790WAT     H259613   8.053   2.710   4.289
19791WAT      O59614   9.120   7.559   0.094
19791WAT     H159615   9.086   7.529   0.006
19791WAT     H259616   9.085   7.650   0.115
19792WAT      O59617   5.264   9.172   2.309
19792WAT     H159618   5.320   9.090   2.309
19792WAT     H259619   5.251   9.203   2.215
19793WAT      O59620   3.501   0.500   8.291
19793WAT     H159621   3.452   0.524   8.374
19793WAT     H259622   3.592   0.464   8.315
19794WAT      O59623   2.205   3.610   0.966
19794WAT     H159624   2.135   3.585   0.899
19794WAT     H259625   2.177   3.693   1.014
19795WAT      O59626   4.883   8.795   0.316
19795WAT     H159627   4.958   8.802   0.382
19795WAT     H259628   4.807   8.746   0.358
19796WAT      O59629   4.940   3.107   1.383
19796WAT     H159630   4.877   3.041   1.424
19796WAT     H259631   5.009   3.058   1.330
19797WAT      O59632   3.318   9.258   3.991
19797WAT     H159633   3.344   9.173   4.036
19797WAT     H259634   3.243   9.239   3.926
19798WAT      O59635   5.649   1.385   4.547
19798WAT     H159636   5.735   1.422   4.511
19798WAT     H259637   5.629   1.428   4.635
19799WAT      O59638   7.584   1.828   4.945
19799WAT     H159639   7.515   1.863   4.882
19799WAT     H259640   7.573   1.871   5.034
19800WAT      O59641   3.987   2.413   1.096
19800WAT     H159642   4.008   2.480   1.025
19800WAT     H259643   3.892   2.384   1.087
19801WAT      O59644   8.766   3.029   2.472
19801WAT     H159645   8.818   2.945   2.456
19801WAT     H259646   8.716   3.020   2.558
19802WAT      O59647   3.504   0.904   0.691
19802WAT     H159648   3.474   0.987   0.643
19802WAT     H259649   3.519   0.926   0.788
19803WAT      O59650   1.811   0.173   8.547
19803WAT     H159651   1.870   0.189   8.468
19803WAT     H259652   1.751   0.095   8.530
19804WAT      O59653   0.041   7.406   9.853
19804WAT     H159654   0.052   7.307   9.862
19804WAT     H259655  -0.001   7.427   9.765
19805WAT      O59656   5.807   5.079   1.493
19805WAT     H159657   5.898   5.037   1.490
19805WAT     H259658   5.815   5.173   1.526
19806WAT      O59659   7.803   1.413   6.224
19806WAT     H159660   7.796   1.362   6.310
19806WAT     H259661   7.890   1.391   6.179
19807WAT      O59662   8.682   8.737   9.111
19807WAT     H159663   8.629   8.652   9.114
19807WAT     H259664   8.740   8.736   9.029
19808WAT      O59665   6.895   1.606   0.604
19808WAT     H159666   6.904   1.514   0.567
19808WAT     H259667   6.899   1.603   0.704
19809WAT      O59668   9.483   0.990   4.985
19809WAT     H159669   9.540   0.910   5.005
19809WAT     H259670   9.508   1.026   4.895
19810WAT      O59671   0.364   5.952   8.706
19810WAT     H159672   0.351   5.873   8.766
19810WAT     H259673   0.433   6.012   8.745
19811WAT      O59674   9.101   2.131   4.998
19811WAT     H159675   9.201   2.132   4.995
19811WAT     H259676   9.065   2.162   4.910
19812WAT      O59677   4.845   7.912   3.149
19812WAT     H159678   4.758   7.921   3.101
19812WAT     H259679   4.828   7.881   3.243
19813WAT      O59680   7.218   2.716   4.149
19813WAT     H159681   7.202   2.621   4.174
19813WAT     H259682   7.314   2.727   4.122
19814WAT      O59683   4.439   7.577   1.486
19814WAT     H159684   4.375   7.645   1.448
19814WAT     H259685   4.530   7.594   1.450
19815WAT      O59686   9.723   7.063   3.885
19815WAT     H159687   9.656   6.995   3.853
19815WAT     H259688   9.796   7.017   3.935
19816WAT      O59689   4.822   6.558   0.705
19816WAT     H159690   4.855   6.642   0.662
19816WAT     H259691   4.752   6.515   0.647
19817WAT      O59692   2.377   6.655   2.752
19817WAT     H159693   2.362   6.559   2.731
19817WAT     H259694   2.316   6.683   2.826
19818WAT      O59695   9.862   0.956   3.262
19818WAT     H159696   9.784   0.959   3.200
19818WAT     H259697   9.854   1.030   3.329
19819WAT      O59698   2.405   0.606   6.607
19819WAT     H159699   2.480   0.549   6.642
19819WAT     H259700   2.319   0.573   6.645
19820WAT      O59701   3.277   1.542   7.709
19820WAT     H159702   3.336   1.479   7.760
19820WAT     H259703   3.242   1.496   7.628
19821WAT      O59704   9.201   6.926   9.624
19821WAT     H159705   9.180   7.012   9.577
19821WAT     H259706   9.298   6.905   9.613
19822WAT      O59707   2.314   3.155   7.470
19822WAT     H159708   2.374   3.136   7.548
19822WAT     H259709   2.362   3.134   7.385
19823WAT      O59710   0.959   3.040   8.425
19823WAT     H159711   1.012   3.122   8.442
19823WAT     H259712   0.976   3.007   8.332
19824WAT      O59713   1.333   0.145   9.150
19824WAT     H159714   1.318   0.132   9.052
19824WAT     H259715   1.360   0.240   9.167
19825WAT      O59716   7.824   4.586   6.746
19825WAT     H159717   7.813   4.511   6.681
19825WAT     H259718   7.905   4.570   6.802
19826WAT      O59719   4.033   6.138   1.620
19826WAT     H159720   4.132   6.129   1.629
19826WAT     H259721   4.004   6.100   1.532
19827WAT      O59722   6.668   2.791   7.848
19827WAT     H159723   6.735   2.723   7.876
19827WAT     H259724   6.576   2.757   7.865
19828WAT      O59725   6.109   7.309   4.604
19828WAT     H159726   6.153   7.393   4.572
19828WAT     H259727   6.014   7.328   4.629
19829WAT      O59728   4.093   5.312   5.346
19829WAT     H159729   4.166   5.329   5.413
19829WAT     H259730   4.004   5.316   5.392
19830WAT      O59731   1.053   0.218   7.204
19830WAT     H159732   1.026   0.208   7.300
19830WAT     H259733   1.144   0.179   7.190
19831WAT      O59734   6.403   3.701   4.511
19831WAT     H159735   6.317   3.653   4.495
19831WAT     H259736   6.386   3.783   4.566
19832WAT      O59737   1.309   9.346   0.263
19832WAT     H159738   1.335   9.268   0.321
19832WAT     H259739   1.381   9.365   0.197
19833WAT      O59740   2.267   2.578   1.463
19833WAT     H159741   2.245   2.567   1.366
19833WAT     H259742   2.280   2.675   1.483
19834WAT      O59743   8.708   9.140   2.846
19834WAT     H159744   8.622   9.101   2.813
19834WAT     H259745   8.738   9.091   2.928
19835WAT      O59746   9.123   6.164   9.710
19835WAT     H159747   9.126   6.233   9.637
19835WAT     H259748   9.215   6.133   9.730
19836WAT      O59749   3.146   5.890   7.737
19836WAT     H159750   3.186   5.965   7.684
19836WAT     H259751   3.048   5.882   7.715
19837WAT      O59752   4.733   1.968   6.075
19837WAT     H159753   4.808   1.909   6.105
19837WAT     H259754   4.764   2.024   5.998
19838WAT      O59755   5.356   4.188   0.959
19838WAT     H159756   5.353   4.191   1.059
19838WAT     H259757   5.409   4.108   0.930
19839WAT      O59758   4.424   3.506   2.645
19839WAT     H159759   4.345   3.530   2.701
19839WAT     H259760   4.497   3.470   2.704
19840WAT      O59761   5.498   4.764   5.508
19840WAT     H159762   5.417   4.812   5.541
19840WAT     H259763   5.536   4.813   5.430
19841WAT      O59764   7.095   4.637   6.598
19841WAT     H159765   7.014   4.628   6.657
19841WAT     H259766   7.168   4.579   6.634
19842WAT      O59767   5.656   1.013   1.519
19842WAT     H159768   5.744   1.053   1.494
19842WAT     H259769   5.598   1.082   1.561
19843WAT      O59770   5.922   1.878   7.198
19843WAT     H159771   5.960   1.790   7.226
19843WAT     H259772   5.920   1.884   7.098
19844WAT      O59773   7.005   0.018   7.090
19844WAT     H159774   7.004   0.093   7.156
19844WAT     H259775   7.001   0.055   6.997
19845WAT      O59776   1.967   7.822   5.117
19845WAT     H159777   1.909   7.852   5.192
19845WAT     H259778   1.918   7.833   5.030
19846WAT      O59779   4.554   7.018   8.684
19846WAT     H159780   4.473   6.966   8.713
19846WAT     H259781   4.525   7.100   8.636
19847WAT      O59782   9.055   5.772   8.688
19847WAT     H159783   9.152   5.764   8.665
19847WAT     H259784   9.011   5.683   8.675
19848WAT      O59785   1.460   4.417   0.552
19848WAT     H159786   1.556   4.429   0.577
19848WAT     H259787   1.431   4.492   0.492
19849WAT      O59788   5.907   8.425   4.925
19849WAT     H159789   5.915   8.334   4.964
19849WAT     H259790   5.847   8.422   4.845
19850WAT      O59791   6.857   7.238   9.754
19850WAT     H159792   6.938   7.287   9.784
19850WAT     H259793   6.839   7.259   9.658
19851WAT      O59794   0.663   2.749   7.536
19851WAT     H159795   0.621   2.819   7.595
19851WAT     H259796   0.594   2.682   7.510
19852WAT      O59797   7.031   3.447   6.684
19852WAT     H159798   6.937   3.449   6.718
19852WAT     H259799   7.030   3.426   6.586
19853WAT      O59800   2.655   0.911   1.212
19853WAT     H159801   2.704   0.840   1.263
19853WAT     H259802   2.582   0.869   1.159
19854WAT      O59803   1.010   6.324   5.279
19854WAT     H159804   1.099   6.359   5.311
19854WAT     H259805   0.986   6.242   5.331
19855WAT      O59806   9.471   7.030   5.028
19855WAT     H159807   9.503   6.935   5.031
19855WAT     H259808   9.388   7.038   5.083
19856WAT      O59809   2.537   0.439   8.359
19856WAT     H159810   2.542   0.499   8.279
19856WAT     H259811   2.535   0.494   8.442
19857WAT      O59812   3.560   2.380   2.909
19857WAT     H159813   3.610   2.466   2.919
19857WAT     H259814   3.567   2.327   2.994
19858WAT      O59815   9.360   6.117   3.904
19858WAT     H159816   9.339   6.122   4.002
19858WAT     H259817   9.427   6.188   3.881
19859WAT      O59818   1.103   7.001   5.006
19859WAT     H159819   1.013   7.044   5.011
19859WAT     H259820   1.099   6.922   4.946
19860WAT      O59821   6.663   9.170   7.312
19860WAT     H159822   6.721   9.251   7.310
19860WAT     H259823   6.697   9.107   7.381
19861WAT      O59824   4.600   7.163   8.359
19861WAT     H159825   4.666   7.190   8.429
19861WAT     H259826   4.559   7.245   8.319
19862WAT      O59827   8.788   2.018   5.271
19862WAT     H159828   8.851   1.978   5.204
19862WAT     H259829   8.705   2.049   5.225
19863WAT      O59830   2.250   2.564   0.279
19863WAT     H159831   2.213   2.522   0.197
19863WAT     H259832   2.185   2.632   0.314
19864WAT      O59833   0.307   6.228   4.642
19864WAT     H159834   0.255   6.301   4.598
19864WAT     H259835   0.382   6.201   4.582
19865WAT      O59836   2.352   1.976   3.806
19865WAT     H159837   2.327   1.954   3.712
19865WAT     H259838   2.285   2.040   3.845
19866WAT      O59839   6.368   5.263   4.760
19866WAT     H159840   6.298   5.215   4.707
19866WAT     H259841   6.329   5.298   4.845
19867WAT      O59842   9.804   5.899   2.579
19867WAT     H159843   9.801   5.899   2.679
19867WAT     H259844   9.871   5.832   2.548
19868WAT      O59845   9.507   7.031   8.137
19868WAT     H159846   9.568   7.012   8.060
19868WAT     H259847   9.557   7.020   8.223
19869WAT      O59848   8.445   1.000   2.322
19869WAT     H159849   8.492   0.978   2.407
19869WAT     H259850   8.512   1.018   2.250
19870WAT      O59851   1.910   5.384   3.683
19870WAT     H159852   1.884   5.348   3.594
19870WAT     H259853   1.983   5.452   3.672
19871WAT      O59854   0.477   8.159   1.951
19871WAT     H159855   0.537   8.200   2.019
19871WAT     H259856   0.468   8.220   1.872
19872WAT      O59857   2.132   2.581   1.197
19872WAT     H159858   2.119   2.482   1.199
19872WAT     H259859   2.045   2.626   1.216
19873WAT      O59860   5.906   2.698   9.226
19873WAT     H159861   5.814   2.736   9.222
19873WAT     H259862   5.972   2.763   9.189
19874WAT      O59863   3.652   8.684   2.757
19874WAT     H159864   3.713   8.615   2.795
19874WAT     H259865   3.564   8.641   2.733
19875WAT      O59866   9.486   6.316   0.461
19875WAT     H159867   9.451   6.341   0.552
19875WAT     H259868   9.432   6.362   0.391
19876WAT      O59869   1.956   7.274   1.438
19876WAT     H159870   1.922   7.233   1.523
19876WAT     H259871   1.919   7.224   1.360
19877WAT      O59872   3.637   0.759   6.774
19877WAT     H159873   3.551   0.805   6.754
19877WAT     H259874   3.626   0.661   6.758
19878WAT      O59875   7.157   2.928   7.533
19878WAT     H159876   7.157   2.839   7.578
19878WAT     H259877   7.248   2.947   7.496
19879WAT      O59878   8.095   6.649   0.012
19879WAT     H159879   7.999   6.626   0.026
19879WAT     H259880   8.138   6.579  -0.044
19880WAT      O59881   1.987   5.461   4.363
19880WAT     H159882   2.021   5.552   4.389
19880WAT     H259883   2.029   5.434   4.276
19881WAT      O59884   0.902   6.098   5.748
19881WAT     H159885   1.002   6.111   5.746
19881WAT     H259886   0.874   6.041   5.671
19882WAT      O59887   4.966   1.661   1.822
19882WAT     H159888   5.041   1.602   1.792
19882WAT     H259889   4.879   1.614   1.807
19883WAT      O59890   7.685   2.520   6.756
19883WAT     H159891   7.666   2.561   6.666
19883WAT     H259892   7.782   2.499   6.764
19884WAT      O59893   5.927   2.245   7.466
19884WAT     H159894   5.937   2.343   7.485
19884WAT     H259895   5.951   2.227   7.371
19885WAT      O59896   2.142   3.271   6.291
19885WAT     H159897   2.173   3.328   6.366
19885WAT     H259898   2.179   3.306   6.205
19886WAT      O59899   2.524   5.388   2.173
19886WAT     H159900   2.475   5.307   2.205
19886WAT     H259901   2.622   5.377   2.192
19887WAT      O59902   6.814   4.037   2.369
19887WAT     H159903   6.908   4.005   2.380
19887WAT     H259904   6.784   4.020   2.275
19888WAT      O59905   7.047   4.800   8.702
19888WAT     H159906   7.125   4.754   8.660
19888WAT     H259907   7.002   4.738   8.766
19889WAT      O59908   7.599   1.458   3.135
19889WAT     H159909   7.565   1.429   3.224
19889WAT     H259910   7.672   1.396   3.106
19890WAT      O59911   4.741   6.390   6.326
19890WAT     H159912   4.783   6.464   6.273
19890WAT     H259913   4.693   6.328   6.265
19891WAT      O59914   0.681   7.987   2.322
19891WAT     H159915   0.775   8.019   2.333
19891WAT     H259916   0.682   7.892   2.290
19892WAT      O59917   7.708   1.917   2.331
19892WAT     H159918   7.651   1.931   2.412
19892WAT     H259919   7.721   2.005   2.284
19893WAT      O59920   0.878   0.185   0.145
19893WAT     H159921   0.940   0.119   0.102
19893WAT     H259922   0.795   0.139   0.175
19894WAT      O59923   1.574   0.072   2.931
19894WAT     H159924   1.563   0.094   3.028
19894WAT     H259925   1.548   0.152   2.876
19895WAT      O59926   2.794   5.126   8.211
19895WAT     H159927   2.814   5.028   8.220
19895WAT     H259928   2.842   5.176   8.283
19896WAT      O59929   2.808   3.505   1.600
19896WAT     H159930   2.732   3.450   1.634
19896WAT     H259931   2.884   3.445   1.575
19897WAT      O59932   5.160   3.872   3.647
19897WAT     H159933   5.244   3.846   3.601
19897WAT     H259934   5.124   3.793   3.697
19898WAT      O59935   2.475   9.414   6.729
19898WAT     H159936   2.387   9.375   6.756
19898WAT     H259937   2.520   9.454   6.809
19899WAT      O59938   0.437   9.846   0.771
19899WAT     H159939   0.415   9.763   0.821
19899WAT     H259940   0.386   9.848   0.685
19900WAT      O59941   6.896   1.636   7.069
19900WAT     H159942   6.928   1.726   7.099
19900WAT     H259943   6.972   1.586   7.027
19901WAT      O59944   9.606   7.289   0.159
19901WAT     H159945   9.541   7.363   0.169
19901WAT     H259946   9.697   7.320   0.190
19902WAT      O59947   1.064   9.125   7.777
19902WAT     H159948   1.083   9.028   7.787
19902WAT     H259949   0.986   9.150   7.835
19903WAT      O59950   4.900   2.506   7.542
19903WAT     H159951   4.994   2.497   7.508
19903WAT     H259952   4.898   2.566   7.622
19904WAT      O59953   6.716   4.563   8.919
19904WAT     H159954   6.698   4.482   8.974
19904WAT     H259955   6.630   4.602   8.888
19905WAT      O59956   2.768   5.427   4.175
19905WAT     H159957   2.763   5.517   4.220
19905WAT     H259958   2.740   5.437   4.080
19906WAT      O59959   9.827   1.704   1.447
19906WAT     H159960   9.843   1.619   1.397
19906WAT     H259961   9.773   1.766   1.392
19907WAT      O59962   5.718   0.942   0.443
19907WAT     H159963   5.664   0.911   0.521
19907WAT     H259964   5.736   1.040   0.451
19908WAT      O59965   9.723   8.416   4.192
19908WAT     H159966   9.650   8.347   4.187
19908WAT     H259967   9.801   8.378   4.241
19909WAT      O59968   4.458   7.362   9.600
19909WAT     H159969   4.535   7.300   9.617
19909WAT     H259970   4.482   7.424   9.525
19910WAT      O59971   3.090   0.519   0.726
19910WAT     H159972   3.169   0.505   0.667
19910WAT     H259973   3.038   0.434   0.732
19911WAT      O59974   5.472   7.732   8.919
19911WAT     H159975   5.455   7.716   8.821
19911WAT     H259976   5.560   7.779   8.930
19912WAT      O59977   5.582   8.985   0.139
19912WAT     H159978   5.540   8.897   0.162
19912WAT     H259979   5.633   9.019   0.218
19913WAT      O59980   2.990   3.910   8.981
19913WAT     H159981   3.011   3.856   9.063
19913WAT     H259982   3.066   3.972   8.962
19914WAT      O59983   1.547   8.009   0.366
19914WAT     H159984   1.637   8.030   0.404
19914WAT     H259985   1.530   7.911   0.373
19915WAT      O59986   9.225   8.961   1.411
19915WAT     H159987   9.216   8.882   1.350
19915WAT     H259988   9.305   8.949   1.469
19916WAT      O59989   6.090   2.124   8.950
19916WAT     H159990   5.993   2.137   8.971
19916WAT     H259991   6.118   2.189   8.879
19917WAT      O59992   2.542   2.350   2.161
19917WAT     H159993   2.486   2.287   2.215
19917WAT     H259994   2.522   2.339   2.064
19918WAT      O59995   4.527   1.204   3.504
19918WAT     H159996   4.544   1.245   3.415
19918WAT     H259997   4.454   1.253   3.551
19919WAT      O59998   8.109   8.676   7.973
19919WAT     H159999   8.120   8.775   7.964
19919WAT     H260000   8.197   8.634   7.994
19920WAT      O60001   4.786   3.383   6.892
19920WAT     H160002   4.770   3.456   6.957
19920WAT     H260003   4.791   3.295   6.940
19921WAT      O60004   2.590   3.442   9.883
19921WAT     H160005   2.678   3.488   9.889
19921WAT     H260006   2.547   3.441   9.973
19922WAT      O60007   5.747   4.530   8.323
19922WAT     H160008   5.780   4.574   8.406
19922WAT     H260009   5.791   4.572   8.243
19923WAT      O60010   3.517   9.233   2.779
19923WAT     H160011   3.553   9.252   2.688
19923WAT     H260012   3.483   9.318   2.820
19924WAT      O60013   9.586   2.397   8.823
19924WAT     H160014   9.499   2.384   8.777
19924WAT     H260015   9.574   2.453   8.905
19925WAT      O60016   1.773   4.320   2.857
19925WAT     H160017   1.700   4.384   2.831
19925WAT     H260018   1.859   4.350   2.815
19926WAT      O60019   1.591   7.600   7.554
19926WAT     H160020   1.583   7.698   7.533
19926WAT     H260021   1.522   7.575   7.623
19927WAT      O60022   6.932   6.515   2.590
19927WAT     H160023   6.953   6.423   2.623
19927WAT     H260024   7.006   6.548   2.533
19928WAT      O60025   0.955   8.603   8.345
19928WAT     H160026   1.007   8.559   8.272
19928WAT     H260027   0.910   8.533   8.400
19929WAT      O60028   5.865   3.626   9.465
19929WAT     H160029   5.826   3.696   9.526
19929WAT     H260030   5.815   3.626   9.379
19930WAT      O60031   9.426   6.141   2.864
19930WAT     H160032   9.505   6.201   2.851
19930WAT     H260033   9.353   6.192   2.910
19931WAT      O60034   3.723   2.016   2.010
19931WAT     H160035   3.623   2.010   2.004
19931WAT     H260036   3.759   2.048   1.923
19932WAT      O60037   5.915   3.065   2.450
19932WAT     H160038   5.833   3.016   2.419
19932WAT     H260039   5.989   3.000   2.466
19933WAT      O60040   6.792   2.258   7.831
19933WAT     H160041   6.728   2.211   7.771
19933WAT     H260042   6.858   2.193   7.868
19934WAT      O60043   2.546   4.741   7.058
19934WAT     H160044   2.471   4.679   7.034
19934WAT     H260045   2.536   4.826   7.006
19935WAT      O60046   9.210   2.856   6.607
19935WAT     H160047   9.190   2.881   6.513
19935WAT     H260048   9.307   2.872   6.626
19936WAT      O60049   7.394   9.762   0.277
19936WAT     H160050   7.460   9.807   0.337
19936WAT     H260051   7.443   9.708   0.209
19937WAT      O60052   2.752   5.514   4.970
19937WAT     H160053   2.756   5.544   4.875
19937WAT     H260054   2.817   5.566   5.024
19938WAT      O60055   7.831   9.721   3.152
19938WAT     H160056   7.903   9.693   3.088
19938WAT     H260057   7.845   9.817   3.177
19939WAT      O60058   3.390   6.584   7.729
19939WAT     H160059   3.315   6.646   7.752
19939WAT     H260060   3.401   6.581   7.630
19940WAT      O60061   3.794   2.924   6.229
19940WAT     H160062   3.796   3.021   6.253
19940WAT     H260063   3.701   2.897   6.206
19941WAT      O60064   3.523   9.617   6.672
19941WAT     H160065   3.446   9.675   6.698
19941WAT     H260066   3.588   9.671   6.618
19942WAT      O60067   9.314   7.804   6.341
19942WAT     H160068   9.357   7.886   6.379
19942WAT     H260069   9.372   7.765   6.270
19943WAT      O60070   7.929   4.040   8.343
19943WAT     H160071   7.947   4.034   8.245
19943WAT     H260072   7.906   3.949   8.379
19944WAT      O60073   9.303   3.079   9.571
19944WAT     H160074   9.337   3.172   9.557
19944WAT     H260075   9.353   3.037   9.647
19945WAT      O60076   6.457   2.205   5.065
19945WAT     H160077   6.406   2.119   5.056
19945WAT     H260078   6.545   2.196   5.018
19946WAT      O60079   5.261   0.184   1.723
19946WAT     H160080   5.205   0.229   1.654
19946WAT     H260081   5.210   0.181   1.810
19947WAT      O60082   4.164   8.642   0.759
19947WAT     H160083   4.247   8.646   0.704
19947WAT     H260084   4.122   8.732   0.764
19948WAT      O60085   6.411   3.010   5.610
19948WAT     H160086   6.399   3.092   5.555
19948WAT     H260087   6.482   2.953   5.570
19949WAT      O60088   4.015   0.534   0.606
19949WAT     H160089   3.967   0.571   0.526
19949WAT     H260090   3.958   0.548   0.688
19950WAT      O60091   9.119   3.734   5.334
19950WAT     H160092   9.156   3.655   5.285
19950WAT     H260093   9.188   3.769   5.397
19951WAT      O60094   3.613   7.093   4.658
19951WAT     H160095   3.595   7.179   4.707
19951WAT     H260096   3.620   7.111   4.560
19952WAT      O60097   6.670   1.501   1.987
19952WAT     H160098   6.730   1.426   2.017
19952WAT     H260099   6.582   1.495   2.034
19953WAT      O60100   5.663   2.556   0.023
19953WAT     H160101   5.758   2.535   0.004
19953WAT     H260102   5.619   2.592  -0.060
19954WAT      O60103   6.355   1.237   4.690
19954WAT     H160104   6.413   1.166   4.649
19954WAT     H260105   6.279   1.257   4.629
19955WAT      O60106   2.271   5.063   7.969
19955WAT     H160107   2.334   5.094   8.041
19955WAT     H260108   2.312   4.986   7.920
19956WAT      O60109   7.290   5.287   3.157
19956WAT     H160110   7.318   5.304   3.251
19956WAT     H260111   7.211   5.226   3.156
19957WAT      O60112   9.178   8.019   5.914
19957WAT     H160113   9.276   8.025   5.931
19957WAT     H260114   9.160   8.030   5.816
19958WAT      O60115   2.186   1.553   8.875
19958WAT     H160116   2.181   1.522   8.780
19958WAT     H260117   2.277   1.593   8.892
19959WAT      O60118   0.646   7.963   5.910
19959WAT     H160119   0.690   8.047   5.940
19959WAT     H260120   0.627   7.968   5.812
19960WAT      O60121   1.049   1.776   1.809
19960WAT     H160122   1.064   1.697   1.868
19960WAT     H260123   0.957   1.812   1.823
19961WAT      O60124   3.313   5.239   1.925
19961WAT     H160125   3.339   5.144   1.911
19961WAT     H260126   3.308   5.259   2.022
19962WAT      O60127   7.418   3.030   2.784
19962WAT     H160128   7.505   3.033   2.735
19962WAT     H260129   7.380   3.122   2.791
19963WAT      O60130   7.101   8.174   7.749
19963WAT     H160131   7.113   8.117   7.668
19963WAT     H260132   7.143   8.263   7.734
19964WAT      O60133   2.611   8.595   6.715
19964WAT     H160134   2.568   8.674   6.671
19964WAT     H260135   2.710   8.605   6.711
19965WAT      O60136   7.096   3.356   8.948
19965WAT     H160137   7.160   3.304   9.005
19965WAT     H260138   7.044   3.419   9.006
19966WAT      O60139   0.340   2.945   4.879
19966WAT     H160140   0.376   2.907   4.794
19966WAT     H260141   0.416   2.975   4.937
19967WAT      O60142   6.155   4.387   6.626
19967WAT     H160143   6.128   4.416   6.718
19967WAT     H260144   6.098   4.434   6.558
19968WAT      O60145   2.726   2.407   9.058
19968WAT     H160146   2.637   2.453   9.058
19968WAT     H260147   2.740   2.362   8.970
19969WAT      O60148   7.872   9.099   8.306
19969WAT     H160149   7.950   9.123   8.249
19969WAT     H260150   7.814   9.180   8.319
19970WAT      O60151   3.591   6.949   2.153
19970WAT     H160152   3.611   6.871   2.212
19970WAT     H260153   3.671   6.971   2.097
19971WAT      O60154   6.854   2.622   0.923
19971WAT     H160155   6.881   2.530   0.894
19971WAT     H260156   6.769   2.617   0.974
19972WAT      O60157   0.939   6.183   1.337
19972WAT     H160158   0.864   6.229   1.384
19972WAT     H260159   0.907   6.147   1.249
19973WAT      O60160   5.498   3.917   0.293
19973WAT     H160161   5.448   4.003   0.277
19973WAT     H260162   5.562   3.930   0.369
19974WAT      O60163   3.365   9.033   6.125
19974WAT     H160164   3.427   9.068   6.195
19974WAT     H260165   3.380   8.935   6.113
19975WAT      O60166   4.407   3.848   7.119
19975WAT     H160167   4.310   3.827   7.130
19975WAT     H260168   4.448   3.863   7.209
19976WAT      O60169   9.809   4.538   6.645
19976WAT     H160170   9.875   4.613   6.644
19976WAT     H260171   9.858   4.451   6.658
19977WAT      O60172   3.017   4.922   9.251
19977WAT     H160173   2.969   4.900   9.165
19977WAT     H260174   2.962   4.890   9.328
19978WAT      O60175   2.661   2.798   9.239
19978WAT     H160176   2.671   2.883   9.291
19978WAT     H260177   2.622   2.818   9.149
19979WAT      O60178   7.542   4.148   1.951
19979WAT     H160179   7.494   4.064   1.926
19979WAT     H260180   7.507   4.224   1.896
19980WAT      O60181   3.580   5.963   0.792
19980WAT     H160182   3.554   6.058   0.807
19980WAT     H260183   3.676   5.958   0.765
19981WAT      O60184   3.756   0.406   7.664
19981WAT     H160185   3.659   0.398   7.686
19981WAT     H260186   3.786   0.501   7.677
19982WAT      O60187   8.067   5.670   5.378
19982WAT     H160188   8.032   5.764   5.380
19982WAT     H260189   8.163   5.670   5.403
19983WAT      O60190   8.663   2.404   0.460
19983WAT     H160191   8.743   2.349   0.436
19983WAT     H260192   8.614   2.430   0.377
19984WAT      O60193   9.113   2.731   8.550
19984WAT     H160194   9.062   2.749   8.634
19984WAT     H260195   9.080   2.791   8.477
19985WAT      O60196   9.755   6.719   3.678
19985WAT     H160197   9.749   6.730   3.777
19985WAT     H260198   9.807   6.637   3.657
19986WAT      O60199   7.488   6.361   1.282
19986WAT     H160200   7.574   6.397   1.318
19986WAT     H260201   7.428   6.437   1.258
19987WAT      O60202   6.423   9.577   4.242
19987WAT     H160203   6.490   9.642   4.276
19987WAT     H260204   6.440   9.561   4.144
19988WAT      O60205   8.303   6.100   4.338
19988WAT     H160206   8.208   6.077   4.315
19988WAT     H260207   8.346   6.142   4.258
19989WAT      O60208   5.095   5.206   7.057
19989WAT     H160209   5.097   5.107   7.070
19989WAT     H260210   5.098   5.252   7.146
19990WAT      O60211   9.757   0.628   6.616
19990WAT     H160212   9.856   0.630   6.629
19990WAT     H260213   9.719   0.717   6.640
19991WAT      O60214   3.842   6.444   7.204
19991WAT     H160215   3.862   6.430   7.301
19991WAT     H260216   3.780   6.372   7.172
19992WAT      O60217   6.593   5.219   1.596
19992WAT     H160218   6.562   5.221   1.691
19992WAT     H260219   6.672   5.158   1.588
19993WAT      O60220   8.288   0.676   0.482
19993WAT     H160221   8.301   0.733   0.401
19993WAT     H260222   8.193   0.646   0.487
19994WAT      O60223   1.605   4.941   2.559
19994WAT     H160224   1.593   4.981   2.468
19994WAT     H260225   1.518   4.902   2.590
19995WAT      O60226   3.517   0.026   5.363
19995WAT     H160227   3.473   0.104   5.317
19995WAT     H260228   3.616   0.038   5.363
19996WAT      O60229   5.913   2.030   4.299
19996WAT     H160230   5.881   2.044   4.206
19996WAT     H260231   5.864   2.092   4.361
19997WAT      O60232   0.544   0.924   6.325
19997WAT     H160233   0.584   0.947   6.236
19997WAT     H260234   0.476   0.851   6.313
19998WAT      O60235   2.200   8.934   0.572
19998WAT     H160236   2.218   8.952   0.668
19998WAT     H260237   2.251   8.853   0.543
19999WAT      O60238   1.603   3.678   5.465
19999WAT     H160239   1.505   3.666   5.451
19999WAT     H260240   1.646   3.702   5.378
20000WAT      O60241   0.424   5.598   6.925
20000WAT     H160242   0.369   5.672   6.887
20000WAT     H260243   0.433   5.525   6.858
20001WAT      O60244   9.027   4.534   8.693
20001WAT     H160245   9.002   4.562   8.785
20001WAT     H260246   9.121   4.562   8.673
20002WAT      O60247   7.191   9.764   3.583
20002WAT     H160248   7.110   9.714   3.612
20002WAT     H260249   7.206   9.750   3.485
20003WAT      O60250   1.044   3.382   4.740
20003WAT     H160251   1.061   3.368   4.643
20003WAT     H260252   1.045   3.480   4.760
20004WAT      O60253   7.923   8.039   5.374
20004WAT     H160254   7.976   7.955   5.360
20004WAT     H260255   7.913   8.087   5.287
20005WAT      O60256   0.870   4.547   5.313
20005WAT     H160257   0.966   4.572   5.303
20005WAT     H260258   0.853   4.461   5.264
20006WAT      O60259   8.206   5.442   6.157
20006WAT     H160260   8.136   5.513   6.166
20006WAT     H260261   8.295   5.480   6.181
20007WAT      O60262   5.411   8.239   7.604
20007WAT     H160263   5.343   8.309   7.581
20007WAT     H260264   5.364   8.161   7.647
20008WAT      O60265   8.398   4.325   4.366
20008WAT     H160266   8.321   4.285   4.317
20008WAT     H260267   8.470   4.256   4.377
20009WAT      O60268   9.607   2.218   5.049
20009WAT     H160269   9.512   2.209   5.080
20009WAT     H260270   9.661   2.264   5.119
20010WAT      O60271   6.833   4.066   0.747
20010WAT     H160272   6.833   4.099   0.652
20010WAT     H260273   6.923   4.027   0.769
20011WAT      O60274   2.720   5.077   1.729
20011WAT     H160275   2.718   5.035   1.638
20011WAT     H260276   2.786   5.028   1.786
20012WAT      O60277   8.619   3.148   9.702
20012WAT     H160278   8.666   3.222   9.750
20012WAT     H260279   8.525   3.177   9.681
20013WAT      O60280   2.088   5.557   3.420
20013WAT     H160281   2.147   5.618   3.368
20013WAT     H260282   2.009   5.531   3.364
20014WAT      O60283   7.436   7.440   8.661
20014WAT     H160284   7.482   7.435   8.572
20014WAT     H260285   7.377   7.521   8.664
20015WAT      O60286   9.607   1.105   1.740
20015WAT     H160287   9.524   1.052   1.760
20015WAT     H260288   9.688   1.053   1.767
20016WAT      O60289   3.084   5.774   5.150
20016WAT     H160290   3.071   5.860   5.100
20016WAT     H260291   3.171   5.733   5.123
20017WAT      O60292   9.401   7.635   1.515
20017WAT     H160293   9.336   7.669   1.583
20017WAT     H260294   9.400   7.535   1.514
20018WAT      O60295   7.242   2.002   5.096
20018WAT     H160296   7.216   2.017   5.001
20018WAT     H260297   7.341   2.013   5.106
20019WAT      O60298   4.970   7.767   5.228
20019WAT     H160299   5.059   7.810   5.241
20019WAT     H260300   4.937   7.731   5.315
20020WAT      O60301   8.641   3.142   8.892
20020WAT     H160302   8.734   3.113   8.915
20020WAT     H260303   8.576   3.095   8.953
20021WAT      O60304   1.901   9.388   3.953
20021WAT     H160305   1.963   9.459   3.922
20021WAT     H260306   1.942   9.339   4.030
20022WAT      O60307   8.513   8.359   8.777
20022WAT     H160308   8.430   8.377   8.724
20022WAT     H260309   8.585   8.326   8.715
20023WAT      O60310   5.214   6.340   4.221
20023WAT     H160311   5.268   6.383   4.293
20023WAT     H260312   5.204   6.243   4.241
20024WAT      O60313   8.280   6.927   6.450
20024WAT     H160314   8.193   6.895   6.413
20024WAT     H260315   8.350   6.921   6.379
20025WAT      O60316   3.611   5.232   2.702
20025WAT     H160317   3.627   5.165   2.630
20025WAT     H260318   3.670   5.211   2.780
20026WAT      O60319   3.861   5.872   7.813
20026WAT     H160320   3.854   5.922   7.900
20026WAT     H260321   3.813   5.924   7.742
20027WAT      O60322   9.534   5.926   4.541
20027WAT     H160323   9.544   5.945   4.443
20027WAT     H260324   9.558   6.008   4.593
20028WAT      O60325   3.286   2.494   1.618
20028WAT     H160326   3.214   2.457   1.676
20028WAT     H260327   3.315   2.425   1.552
20029WAT      O60328   4.222   6.615   2.318
20029WAT     H160329   4.275   6.538   2.354
20029WAT     H260330   4.235   6.695   2.377
20030WAT      O60331   1.678   7.764   1.119
20030WAT     H160332   1.751   7.760   1.186
20030WAT     H260333   1.599   7.811   1.159
20031WAT      O60334   9.715   8.934   7.938
20031WAT     H160335   9.730   8.954   8.035
20031WAT     H260336   9.638   8.871   7.928
20032WAT      O60337   6.390   3.824   3.878
20032WAT     H160338   6.316   3.823   3.810
20032WAT     H260339   6.428   3.733   3.887
20033WAT      O60340   7.946   6.745   4.944
20033WAT     H160341   7.978   6.801   4.868
20033WAT     H260342   8.013   6.750   5.019
20034WAT      O60343   3.442   9.682   6.227
20034WAT     H160344   3.497   9.737   6.164
20034WAT     H260345   3.406   9.741   6.299
20035WAT      O60346   8.985   6.411   4.506
20035WAT     H160347   8.960   6.437   4.600
20035WAT     H260348   8.907   6.368   4.462
20036WAT      O60349   6.129   8.238   5.846
20036WAT     H160350   6.196   8.166   5.862
20036WAT     H260351   6.116   8.251   5.748
20037WAT      O60352   7.895   7.744   3.439
20037WAT     H160353   7.938   7.820   3.488
20037WAT     H260354   7.959   7.668   3.433
20038WAT      O60355   2.679   8.600   9.870
20038WAT     H160356   2.765   8.638   9.837
20038WAT     H260357   2.662   8.630   9.964
20039WAT      O60358   6.687   8.982   5.682
20039WAT     H160359   6.744   8.923   5.739
20039WAT     H260360   6.735   9.069   5.667
20040WAT      O60361   0.038   3.676   9.696
20040WAT     H160362   0.113   3.676   9.762
20040WAT     H260363   0.042   3.591   9.642
20041WAT      O60364   6.758   0.545   7.403
20041WAT     H160365   6.727   0.594   7.321
20041WAT     H260366   6.743   0.602   7.484
20042WAT      O60367   4.551   3.023   5.725
20042WAT     H160368   4.549   3.122   5.711
20042WAT     H260369   4.461   2.985   5.704
20043WAT      O60370   7.699   9.327   6.695
20043WAT     H160371   7.659   9.258   6.755
20043WAT     H260372   7.797   9.334   6.714
20044WAT      O60373   3.234   6.835   0.717
20044WAT     H160374   3.190   6.763   0.772
20044WAT     H260375   3.182   6.850   0.633
20045WAT      O60376   0.921   3.672   6.586
20045WAT     H160377   0.881   3.752   6.631
20045WAT     H260378   1.017   3.691   6.564
20046WAT      O60379   8.231   9.269   7.557
20046WAT     H160380   8.261   9.288   7.650
20046WAT     H260381   8.199   9.174   7.551
20047WAT      O60382   0.469   5.442   5.281
20047WAT     H160383   0.535   5.517   5.274
20047WAT     H260384   0.518   5.355   5.292
20048WAT      O60385   1.939   3.353   5.490
20048WAT     H160386   1.964   3.404   5.408
20048WAT     H260387   1.850   3.385   5.524
20049WAT      O60388   9.095   3.130   8.520
20049WAT     H160389   9.083   3.116   8.618
20049WAT     H260390   9.190   3.110   8.495
20050WAT      O60391   5.934   5.308   7.038
20050WAT     H160392   5.901   5.239   7.103
20050WAT     H260393   5.861   5.376   7.023
20051WAT      O60394   5.806   8.614   2.346
20051WAT     H160395   5.867   8.620   2.425
20051WAT     H260396   5.794   8.518   2.320
20052WAT      O60397   3.307   8.214   3.742
20052WAT     H160398   3.241   8.287   3.759
20052WAT     H260399   3.262   8.137   3.696
20053WAT      O60400   2.913   8.805   2.095
20053WAT     H160401   2.893   8.708   2.097
20053WAT     H260402   2.880   8.845   2.009
20054WAT      O60403   8.786   8.486   1.400
20054WAT     H160404   8.794   8.436   1.313
20054WAT     H260405   8.778   8.584   1.381
20055WAT      O60406   7.181   3.198   5.197
20055WAT     H160407   7.183   3.218   5.099
20055WAT     H260408   7.087   3.202   5.230
20056WAT      O60409   3.118   6.836   5.915
20056WAT     H160410   3.188   6.824   5.986
20056WAT     H260411   3.032   6.863   5.957
20057WAT      O60412   5.819   7.129   7.072
20057WAT     H160413   5.769   7.154   6.988
20057WAT     H260414   5.868   7.044   7.057
20058WAT      O60415   9.102   3.725   8.065
20058WAT     H160416   9.098   3.770   8.155
20058WAT     H260417   9.009   3.716   8.029
20059WAT      O60418   4.147   7.181   1.426
20059WAT     H160419   4.224   7.242   1.443
20059WAT     H260420   4.073   7.202   1.491
20060WAT      O60421   2.794   9.045   4.511
20060WAT     H160422   2.846   8.969   4.472
20060WAT     H260423   2.780   9.029   4.609
20061WAT      O60424   1.522   2.028   3.604
20061WAT     H160425   1.435   2.078   3.597
20061WAT     H260426   1.581   2.073   3.671
20062WAT      O60427   6.165   3.270   3.093
20062WAT     H160428   6.133   3.277   2.998
20062WAT     H260429   6.207   3.181   3.108
20063WAT      O60430   5.290   7.861   3.324
20063WAT     H160431   5.305   7.762   3.317
20063WAT     H260432   5.377   7.908   3.335
20064WAT      O60433   1.369   9.257   7.788
20064WAT     H160434   1.293   9.268   7.725
20064WAT     H260435   1.349   9.306   7.873
20065WAT      O60436   8.108   4.627   8.510
20065WAT     H160437   8.057   4.546   8.483
20065WAT     H260438   8.051   4.708   8.494
20066WAT      O60439   7.104   3.412   3.275
20066WAT     H160440   7.142   3.466   3.200
20066WAT     H260441   7.144   3.441   3.361
20067WAT      O60442   1.012   0.965   0.978
20067WAT     H160443   0.982   1.052   0.940
20067WAT     H260444   0.962   0.890   0.933
20068WAT      O60445   7.921   1.326   5.211
20068WAT     H160446   8.020   1.342   5.215
20068WAT     H260447   7.886   1.311   5.304
20069WAT      O60448   1.248   9.102   5.278
20069WAT     H160449   1.216   9.095   5.373
20069WAT     H260450   1.185   9.159   5.226
20070WAT      O60451   2.167   9.145   9.520
20070WAT     H160452   2.094   9.181   9.462
20070WAT     H260453   2.255   9.152   9.472
20071WAT      O60454   3.830   6.313   4.429
20071WAT     H160455   3.829   6.265   4.517
20071WAT     H260456   3.910   6.284   4.376
20072WAT      O60457   8.710   2.169   7.212
20072WAT     H160458   8.761   2.181   7.127
20072WAT     H260459   8.736   2.082   7.255
20073WAT      O60460   3.803   9.492   2.331
20073WAT     H160461   3.850   9.570   2.373
20073WAT     H260462   3.821   9.410   2.385
20074WAT      O60463   3.806   0.178   1.950
20074WAT     H160464   3.710   0.206   1.953
20074WAT     H260465   3.813   0.081   1.970
20075WAT      O60466   8.333   7.222   0.993
20075WAT     H160467   8.367   7.307   0.953
20075WAT     H260468   8.410   7.169   1.029
20076WAT      O60469   0.453   6.803   3.116
20076WAT     H160470   0.455   6.887   3.171
20076WAT     H260471   0.362   6.761   3.124
20077WAT      O60472   1.387   6.439   5.029
20077WAT     H160473   1.366   6.504   4.956
20077WAT     H260474   1.447   6.482   5.096
20078WAT      O60475   9.037   3.861   8.723
20078WAT     H160476   8.999   3.837   8.634
20078WAT     H260477   9.086   3.948   8.716
20079WAT      O60478   3.237   7.068   2.277
20079WAT     H160479   3.203   7.159   2.302
20079WAT     H260480   3.159   7.007   2.263
20080WAT      O60481   5.936   2.512   7.559
20080WAT     H160482   6.006   2.522   7.630
20080WAT     H260483   5.872   2.589   7.564
20081WAT      O60484   7.948   3.160   1.640
20081WAT     H160485   8.015   3.202   1.578
20081WAT     H260486   7.948   3.209   1.727
20082WAT      O60487   7.871   5.331   8.163
20082WAT     H160488   7.782   5.336   8.208
20082WAT     H260489   7.930   5.267   8.213
20083WAT      O60490   3.806   8.827   1.476
20083WAT     H160491   3.767   8.852   1.387
20083WAT     H260492   3.732   8.808   1.541
20084WAT      O60493   3.463   6.926   2.620
20084WAT     H160494   3.545   6.931   2.563
20084WAT     H260495   3.419   7.015   2.623
20085WAT      O60496   8.413   5.110   7.586
20085WAT     H160497   8.451   5.019   7.601
20085WAT     H260498   8.319   5.113   7.620
20086WAT      O60499   6.335   1.576   7.246
20086WAT     H160500   6.419   1.543   7.204
20086WAT     H260501   6.259   1.515   7.222
20087WAT      O60502   3.708   8.718   8.204
20087WAT     H160503   3.614   8.728   8.238
20087WAT     H260504   3.768   8.781   8.254
20088WAT      O60505   1.712   5.310   5.578
20088WAT     H160506   1.677   5.367   5.504
20088WAT     H260507   1.752   5.368   5.649
20089WAT      O60508   7.877   3.600   5.845
20089WAT     H160509   7.815   3.542   5.792
20089WAT     H260510   7.972   3.575   5.826
20090WAT      O60511   7.466   2.308   1.339
20090WAT     H160512   7.376   2.347   1.320
20090WAT     H260513   7.507   2.356   1.417
20091WAT      O60514   9.604   2.978   7.958
20091WAT     H160515   9.640   2.902   7.903
20091WAT     H260516   9.504   2.972   7.959
20092WAT      O60517   0.471   2.825   3.640
20092WAT     H160518   0.442   2.834   3.544
20092WAT     H260519   0.390   2.821   3.698
20093WAT      O60520   7.632   8.299   5.077
20093WAT     H160521   7.622   8.282   4.979
20093WAT     H260522   7.684   8.384   5.090
20094WAT      O60523   3.061   3.978   0.152
20094WAT     H160524   3.042   4.072   0.123
20094WAT     H260525   3.138   3.978   0.216
20095WAT      O60526   0.987   9.214   6.149
20095WAT     H160527   0.895   9.193   6.115
20095WAT     H260528   1.055   9.174   6.088
20096WAT      O60529   9.579   7.227   4.674
20096WAT     H160530   9.608   7.251   4.767
20096WAT     H260531   9.565   7.310   4.621
20097WAT      O60532   1.914   5.294   1.339
20097WAT     H160533   1.947   5.384   1.368
20097WAT     H260534   1.818   5.283   1.366
20098WAT      O60535   1.607   6.127   9.101
20098WAT     H160536   1.516   6.146   9.064
20098WAT     H260537   1.600   6.112   9.200
20099WAT      O60538   7.567   1.291   5.437
20099WAT     H160539   7.499   1.330   5.499
20099WAT     H260540   7.655   1.337   5.450
20100WAT      O60541   7.417   3.739   1.063
20100WAT     H160542   7.338   3.677   1.061
20100WAT     H260543   7.482   3.706   1.132
20101WAT      O60544   2.380   5.679   0.749
20101WAT     H160545   2.318   5.742   0.702
20101WAT     H260546   2.464   5.727   0.772
20102WAT      O60547   7.421   8.767   5.772
20102WAT     H160548   7.439   8.861   5.802
20102WAT     H260549   7.482   8.743   5.697
20103WAT      O60550   4.420   0.067   4.530
20103WAT     H160551   4.389   0.074   4.625
20103WAT     H260552   4.442  -0.028   4.509
20104WAT      O60553   3.748   2.695   2.326
20104WAT     H160554   3.751   2.701   2.227
20104WAT     H260555   3.786   2.778   2.366
20105WAT      O60556   7.570   0.499   3.646
20105WAT     H160557   7.572   0.549   3.733
20105WAT     H260558   7.492   0.531   3.592
20106WAT      O60559   3.999   2.648   3.069
20106WAT     H160560   3.967   2.664   2.976
20106WAT     H260561   4.075   2.710   3.090
20107WAT      O60562   1.093   0.882   6.733
20107WAT     H160563   1.162   0.901   6.803
20107WAT     H260564   1.120   0.800   6.682
20108WAT      O60565   7.031   9.426   3.977
20108WAT     H160566   7.026   9.434   4.076
20108WAT     H260567   7.065   9.512   3.938
20109WAT      O60568   9.244   7.529   5.364
20109WAT     H160569   9.343   7.543   5.364
20109WAT     H260570   9.214   7.502   5.273
20110WAT      O60571   6.303   2.132   6.507
20110WAT     H160572   6.286   2.094   6.416
20110WAT     H260573   6.401   2.130   6.526
20111WAT      O60574   6.847   9.746   4.348
20111WAT     H160575   6.747   9.747   4.349
20111WAT     H260576   6.881   9.830   4.305
20112WAT      O60577   9.848   0.255   7.922
20112WAT     H160578   9.877   0.313   7.845
20112WAT     H260579   9.883   0.293   8.007
20113WAT      O60580   2.151   9.800   6.273
20113WAT     H160581   2.056   9.797   6.306
20113WAT     H260582   2.193   9.887   6.300
20114WAT      O60583   4.860   7.087   6.682
20114WAT     H160584   4.842   6.989   6.676
20114WAT     H260585   4.942   7.110   6.629
20115WAT      O60586   3.470   8.263   0.398
20115WAT     H160587   3.529   8.344   0.395
20115WAT     H260588   3.395   8.279   0.462
20116WAT      O60589   8.761   6.639   2.866
20116WAT     H160590   8.831   6.704   2.838
20116WAT     H260591   8.804   6.554   2.895
20117WAT      O60592   5.191   3.198   4.939
20117WAT     H160593   5.098   3.168   4.964
20117WAT     H260594   5.254   3.172   5.012
20118WAT      O60595   0.874   5.655   0.105
20118WAT     H160596   0.932   5.620   0.179
20118WAT     H260597   0.884   5.596   0.025
20119WAT      O60598   8.760   5.346   1.747
20119WAT     H160599   8.666   5.314   1.731
20119WAT     H260600   8.816   5.271   1.782
20120WAT      O60601   2.278   5.823   0.045
20120WAT     H160602   2.377   5.823   0.044
20120WAT     H260603   2.245   5.896   0.106
20121WAT      O60604   3.212   9.485   3.238
20121WAT     H160605   3.201   9.568   3.184
20121WAT     H260606   3.158   9.492   3.322
20122WAT      O60607   8.450   2.182   7.966
20122WAT     H160608   8.513   2.104   7.958
20122WAT     H260609   8.368   2.163   7.911
20123WAT      O60610   7.374   9.605   9.833
20123WAT     H160611   7.458   9.556   9.808
20123WAT     H260612   7.299   9.540   9.842
20124WAT      O60613   3.495   9.112   6.513
20124WAT     H160614   3.423   9.180   6.529
20124WAT     H260615   3.455   9.021   6.510
20125WAT      O60616   2.915   7.561   3.096
20125WAT     H160617   2.995   7.526   3.145
20125WAT     H260618   2.917   7.528   3.001
20126WAT      O60619   9.093   7.906   7.717
20126WAT     H160620   9.094   7.978   7.787
20126WAT     H260621   9.073   7.818   7.760
20127WAT      O60622   5.632   2.347   8.251
20127WAT     H160623   5.583   2.425   8.289
20127WAT     H260624   5.654   2.364   8.155
20128WAT      O60625   6.654   2.252   1.475
20128WAT     H160626   6.639   2.282   1.381
20128WAT     H260627   6.736   2.295   1.511
20129WAT      O60628   3.363   2.347   4.863
20129WAT     H160629   3.438   2.292   4.828
20129WAT     H260630   3.298   2.367   4.789
20130WAT      O60631   0.066   9.774   8.861
20130WAT     H160632  -0.023   9.810   8.833
20130WAT     H260633   0.119   9.846   8.904
20131WAT      O60634   8.191   5.061   8.097
20131WAT     H160635   8.133   5.140   8.117
20131WAT     H260636   8.286   5.083   8.120
20132WAT      O60637   8.458   8.045   1.352
20132WAT     H160638   8.489   8.061   1.258
20132WAT     H260639   8.431   8.132   1.393
20133WAT      O60640   1.895   3.757   0.008
20133WAT     H160641   1.895   3.660   0.032
20133WAT     H260642   1.961   3.807   0.064
20134WAT      O60643   9.531   3.850   7.018
20134WAT     H160644   9.589   3.901   7.082
20134WAT     H260645   9.499   3.767   7.062
20135WAT      O60646   7.024   6.988   3.363
20135WAT     H160647   7.100   7.016   3.304
20135WAT     H260648   6.947   6.960   3.306
20136WAT      O60649   1.217   5.589   8.052
20136WAT     H160650   1.222   5.688   8.065
20136WAT     H260651   1.276   5.562   7.976
20137WAT      O60652   2.846   0.510   8.714
20137WAT     H160653   2.918   0.480   8.777
20137WAT     H260654   2.761   0.461   8.735
20138WAT      O60655   2.281   3.749   3.195
20138WAT     H160656   2.290   3.794   3.284
20138WAT     H260657   2.313   3.811   3.123
20139WAT      O60658   0.511   1.924   5.182
20139WAT     H160659   0.540   1.836   5.219
20139WAT     H260660   0.582   1.959   5.120
20140WAT      O60661   5.911   2.243   6.305
20140WAT     H160662   5.957   2.184   6.238
20140WAT     H260663   5.914   2.200   6.395
20141WAT      O60664   0.744   1.544   9.237
20141WAT     H160665   0.835   1.542   9.198
20141WAT     H260666   0.718   1.640   9.254
20142WAT      O60667   4.230   7.892   5.898
20142WAT     H160668   4.243   7.835   5.817
20142WAT     H260669   4.280   7.852   5.975
20143WAT      O60670   1.234   2.217   2.782
20143WAT     H160671   1.274   2.291   2.836
20143WAT     H260672   1.305   2.149   2.760
20144WAT      O60673   7.006   0.449   9.045
20144WAT     H160674   7.099   0.434   9.079
20144WAT     H260675   6.947   0.476   9.120
20145WAT      O60676   6.591   6.052   0.643
20145WAT     H160677   6.533   5.987   0.595
20145WAT     H260678   6.537   6.131   0.672
20146WAT      O60679   4.386   1.397   3.140
20146WAT     H160680   4.375   1.388   3.041
20146WAT     H260681   4.452   1.330   3.173
20147WAT      O60682   8.613   9.366   5.961
20147WAT     H160683   8.680   9.295   5.943
20147WAT     H260684   8.628   9.405   6.052
20148WAT      O60685   2.584   1.167   2.885
20148WAT     H160686   2.669   1.138   2.929
20148WAT     H260687   2.540   1.238   2.940
20149WAT      O60688   8.623   3.489   6.654
20149WAT     H160689   8.718   3.495   6.625
20149WAT     H260690   8.608   3.404   6.706
20150WAT      O60691   4.692   5.598   6.718
20150WAT     H160692   4.634   5.615   6.638
20150WAT     H260693   4.658   5.518   6.767
20151WAT      O60694   5.094   9.364   2.969
20151WAT     H160695   5.012   9.351   3.023
20151WAT     H260696   5.170   9.389   3.029
20152WAT      O60697   9.742   1.268   6.437
20152WAT     H160698   9.797   1.348   6.461
20152WAT     H260699   9.720   1.217   6.520
20153WAT      O60700   9.485   6.376   1.453
20153WAT     H160701   9.431   6.293   1.443
20153WAT     H260702   9.540   6.370   1.537
20154WAT      O60703   4.375   0.920   4.242
20154WAT     H160704   4.328   0.842   4.201
20154WAT     H260705   4.310   0.995   4.254
20155WAT      O60706   7.400   0.245   8.514
20155WAT     H160707   7.414   0.168   8.453
20155WAT     H260708   7.424   0.219   8.607
20156WAT      O60709   9.388   2.889   9.764
20156WAT     H160710   9.325   2.811   9.757
20156WAT     H260711   9.402   2.912   9.860
20157WAT      O60712   1.121   3.627   3.806
20157WAT     H160713   1.117   3.620   3.706
20157WAT     H260714   1.039   3.587   3.845
20158WAT      O60715   0.819   5.001   8.226
20158WAT     H160716   0.842   5.091   8.264
20158WAT     H260717   0.838   5.001   8.128
20159WAT      O60718   1.002   7.179   0.276
20159WAT     H160719   1.044   7.269   0.261
20159WAT     H260720   0.970   7.143   0.189
20160WAT      O60721   8.122   7.438   8.629
20160WAT     H160722   8.211   7.465   8.667
20160WAT     H260723   8.085   7.362   8.681
20161WAT      O60724   9.231   2.023   5.606
20161WAT     H160725   9.316   2.052   5.649
20161WAT     H260726   9.171   1.983   5.675
20162WAT      O60727   6.806   2.705   2.374
20162WAT     H160728   6.713   2.727   2.403
20162WAT     H260729   6.835   2.619   2.417
20163WAT      O60730   3.578   0.836   9.695
20163WAT     H160731   3.597   0.790   9.782
20163WAT     H260732   3.645   0.807   9.627
20164WAT      O60733   3.308   0.931   3.328
20164WAT     H160734   3.263   0.972   3.407
20164WAT     H260735   3.386   0.987   3.302
20165WAT      O60736   6.001   3.676   2.537
20165WAT     H160737   6.004   3.755   2.476
20165WAT     H260738   5.926   3.687   2.602
20166WAT      O60739   7.984   6.195   0.671
20166WAT     H160740   8.041   6.272   0.642
20166WAT     H260741   7.920   6.226   0.741
20167WAT      O60742   2.280   6.260   4.152
20167WAT     H160743   2.203   6.218   4.105
20167WAT     H260744   2.247   6.311   4.231
20168WAT      O60745   4.499   0.054   1.862
20168WAT     H160746   4.485  -0.045   1.868
20168WAT     H260747   4.497   0.094   1.953
20169WAT      O60748   4.149   1.993   6.778
20169WAT     H160749   4.162   1.936   6.859
20169WAT     H260750   4.072   2.054   6.793
20170WAT      O60751   1.504   6.285   0.457
20170WAT     H160752   1.428   6.272   0.520
20170WAT     H260753   1.540   6.378   0.466
20171WAT      O60754   0.525   8.490   7.445
20171WAT     H160755   0.429   8.488   7.475
20171WAT     H260756   0.583   8.513   7.523
20172WAT      O60757   7.764   0.702   6.228
20172WAT     H160758   7.844   0.718   6.170
20172WAT     H260759   7.685   0.683   6.170
20173WAT      O60760   7.274   7.309   3.413
20173WAT     H160761   7.215   7.349   3.343
20173WAT     H260762   7.237   7.329   3.504
20174WAT      O60763   0.257   7.106   4.364
20174WAT     H160764   0.184   7.039   4.352
20174WAT     H260765   0.225   7.196   4.335
20175WAT      O60766   4.254   2.031   2.439
20175WAT     H160767   4.240   2.122   2.400
20175WAT     H260768   4.344   2.026   2.482
20176WAT      O60769   3.339   4.669   0.076
20176WAT     H160770   3.423   4.614   0.075
20176WAT     H260771   3.265   4.617   0.032
20177WAT      O60772   2.213   9.127   1.499
20177WAT     H160773   2.312   9.134   1.512
20177WAT     H260774   2.176   9.060   1.562
20178WAT      O60775   1.905   2.319   7.707
20178WAT     H160776   1.927   2.416   7.717
20178WAT     H260777   1.919   2.290   7.613
20179WAT      O60778   6.681   5.933   8.946
20179WAT     H160779   6.640   5.854   8.899
20179WAT     H260780   6.774   5.910   8.974
20180WAT      O60781   2.006   4.708   5.994
20180WAT     H160782   2.055   4.795   6.005
20180WAT     H260783   2.063   4.645   5.941
20181WAT      O60784   5.748   8.105   1.571
20181WAT     H160785   5.690   8.056   1.636
20181WAT     H260786   5.804   8.040   1.520
20182WAT      O60787   0.386   8.325   2.342
20182WAT     H160788   0.361   8.412   2.300
20182WAT     H260789   0.332   8.251   2.302
20183WAT      O60790   9.726   7.495   7.171
20183WAT     H160791   9.799   7.454   7.116
20183WAT     H260792   9.765   7.565   7.231
20184WAT      O60793   1.925   2.590   7.656
20184WAT     H160794   1.885   2.651   7.725
20184WAT     H260795   1.874   2.598   7.571
20185WAT      O60796   2.267   4.646   0.273
20185WAT     H160797   2.337   4.597   0.223
20185WAT     H260798   2.202   4.581   0.312
20186WAT      O60799   7.973   5.288   5.650
20186WAT     H160800   7.897   5.250   5.704
20186WAT     H260801   7.947   5.377   5.613
20187WAT      O60802   0.068   4.511   1.459
20187WAT     H160803   0.121   4.450   1.401
20187WAT     H260804   0.118   4.597   1.472
20188WAT      O60805   8.898   8.698   8.918
20188WAT     H160806   8.823   8.640   8.885
20188WAT     H260807   8.976   8.641   8.942
20189WAT      O60808   5.994   1.104   1.818
20189WAT     H160809   5.994   1.066   1.911
20189WAT     H260810   6.023   1.033   1.754
20190WAT      O60811   6.893   6.753   0.412
20190WAT     H160812   6.845   6.700   0.342
20190WAT     H260813   6.961   6.811   0.367
20191WAT      O60814   1.043   8.727   5.845
20191WAT     H160815   1.036   8.780   5.930
20191WAT     H260816   1.014   8.633   5.862
20192WAT      O60817   4.025   4.511   4.883
20192WAT     H160818   4.033   4.418   4.918
20192WAT     H260819   3.993   4.508   4.788
20193WAT      O60820   4.991   3.770   0.454
20193WAT     H160821   5.061   3.700   0.458
20193WAT     H260822   5.007   3.837   0.527
20194WAT      O60823   3.616   4.780   2.418
20194WAT     H160824   3.621   4.770   2.319
20194WAT     H260825   3.689   4.725   2.460
20195WAT      O60826   6.128   6.254   3.528
20195WAT     H160827   6.071   6.208   3.596
20195WAT     H260828   6.116   6.209   3.440
20196WAT      O60829   2.759   9.388   1.694
20196WAT     H160830   2.738   9.448   1.771
20196WAT     H260831   2.769   9.442   1.610
20197WAT      O60832   6.568   6.842   5.279
20197WAT     H160833   6.560   6.843   5.179
20197WAT     H260834   6.478   6.858   5.320
20198WAT      O60835   4.172   8.002   1.120
20198WAT     H160836   4.187   7.924   1.059
20198WAT     H260837   4.259   8.047   1.140
20199WAT      O60838   3.512   6.727   9.053
20199WAT     H160839   3.505   6.695   9.147
20199WAT     H260840   3.433   6.784   9.031
20200WAT      O60841   0.336   5.437   0.430
20200WAT     H160842   0.247   5.477   0.409
20200WAT     H260843   0.409   5.498   0.399
20201WAT      O60844   2.771   7.628   4.478
20201WAT     H160845   2.761   7.715   4.430
20201WAT     H260846   2.722   7.632   4.565
20202WAT      O60847   5.881   0.089   7.788
20202WAT     H160848   5.948   0.089   7.862
20202WAT     H260849   5.922   0.126   7.705
20203WAT      O60850   8.110   8.943   8.745
20203WAT     H160851   8.125   9.024   8.688
20203WAT     H260852   8.020   8.949   8.788
20204WAT      O60853   6.734   9.204   3.805
20204WAT     H160854   6.816   9.222   3.749
20204WAT     H260855   6.732   9.107   3.830
20205WAT      O60856   3.000   0.171   6.604
20205WAT     H160857   2.903   0.182   6.583
20205WAT     H260858   3.012   0.155   6.702
20206WAT      O60859   4.468   6.569   6.770
20206WAT     H160860   4.474   6.549   6.868
20206WAT     H260861   4.526   6.507   6.719
20207WAT      O60862   3.419   0.012   1.217
20207WAT     H160863   3.430   0.040   1.122
20207WAT     H260864   3.459  -0.079   1.230
20208WAT      O60865   8.782   8.438   8.272
20208WAT     H160866   8.764   8.358   8.216
20208WAT     H260867   8.696   8.476   8.305
20209WAT      O60868   3.274   5.724   7.151
20209WAT     H160869   3.348   5.791   7.144
20209WAT     H260870   3.313   5.632   7.155
20210WAT      O60871   8.182   3.765   9.259
20210WAT     H160872   8.118   3.838   9.233
20210WAT     H260873   8.276   3.795   9.242
20211WAT      O60874   1.183   5.707   5.907
20211WAT     H160875   1.143   5.641   5.972
20211WAT     H260876   1.256   5.662   5.856
20212WAT      O60877   8.293   9.351   0.156
20212WAT     H160878   8.389   9.380   0.167
20212WAT     H260879   8.262   9.311   0.242
20213WAT      O60880   3.211   9.349   4.251
20213WAT     H160881   3.203   9.337   4.152
20213WAT     H260882   3.305   9.330   4.279
20214WAT      O60883   4.169   6.838   0.594
20214WAT     H160884   4.143   6.755   0.545
20214WAT     H260885   4.266   6.833   0.619
20215WAT      O60886   7.992   3.506   6.881
20215WAT     H160887   8.055   3.542   6.949
20215WAT     H260888   7.919   3.572   6.864
20216WAT      O60889   5.363   1.054   5.876
20216WAT     H160890   5.444   1.111   5.887
20216WAT     H260891   5.288   1.110   5.839
20217WAT      O60892   2.866   9.774   5.671
20217WAT     H160893   2.777   9.778   5.717
20217WAT     H260894   2.863   9.706   5.598
20218WAT      O60895   6.740   8.905   5.419
20218WAT     H160896   6.710   8.945   5.505
20218WAT     H260897   6.764   8.978   5.355
20219WAT      O60898   5.184   6.172   1.047
20219WAT     H160899   5.246   6.102   1.011
20219WAT     H260900   5.090   6.141   1.036
20220WAT      O60901   3.341   9.541   4.796
20220WAT     H160902   3.333   9.486   4.714
20220WAT     H260903   3.424   9.597   4.791
20221WAT      O60904   3.109   5.595   3.157
20221WAT     H160905   3.187   5.595   3.219
20221WAT     H260906   3.043   5.526   3.187
20222WAT      O60907   7.356   4.223   9.667
20222WAT     H160908   7.421   4.190   9.598
20222WAT     H260909   7.280   4.270   9.622
20223WAT      O60910   3.191   8.738   2.085
20223WAT     H160911   3.202   8.652   2.036
20223WAT     H260912   3.093   8.762   2.088
20224WAT      O60913   5.893   4.625   2.421
20224WAT     H160914   5.940   4.565   2.486
20224WAT     H260915   5.870   4.575   2.338
20225WAT      O60916   0.806   0.191   0.807
20225WAT     H160917   0.761   0.237   0.730
20225WAT     H260918   0.792   0.245   0.890
20226WAT      O60919   0.141   3.306   5.252
20226WAT     H160920   0.101   3.216   5.270
20226WAT     H260921   0.230   3.313   5.297
20227WAT      O60922   9.606   4.750   4.290
20227WAT     H160923   9.597   4.656   4.256
20227WAT     H260924   9.672   4.800   4.233
20228WAT      O60925   4.406   2.092   6.836
20228WAT     H160926   4.318   2.045   6.830
20228WAT     H260927   4.417   2.130   6.928
20229WAT      O60928   5.451   1.411   9.816
20229WAT     H160929   5.466   1.393   9.913
20229WAT     H260930   5.431   1.325   9.769
20230WAT      O60931   2.784   0.460   7.448
20230WAT     H160932   2.871   0.425   7.482
20230WAT     H260933   2.717   0.386   7.446
20231WAT      O60934   0.358   7.408   6.633
20231WAT     H160935   0.372   7.507   6.636
20231WAT     H260936   0.447   7.363   6.629
20232WAT      O60937   3.745   3.955   0.350
20232WAT     H160938   3.762   3.859   0.375
20232WAT     H260939   3.833   4.003   0.342
20233WAT      O60940   2.471   3.822   4.775
20233WAT     H160941   2.416   3.762   4.717
20233WAT     H260942   2.446   3.807   4.871
20234WAT      O60943   0.980   9.093   4.936
20234WAT     H160944   1.070   9.062   4.906
20234WAT     H260945   0.988   9.185   4.976
20235WAT      O60946   3.600   5.793   8.710
20235WAT     H160947   3.593   5.875   8.654
20235WAT     H260948   3.675   5.736   8.677
20236WAT      O60949   9.311   3.362   1.690
20236WAT     H160950   9.234   3.304   1.717
20236WAT     H260951   9.299   3.392   1.596
20237WAT      O60952   9.080   0.912   2.115
20237WAT     H160953   9.010   0.962   2.164
20237WAT     H260954   9.158   0.972   2.095
20238WAT      O60955   8.721   0.406   7.908
20238WAT     H160956   8.712   0.356   7.994
20238WAT     H260957   8.728   0.504   7.927
20239WAT      O60958   8.722   4.412   9.545
20239WAT     H160959   8.689   4.320   9.564
20239WAT     H260960   8.700   4.472   9.622
20240WAT      O60961   3.190   1.133   4.742
20240WAT     H160962   3.103   1.181   4.732
20240WAT     H260963   3.243   1.175   4.815
20241WAT      O60964   9.394   3.640   8.210
20241WAT     H160965   9.314   3.678   8.163
20241WAT     H260966   9.387   3.659   8.308
20242WAT      O60967   9.619   8.766   1.699
20242WAT     H160968   9.616   8.758   1.799
20242WAT     H260969   9.708   8.736   1.666
20243WAT      O60970   6.870   4.919   6.265
20243WAT     H160971   6.882   5.015   6.290
20243WAT     H260972   6.949   4.866   6.297
20244WAT      O60973   1.963   3.530   5.224
20244WAT     H160974   2.011   3.547   5.138
20244WAT     H260975   1.954   3.616   5.275
20245WAT      O60976   6.758   6.499   4.480
20245WAT     H160977   6.710   6.587   4.477
20245WAT     H260978   6.806   6.490   4.567
20246WAT      O60979   0.635   2.805   8.397
20246WAT     H160980   0.659   2.793   8.301
20246WAT     H260981   0.552   2.861   8.404
20247WAT      O60982   6.077   5.989   2.728
20247WAT     H160983   6.043   5.958   2.817
20247WAT     H260984   6.167   5.949   2.711
20248WAT      O60985   7.151   8.910   9.376
20248WAT     H160986   7.083   8.980   9.395
20248WAT     H260987   7.241   8.953   9.368
20249WAT      O60988   1.556   4.308   9.748
20249WAT     H160989   1.477   4.351   9.791
20249WAT     H260990   1.629   4.376   9.737
20250WAT      O60991   8.991   7.507   8.603
20250WAT     H160992   8.954   7.590   8.645
20250WAT     H260993   8.960   7.427   8.655
20251WAT      O60994   0.529   3.406   5.815
20251WAT     H160995   0.528   3.326   5.875
20251WAT     H260996   0.588   3.388   5.736
20252WAT      O60997   9.294   2.824   0.480
20252WAT     H160998   9.334   2.910   0.512
20252WAT     H260999   9.328   2.749   0.536
20253WAT      O61000   2.276   3.340   7.694
20253WAT     H161001   2.270   3.290   7.608
20253WAT     H261002   2.185   3.370   7.721
20254WAT      O61003   3.838   3.515   9.728
20254WAT     H161004   3.746   3.548   9.705
20254WAT     H261005   3.892   3.507   9.645
20255WAT      O61006   5.286   5.886   0.224
20255WAT     H161007   5.288   5.790   0.197
20255WAT     H261008   5.308   5.894   0.321
20256WAT      O61009   5.863   6.182   7.238
20256WAT     H161010   5.859   6.260   7.177
20256WAT     H261011   5.798   6.112   7.208
20257WAT      O61012   1.123   8.333   6.214
20257WAT     H161013   1.147   8.302   6.306
20257WAT     H261014   1.175   8.415   6.191
20258WAT      O61015   3.433   2.869   7.962
20258WAT     H161016   3.361   2.818   7.915
20258WAT     H261017   3.460   2.818   8.044
20259WAT      O61018   7.605   6.732   4.342
20259WAT     H161019   7.675   6.788   4.298
20259WAT     H261020   7.611   6.744   4.442
20260WAT      O61021   5.136   8.348   6.213
20260WAT     H161022   5.184   8.433   6.231
20260WAT     H261023   5.044   8.367   6.180
20261WAT      O61024   5.264   9.028   6.273
20261WAT     H161025   5.213   8.942   6.274
20261WAT     H261026   5.352   9.015   6.319
20262WAT      O61027   9.445   1.551   2.470
20262WAT     H161028   9.447   1.630   2.532
20262WAT     H261029   9.353   1.512   2.469
20263WAT      O61030   2.532   1.656   4.910
20263WAT     H161031   2.512   1.621   4.818
20263WAT     H261032   2.626   1.691   4.912
20264WAT      O61033   1.260   6.335   2.685
20264WAT     H161034   1.279   6.240   2.660
20264WAT     H261035   1.193   6.373   2.622
20265WAT      O61036   3.532   8.006   8.310
20265WAT     H161037   3.473   8.077   8.350
20265WAT     H261038   3.615   7.998   8.366
20266WAT      O61039   8.711   1.486   4.442
20266WAT     H161040   8.782   1.443   4.387
20266WAT     H261041   8.649   1.415   4.477
20267WAT      O61042   7.797   4.231   8.502
20267WAT     H161043   7.837   4.152   8.454
20267WAT     H261044   7.842   4.241   8.591
20268WAT      O61045   1.839   1.239   7.496
20268WAT     H161046   1.778   1.314   7.472
20268WAT     H261047   1.825   1.215   7.593
20269WAT      O61048   4.882   0.712   0.652
20269WAT     H161049   4.902   0.781   0.582
20269WAT     H261050   4.956   0.645   0.655
20270WAT      O61051   1.638   6.884   0.937
20270WAT     H161052   1.652   6.960   1.000
20270WAT     H261053   1.725   6.840   0.919
20271WAT      O61054   2.084   9.512   3.817
20271WAT     H161055   2.149   9.442   3.845
20271WAT     H261056   2.133   9.588   3.775
20272WAT      O61057   6.818   0.457   6.441
20272WAT     H161058   6.730   0.497   6.416
20272WAT     H261059   6.862   0.515   6.511
20273WAT      O61060   4.531   3.417   5.195
20273WAT     H161061   4.461   3.427   5.125
20273WAT     H261062   4.490   3.380   5.279
20274WAT      O61063   7.214   1.491   6.275
20274WAT     H161064   7.207   1.404   6.226
20274WAT     H261065   7.173   1.564   6.220
20275WAT      O61066   9.556   6.162   5.940
20275WAT     H161067   9.626   6.203   5.882
20275WAT     H261068   9.582   6.068   5.964
20276WAT      O61069   7.172   5.256   3.823
20276WAT     H161070   7.076   5.276   3.801
20276WAT     H261071   7.176   5.183   3.891
20277WAT      O61072   1.975   4.538   4.827
20277WAT     H161073   2.023   4.496   4.751
20277WAT     H261074   2.031   4.613   4.864
20278WAT      O61075   9.385   7.017   3.153
20278WAT     H161076   9.413   7.092   3.214
20278WAT     H261077   9.285   7.014   3.149
20279WAT      O61078   7.556   7.570   2.181
20279WAT     H161079   7.467   7.526   2.197
20279WAT     H261080   7.563   7.597   2.085
20280WAT      O61081   0.353   7.213   5.749
20280WAT     H161082   0.298   7.288   5.785
20280WAT     H261083   0.445   7.215   5.791
20281WAT      O61084   9.132   7.168   4.096
20281WAT     H161085   9.193   7.153   4.018
20281WAT     H261086   9.142   7.092   4.161
20282WAT      O61087   7.310   5.470   2.947
20282WAT     H161088   7.330   5.391   3.005
20282WAT     H261089   7.306   5.553   3.003
20283WAT      O61090   1.771   3.551   1.771
20283WAT     H161091   1.810   3.544   1.679
20283WAT     H261092   1.840   3.525   1.839
20284WAT      O61093   1.030   6.105   0.156
20284WAT     H161094   0.969   6.151   0.091
20284WAT     H261095   1.123   6.101   0.119
20285WAT      O61096   2.116   0.822   7.281
20285WAT     H161097   2.169   0.870   7.351
20285WAT     H261098   2.018   0.836   7.300
20286WAT      O61099   0.630   5.653   9.770
20286WAT     H161100   0.588   5.679   9.684
20286WAT     H261101   0.573   5.584   9.816
20287WAT      O61102   9.400   3.586   6.765
20287WAT     H161103   9.356   3.502   6.732
20287WAT     H261104   9.487   3.599   6.718
20288WAT      O61105   5.922   4.751   5.655
20288WAT     H161106   5.940   4.825   5.720
20288WAT     H261107   5.824   4.735   5.650
20289WAT      O61108   8.149   9.839   4.413
20289WAT     H161109   8.123   9.743   4.409
20289WAT     H261110   8.076   9.895   4.373
20290WAT      O61111   4.365   2.085   2.918
20290WAT     H161112   4.374   2.140   2.835
20290WAT     H261113   4.284   2.025   2.910
20291WAT      O61114   6.153   9.434   8.710
20291WAT     H161115   6.075   9.406   8.766
20291WAT     H261116   6.123   9.497   8.639
20292WAT      O61117   4.924   2.009   9.261
20292WAT     H161118   4.997   2.016   9.328
20292WAT     H261119   4.948   2.061   9.179
20293WAT      O61120   6.906   3.011   5.408
20293WAT     H161121   6.873   2.999   5.502
20293WAT     H261122   6.897   2.925   5.359
20294WAT      O61123   8.513   5.873   1.596
20294WAT     H161124   8.548   5.952   1.645
20294WAT     H261125   8.417   5.859   1.619
20295WAT      O61126   2.955   3.919   2.185
20295WAT     H161127   2.879   3.861   2.155
20295WAT     H261128   2.935   3.953   2.277
20296WAT      O61129   4.651   0.049   8.461
20296WAT     H161130   4.737   0.004   8.437
20296WAT     H261131   4.662   0.099   8.547
20297WAT      O61132   6.215   9.469   2.123
20297WAT     H161133   6.183   9.563   2.110
20297WAT     H261134   6.287   9.468   2.193
20298WAT      O61135   0.303   7.828   9.069
20298WAT     H161136   0.259   7.880   9.141
20298WAT     H261137   0.286   7.872   8.980
20299WAT      O61138   6.718   2.531   3.406
20299WAT     H161139   6.781   2.563   3.476
20299WAT     H261140   6.688   2.608   3.350
20300WAT      O61141   6.284   3.833   9.209
20300WAT     H161142   6.210   3.853   9.145
20300WAT     H261143   6.248   3.835   9.303
20301WAT      O61144   2.860   6.514   2.084
20301WAT     H161145   2.784   6.485   2.142
20301WAT     H261146   2.934   6.551   2.140
20302WAT      O61147   4.718   1.582   4.828
20302WAT     H161148   4.741   1.664   4.881
20302WAT     H261149   4.670   1.609   4.744
20303WAT      O61150   5.720   9.314   7.631
20303WAT     H161151   5.819   9.309   7.617
20303WAT     H261152   5.692   9.244   7.696
20304WAT      O61153   0.077   2.060   4.386
20304WAT     H161154   0.148   2.067   4.455
20304WAT     H261155   0.058   2.151   4.349
20305WAT      O61156   1.139   5.871   5.440
20305WAT     H161157   1.100   5.794   5.389
20305WAT     H261158   1.105   5.957   5.402
20306WAT      O61159   0.942   7.613   1.451
20306WAT     H161160   1.000   7.537   1.419
20306WAT     H261161   0.846   7.586   1.447
20307WAT      O61162   3.481   5.554   8.744
20307WAT     H161163   3.534   5.632   8.710
20307WAT     H261164   3.472   5.560   8.843
20308WAT      O61165   2.876   4.561   5.647
20308WAT     H161166   2.841   4.544   5.555
20308WAT     H261167   2.853   4.485   5.707
20309WAT      O61168   5.542   3.485   9.739
20309WAT     H161169   5.479   3.560   9.720
20309WAT     H261170   5.490   3.401   9.755
20310WAT      O61171   3.387   9.755   5.588
20310WAT     H161172   3.430   9.799   5.509
20310WAT     H261173   3.288   9.750   5.573
20311WAT      O61174   5.801   7.681   6.055
20311WAT     H161175   5.712   7.636   6.065
20311WAT     H261176   5.869   7.614   6.026
20312WAT      O61177   1.412   5.799   6.254
20312WAT     H161178   1.343   5.741   6.295
20312WAT     H261179   1.382   5.828   6.163
20313WAT      O61180   4.940   7.472   9.119
20313WAT     H161181   4.865   7.445   9.058
20313WAT     H261182   5.011   7.402   9.118
20314WAT      O61183   5.569   9.452   6.803
20314WAT     H161184   5.628   9.372   6.814
20314WAT     H261185   5.541   9.485   6.893
20315WAT      O61186   8.749   7.512   1.806
20315WAT     H161187   8.654   7.525   1.835
20315WAT     H261188   8.765   7.561   1.721
20316WAT      O61189   2.964   6.397   6.532
20316WAT     H161190   3.034   6.359   6.472
20316WAT     H261191   2.956   6.495   6.516
20317WAT      O61192   1.579   5.862   1.456
20317WAT     H161193   1.502   5.911   1.497
20317WAT     H261194   1.647   5.928   1.425
20318WAT      O61195   7.888   2.173   7.923
20318WAT     H161196   7.964   2.157   7.859
20318WAT     H261197   7.803   2.181   7.873
20319WAT      O61198   8.393   2.192   8.572
20319WAT     H161199   8.431   2.272   8.619
20319WAT     H261200   8.404   2.203   8.473
20320WAT      O61201   4.720   1.548   8.690
20320WAT     H161202   4.709   1.641   8.656
20320WAT     H261203   4.648   1.527   8.756
20321WAT      O61204   0.163   6.701   3.047
20321WAT     H161205   0.221   6.714   2.966
20321WAT     H261206   0.093   6.773   3.049
20322WAT      O61207   9.479   4.376   9.890
20322WAT     H161208   9.392   4.398   9.845
20322WAT     H261209   9.553   4.429   9.848
20323WAT      O61210   0.417   1.269   9.311
20323WAT     H161211   0.490   1.204   9.290
20323WAT     H261212   0.456   1.351   9.352
20324WAT      O61213   2.226   6.349   5.938
20324WAT     H161214   2.154   6.412   5.907
20324WAT     H261215   2.314   6.379   5.901
20325WAT      O61216   3.172   6.606   8.004
20325WAT     H161217   3.137   6.699   7.992
20325WAT     H261218   3.268   6.610   8.033
20326WAT      O61219   5.080   0.496   6.140
20326WAT     H161220   5.067   0.454   6.050
20326WAT     H261221   5.035   0.440   6.210
20327WAT      O61222   7.347   1.452   3.008
20327WAT     H161223   7.442   1.466   3.036
20327WAT     H261224   7.289   1.446   3.089
20328WAT      O61225   7.381   0.815   7.736
20328WAT     H161226   7.293   0.834   7.779
20328WAT     H261227   7.380   0.846   7.641
20329WAT      O61228   9.231   0.647   4.560
20329WAT     H161229   9.289   0.640   4.480
20329WAT     H261230   9.269   0.716   4.623
20330WAT      O61231   0.267   0.127   3.057
20330WAT     H161232   0.313   0.091   2.976
20330WAT     H261233   0.186   0.072   3.077
20331WAT      O61234   2.989   6.348   5.005
20331WAT     H161235   3.017   6.337   5.101
20331WAT     H261236   3.061   6.312   4.945
20332WAT      O61237   6.567   8.186   8.869
20332WAT     H161238   6.543   8.272   8.825
20332WAT     H261239   6.666   8.174   8.868
20333WAT      O61240   0.994   9.517   7.314
20333WAT     H161241   0.973   9.424   7.345
20333WAT     H261242   1.020   9.514   7.218
20334WAT      O61243   5.081   8.963   4.109
20334WAT     H161244   5.117   8.890   4.167
20334WAT     H261245   5.147   9.039   4.106
20335WAT      O61246   3.430   6.841   8.683
20335WAT     H161247   3.349   6.821   8.629
20335WAT     H261248   3.505   6.868   8.622
20336WAT      O61249   5.922   2.912   4.608
20336WAT     H161250   5.852   2.918   4.537
20336WAT     H261251   5.963   3.002   4.624
20337WAT      O61252   4.115   1.061   1.460
20337WAT     H161253   4.065   0.997   1.401
20337WAT     H261254   4.065   1.073   1.546
20338WAT      O61255   5.088   3.502   2.838
20338WAT     H161256   5.142   3.455   2.909
20338WAT     H261257   5.047   3.433   2.778
20339WAT      O61258   5.871   3.898   5.582
20339WAT     H161259   5.970   3.901   5.570
20339WAT     H261260   5.832   3.827   5.522
20340WAT      O61261   8.123   0.295   8.832
20340WAT     H161262   8.141   0.315   8.735
20340WAT     H261263   8.028   0.267   8.843
20341WAT      O61264   3.880   0.896   7.678
20341WAT     H161265   3.782   0.909   7.660
20341WAT     H261266   3.921   0.845   7.603
20342WAT      O61267   4.357   7.770   4.056
20342WAT     H161268   4.434   7.755   3.993
20342WAT     H261269   4.272   7.774   4.004
20343WAT      O61270   5.190   7.042   4.770
20343WAT     H161271   5.141   7.000   4.694
20343WAT     H261272   5.200   6.976   4.845
20344WAT      O61273   5.331   3.114   3.021
20344WAT     H161274   5.388   3.080   3.096
20344WAT     H261275   5.343   3.056   2.941
20345WAT      O61276   7.727   3.441   5.677
20345WAT     H161277   7.630   3.420   5.691
20345WAT     H261278   7.773   3.361   5.638
20346WAT      O61279   4.360   7.894   4.312
20346WAT     H161280   4.362   7.838   4.229
20346WAT     H261281   4.269   7.934   4.323
20347WAT      O61282   9.607   0.726   1.132
20347WAT     H161283   9.664   0.746   1.052
20347WAT     H261284   9.657   0.667   1.195
20348WAT      O61285   2.658   6.866   2.509
20348WAT     H161286   2.723   6.937   2.539
20348WAT     H261287   2.565   6.896   2.530
20349WAT      O61288   8.427   3.283   4.691
20349WAT     H161289   8.386   3.201   4.731
20349WAT     H261290   8.437   3.271   4.592
20350WAT      O61291   9.161   1.781   0.593
20350WAT     H161292   9.261   1.777   0.598
20350WAT     H261293   9.132   1.754   0.501
20351WAT      O61294   3.272   1.185   7.840
20351WAT     H161295   3.323   1.101   7.825
20351WAT     H261296   3.336   1.261   7.853
20352WAT      O61297   1.422   0.695   8.992
20352WAT     H161298   1.438   0.755   8.914
20352WAT     H261299   1.471   0.730   9.072
20353WAT      O61300   1.151   3.893   5.465
20353WAT     H161301   1.187   3.978   5.504
20353WAT     H261302   1.140   3.903   5.366
20354WAT      O61303   4.530   7.696   3.075
20354WAT     H161304   4.434   7.711   3.049
20354WAT     H261305   4.587   7.767   3.033
20355WAT      O61306   3.403   1.637   9.681
20355WAT     H161307   3.332   1.686   9.630
20355WAT     H261308   3.366   1.550   9.713
20356WAT      O61309   5.783   5.888   2.328
20356WAT     H161310   5.820   5.946   2.255
20356WAT     H261311   5.854   5.873   2.397
20357WAT      O61312   6.104   2.378   2.643
20357WAT     H161313   6.197   2.413   2.629
20357WAT     H261314   6.105   2.312   2.718
20358WAT      O61315   2.696   1.055   5.733
20358WAT     H161316   2.737   0.964   5.720
20358WAT     H261317   2.756   1.125   5.696
20359WAT      O61318   0.926   6.089   6.831
20359WAT     H161319   0.923   6.176   6.782
20359WAT     H261320   0.885   6.017   6.775
20360WAT      O61321   5.982   2.958   0.631
20360WAT     H161322   6.015   2.997   0.545
20360WAT     H261323   6.055   2.905   0.674
20361WAT      O61324   7.213   3.241   6.238
20361WAT     H161325   7.280   3.254   6.164
20361WAT     H261326   7.260   3.204   6.318
20362WAT      O61327   0.531   8.708   1.005
20362WAT     H161328   0.548   8.806   1.007
20362WAT     H261329   0.583   8.667   0.930
20363WAT      O61330   2.183   0.948   2.396
20363WAT     H161331   2.092   0.908   2.383
20363WAT     H261332   2.177   1.047   2.384
20364WAT      O61333   1.244   0.059   7.570
20364WAT     H161334   1.338   0.027   7.578
20364WAT     H261335   1.185   0.005   7.631
20365WAT      O61336   3.395   0.303   9.488
20365WAT     H161337   3.438   0.371   9.547
20365WAT     H261338   3.311   0.341   9.449
20366WAT      O61339   2.193   7.187   7.669
20366WAT     H161340   2.260   7.234   7.611
20366WAT     H261341   2.181   7.093   7.637
20367WAT      O61342   7.275   1.361   4.362
20367WAT     H161343   7.267   1.263   4.378
20367WAT     H261344   7.189   1.406   4.387
20368WAT      O61345   8.068   8.388   5.138
20368WAT     H161346   8.159   8.381   5.180
20368WAT     H261347   8.023   8.299   5.144
20369WAT      O61348   6.452   0.794   0.579
20369WAT     H161349   6.454   0.759   0.485
20369WAT     H261350   6.362   0.831   0.599
20370WAT      O61351   3.564   6.223   8.363
20370WAT     H161352   3.660   6.212   8.389
20370WAT     H261353   3.511   6.250   8.443
20371WAT      O61354   6.801   5.281   8.475
20371WAT     H161355   6.863   5.274   8.553
20371WAT     H261356   6.842   5.338   8.404
20372WAT      O61357   1.606   1.532   6.736
20372WAT     H161358   1.692   1.533   6.788
20372WAT     H261359   1.603   1.613   6.677
20373WAT      O61360   3.122   7.866   5.450
20373WAT     H161361   3.062   7.946   5.451
20373WAT     H261362   3.214   7.893   5.477
20374WAT      O61363   8.515   5.289   4.063
20374WAT     H161364   8.533   5.386   4.043
20374WAT     H261365   8.483   5.281   4.158
20375WAT      O61366   9.154   6.381   7.319
20375WAT     H161367   9.072   6.399   7.265
20375WAT     H261368   9.190   6.290   7.296
20376WAT      O61369   1.118   3.821   4.604
20376WAT     H161370   1.139   3.775   4.517
20376WAT     H261371   1.048   3.891   4.589
20377WAT      O61372   8.821   0.880   2.955
20377WAT     H161373   8.820   0.783   2.979
20377WAT     H261374   8.887   0.896   2.881
20378WAT      O61375   4.378   3.210   9.574
20378WAT     H161376   4.282   3.239   9.564
20378WAT     H261377   4.389   3.117   9.540
20379WAT      O61378   6.017   0.866   7.271
20379WAT     H161379   6.085   0.793   7.282
20379WAT     H261380   5.957   0.845   7.194
20380WAT      O61381   7.417   9.248   7.169
20380WAT     H161382   7.415   9.347   7.154
20380WAT     H261383   7.512   9.217   7.169
20381WAT      O61384   0.258   2.904   7.466
20381WAT     H161385   0.270   2.827   7.529
20381WAT     H261386   0.294   2.987   7.509
20382WAT      O61387   4.304   5.944   7.851
20382WAT     H161388   4.400   5.919   7.869
20382WAT     H261389   4.275   5.905   7.764
20383WAT      O61390   6.155   8.121   9.225
20383WAT     H161391   6.172   8.213   9.188
20383WAT     H261392   6.126   8.060   9.151
20384WAT      O61393   3.151   4.905   4.332
20384WAT     H161394   3.111   4.873   4.418
20384WAT     H261395   3.228   4.966   4.352
20385WAT      O61396   5.069   4.544   4.264
20385WAT     H161397   5.080   4.447   4.286
20385WAT     H261398   5.149   4.594   4.297
20386WAT      O61399   4.523   6.131   8.739
20386WAT     H161400   4.575   6.050   8.767
20386WAT     H261401   4.542   6.206   8.803
20387WAT      O61402   0.418   3.377   4.024
20387WAT     H161403   0.319   3.384   4.027
20387WAT     H261404   0.444   3.280   4.023
20388WAT      O61405   6.299   9.455   6.334
20388WAT     H161406   6.396   9.434   6.349
20388WAT     H261407   6.277   9.446   6.237
20389WAT      O61408   9.262   8.076   3.922
20389WAT     H161409   9.241   8.148   3.855
20389WAT     H261410   9.354   8.041   3.905
20390WAT      O61411   2.230   7.425   7.282
20390WAT     H161412   2.327   7.442   7.301
20390WAT     H261413   2.175   7.468   7.354
20391WAT      O61414   9.653   6.962   8.396
20391WAT     H161415   9.689   6.874   8.427
20391WAT     H261416   9.657   7.028   8.471
20392WAT      O61417   7.566   4.353   8.446
20392WAT     H161418   7.658   4.314   8.453
20392WAT     H261419   7.567   4.445   8.486
20393WAT      O61420   4.255   3.711   5.986
20393WAT     H161421   4.348   3.674   5.989
20393WAT     H261422   4.192   3.640   5.956
20394WAT      O61423   1.887   1.639   6.712
20394WAT     H161424   1.907   1.541   6.707
20394WAT     H261425   1.950   1.689   6.653
20395WAT      O61426   5.714   3.915   8.693
20395WAT     H161427   5.689   3.890   8.786
20395WAT     H261428   5.792   3.977   8.694
20396WAT      O61429   1.034   7.191   9.548
20396WAT     H161430   1.032   7.245   9.632
20396WAT     H261431   1.049   7.251   9.470
20397WAT      O61432   6.185   6.558   4.344
20397WAT     H161433   6.157   6.508   4.426
20397WAT     H261434   6.246   6.501   4.289
20398WAT      O61435   6.282   0.712   1.415
20398WAT     H161436   6.246   0.794   1.371
20398WAT     H261437   6.361   0.679   1.364
20399WAT      O61438   1.376   3.494   2.458
20399WAT     H161439   1.292   3.545   2.478
20399WAT     H261440   1.395   3.499   2.360
20400WAT      O61441   1.794   3.789   6.048
20400WAT     H161442   1.876   3.831   6.088
20400WAT     H261443   1.822   3.728   5.973
20401WAT      O61444   8.571   4.939   1.328
20401WAT     H161445   8.590   4.890   1.243
20401WAT     H261446   8.544   4.873   1.398
20402WAT      O61447   4.783   9.220   1.508
20402WAT     H161448   4.714   9.288   1.529
20402WAT     H261449   4.781   9.200   1.410
20403WAT      O61450   5.563   1.887   7.804
20403WAT     H161451   5.526   1.943   7.878
20403WAT     H261452   5.662   1.876   7.816
20404WAT      O61453   6.419   1.198   7.482
20404WAT     H161454   6.492   1.197   7.413
20404WAT     H261455   6.457   1.221   7.571
20405WAT      O61456   1.839   6.562   4.731
20405WAT     H161457   1.902   6.485   4.742
20405WAT     H261458   1.847   6.622   4.810
20406WAT      O61459   8.298   7.936   2.574
20406WAT     H161460   8.267   8.003   2.641
20406WAT     H261461   8.391   7.907   2.595
20407WAT      O61462   3.669   1.839   3.016
20407WAT     H161463   3.574   1.808   3.016
20407WAT     H261464   3.690   1.881   2.927
20408WAT      O61465   8.233   0.265   1.977
20408WAT     H161466   8.325   0.295   2.002
20408WAT     H261467   8.234   0.227   1.885
20409WAT      O61468   6.600   2.314   7.090
20409WAT     H161469   6.510   2.348   7.116
20409WAT     H261470   6.592   2.223   7.049
20410WAT      O61471   1.212   6.461   5.416
20410WAT     H161472   1.180   6.550   5.384
20410WAT     H261473   1.312   6.459   5.416
20411WAT      O61474   7.660   2.877   7.430
20411WAT     H161475   7.629   2.852   7.338
20411WAT     H261476   7.610   2.958   7.461
20412WAT      O61477   1.454   7.865   5.104
20412WAT     H161478   1.538   7.814   5.087
20412WAT     H261479   1.467   7.961   5.080
20413WAT      O61480   4.367   8.065   4.934
20413WAT     H161481   4.335   8.143   4.989
20413WAT     H261482   4.458   8.038   4.964
20414WAT      O61483   9.097   5.698   9.705
20414WAT     H161484   9.010   5.744   9.721
20414WAT     H261485   9.102   5.668   9.610
20415WAT      O61486   2.202   0.072   0.245
20415WAT     H161487   2.236  -0.005   0.298
20415WAT     H261488   2.175   0.040   0.154
20416WAT      O61489   4.750   5.563   9.890
20416WAT     H161490   4.662   5.533   9.927
20416WAT     H261491   4.737   5.597   9.797
20417WAT      O61492   9.132   2.574   2.931
20417WAT     H161493   9.043   2.535   2.955
20417WAT     H261494   9.117   2.661   2.883
20418WAT      O61495   1.733   3.808   3.392
20418WAT     H161496   1.650   3.865   3.389
20418WAT     H261497   1.809   3.859   3.353
20419WAT      O61498   6.484   8.359   1.552
20419WAT     H161499   6.429   8.276   1.538
20419WAT     H261500   6.524   8.358   1.643
20420WAT      O61501   7.845   8.727   2.673
20420WAT     H161502   7.858   8.825   2.685
20420WAT     H261503   7.934   8.681   2.683
20421WAT      O61504   8.687   3.611   0.684
20421WAT     H161505   8.613   3.633   0.620
20421WAT     H261506   8.737   3.531   0.651
20422WAT      O61507   8.227   0.859   5.910
20422WAT     H161508   8.248   0.798   5.834
20422WAT     H261509   8.132   0.890   5.903
20423WAT      O61510   6.829   5.390   8.235
20423WAT     H161511   6.772   5.324   8.186
20423WAT     H261512   6.824   5.478   8.189
20424WAT      O61513   8.664   0.140   1.811
20424WAT     H161514   8.590   0.161   1.748
20424WAT     H261515   8.733   0.213   1.808
20425WAT      O61516   5.739   3.114   8.004
20425WAT     H161517   5.830   3.099   8.042
20425WAT     H261518   5.722   3.048   7.930
20426WAT      O61519   1.052   1.224   7.069
20426WAT     H161520   1.080   1.315   7.040
20426WAT     H261521   0.969   1.198   7.021
20427WAT      O61522   6.890   8.476   6.164
20427WAT     H161523   6.852   8.472   6.257
20427WAT     H261524   6.961   8.407   6.155
20428WAT      O61525   6.888   2.695   7.478
20428WAT     H161526   6.804   2.658   7.517
20428WAT     H261527   6.961   2.691   7.546
20429WAT      O61528   1.029   7.465   4.202
20429WAT     H161529   1.001   7.550   4.158
20429WAT     H261530   0.973   7.390   4.168
20430WAT      O61531   8.641   8.463   5.495
20430WAT     H161532   8.737   8.451   5.519
20430WAT     H261533   8.623   8.558   5.473
20431WAT      O61534   2.771   1.924   7.403
20431WAT     H161535   2.813   2.002   7.450
20431WAT     H261536   2.836   1.848   7.402
20432WAT      O61537   4.702   6.891   8.378
20432WAT     H161538   4.678   6.988   8.377
20432WAT     H261539   4.647   6.844   8.448
20433WAT      O61540   5.158   4.984   4.810
20433WAT     H161541   5.237   5.035   4.776
20433WAT     H261542   5.182   4.887   4.816
20434WAT      O61543   6.474   3.545   8.413
20434WAT     H161544   6.440   3.635   8.440
20434WAT     H261545   6.455   3.530   8.316
20435WAT      O61546   2.436   2.306   3.274
20435WAT     H161547   2.519   2.356   3.300
20435WAT     H261548   2.356   2.356   3.304
20436WAT      O61549   4.100   3.460   2.866
20436WAT     H161550   4.049   3.377   2.847
20436WAT     H261551   4.103   3.517   2.784
20437WAT      O61552   9.085   8.685   6.310
20437WAT     H161553   9.069   8.689   6.409
20437WAT     H261554   9.102   8.777   6.275
20438WAT      O61555   9.196   1.478   7.933
20438WAT     H161556   9.138   1.455   7.855
20438WAT     H261557   9.159   1.437   8.016
20439WAT      O61558   7.728   7.361   4.176
20439WAT     H161559   7.776   7.311   4.247
20439WAT     H261560   7.632   7.372   4.202
20440WAT      O61561   3.353   3.556   7.024
20440WAT     H161562   3.421   3.607   7.077
20440WAT     H261563   3.388   3.464   7.005
20441WAT      O61564   0.081   1.821   8.837
20441WAT     H161565   0.023   1.886   8.788
20441WAT     H261566   0.173   1.859   8.847
20442WAT      O61567   1.931   2.712   3.204
20442WAT     H161568   2.030   2.703   3.198
20442WAT     H261569   1.902   2.699   3.299
20443WAT      O61570   2.872   1.971   1.253
20443WAT     H161571   2.793   2.021   1.217
20443WAT     H261572   2.886   1.887   1.200
20444WAT      O61573   4.226   4.224   2.591
20444WAT     H161574   4.215   4.151   2.524
20444WAT     H261575   4.297   4.199   2.657
20445WAT      O61576   6.975   8.454   2.124
20445WAT     H161577   7.005   8.377   2.069
20445WAT     H261578   7.050   8.485   2.182
20446WAT      O61579   1.773   7.706   5.537
20446WAT     H161580   1.743   7.613   5.513
20446WAT     H261581   1.759   7.720   5.635
20447WAT      O61582   0.449   4.330   7.005
20447WAT     H161583   0.459   4.426   6.979
20447WAT     H261584   0.355   4.301   6.990
20448WAT      O61585   1.955   2.556   9.143
20448WAT     H161586   1.885   2.554   9.215
20448WAT     H261587   2.045   2.540   9.185
20449WAT      O61588   0.882   6.873   6.199
20449WAT     H161589   0.863   6.888   6.102
20449WAT     H261590   0.796   6.858   6.248
20450WAT      O61591   3.151   2.793   8.774
20450WAT     H161592   3.176   2.858   8.702
20450WAT     H261593   3.192   2.821   8.860
20451WAT      O61594   3.439   9.628   3.411
20451WAT     H161595   3.499   9.587   3.480
20451WAT     H261596   3.345   9.628   3.445
20452WAT      O61597   5.010   4.888   0.570
20452WAT     H161598   5.073   4.816   0.597
20452WAT     H261599   4.923   4.876   0.617
20453WAT      O61600   9.807   2.877   6.346
20453WAT     H161601   9.803   2.826   6.431
20453WAT     H261602   9.879   2.840   6.288
20454WAT      O61603   4.358   9.780   6.624
20454WAT     H161604   4.398   9.871   6.619
20454WAT     H261605   4.259   9.786   6.618
20455WAT      O61606   3.044   3.005   1.684
20455WAT     H161607   3.112   2.956   1.630
20455WAT     H261608   2.974   3.042   1.623
20456WAT      O61609   8.682   8.582   8.812
20456WAT     H161610   8.642   8.633   8.736
20456WAT     H261611   8.617   8.513   8.844
20457WAT      O61612   5.599   9.762   3.282
20457WAT     H161613   5.625   9.815   3.362
20457WAT     H261614   5.623   9.666   3.295
20458WAT      O61615   8.010   4.541   0.360
20458WAT     H161616   7.954   4.606   0.309
20458WAT     H261617   8.104   4.543   0.324
20459WAT      O61618   2.200   4.707   6.509
20459WAT     H161619   2.175   4.738   6.418
20459WAT     H261620   2.147   4.626   6.533
20460WAT      O61621   4.794   3.973   5.789
20460WAT     H161622   4.826   4.003   5.879
20460WAT     H261623   4.789   4.052   5.728
20461WAT      O61624   6.753   2.172   9.210
20461WAT     H161625   6.695   2.143   9.286
20461WAT     H261626   6.821   2.237   9.243
20462WAT      O61627   7.637   3.945   4.847
20462WAT     H161628   7.561   3.917   4.788
20462WAT     H261629   7.682   4.024   4.807
20463WAT      O61630   0.397   1.609   6.013
20463WAT     H161631   0.478   1.552   6.022
20463WAT     H261632   0.323   1.574   6.071
20464WAT      O61633   8.018   4.385   0.574
20464WAT     H161634   8.100   4.331   0.556
20464WAT     H261635   8.001   4.446   0.497
20465WAT      O61636   0.539   9.256   6.534
20465WAT     H161637   0.530   9.262   6.634
20465WAT     H261638   0.568   9.164   6.509
20466WAT      O61639   5.042   0.390   8.479
20466WAT     H161640   5.046   0.485   8.448
20466WAT     H261641   4.980   0.338   8.418
20467WAT      O61642   0.031   3.365   6.490
20467WAT     H161643   0.036   3.282   6.546
20467WAT     H261644   0.094   3.357   6.413
20468WAT      O61645   8.655   0.691   4.673
20468WAT     H161646   8.589   0.670   4.745
20468WAT     H261647   8.733   0.629   4.679
20469WAT      O61648   1.319   3.648   7.233
20469WAT     H161649   1.318   3.722   7.167
20469WAT     H261650   1.412   3.611   7.240
20470WAT      O61651   6.334   9.097   6.157
20470WAT     H161652   6.322   9.069   6.062
20470WAT     H261653   6.330   9.016   6.216
20471WAT      O61654   2.752   5.053   7.681
20471WAT     H161655   2.733   4.980   7.615
20471WAT     H261656   2.688   5.046   7.758
20472WAT      O61657   0.353   0.426   1.963
20472WAT     H161658   0.383   0.521   1.953
20472WAT     H261659   0.384   0.372   1.885
20473WAT      O61660   9.650   0.753   1.841
20473WAT     H161661   9.570   0.812   1.835
20473WAT     H261662   9.623   0.663   1.876
20474WAT      O61663   9.393   4.215   6.038
20474WAT     H161664   9.477   4.268   6.027
20474WAT     H261665   9.415   4.122   6.067
20475WAT      O61666   3.932   6.840   4.462
20475WAT     H161667   3.908   6.785   4.382
20475WAT     H261668   3.862   6.829   4.532
20476WAT      O61669   7.525   3.601   4.967
20476WAT     H161670   7.521   3.681   5.027
20476WAT     H261671   7.604   3.610   4.906
20477WAT      O61672   9.772   5.883   0.925
20477WAT     H161673   9.805   5.961   0.979
20477WAT     H261674   9.676   5.865   0.948
20478WAT      O61675   0.453   1.170   5.651
20478WAT     H161676   0.365   1.195   5.691
20478WAT     H261677   0.499   1.104   5.711
20479WAT      O61678   5.905   8.106   2.022
20479WAT     H161679   5.926   8.081   2.117
20479WAT     H261680   5.904   8.023   1.965
20480WAT      O61681   0.463   4.127   0.963
20480WAT     H161682   0.501   4.152   0.874
20480WAT     H261683   0.371   4.090   0.950
20481WAT      O61684   8.448   5.347   5.124
20481WAT     H161685   8.516   5.410   5.086
20481WAT     H261686   8.495   5.279   5.180
20482WAT      O61687   4.234   2.910   3.569
20482WAT     H161688   4.285   2.959   3.640
20482WAT     H261689   4.297   2.885   3.495
20483WAT      O61690   2.641   7.207   1.455
20483WAT     H161691   2.646   7.190   1.357
20483WAT     H261692   2.721   7.260   1.484
20484WAT      O61693   2.772   5.926   6.209
20484WAT     H161694   2.867   5.953   6.217
20484WAT     H261695   2.748   5.862   6.282
20485WAT      O61696   7.789   2.016   1.971
20485WAT     H161697   7.730   2.068   2.033
20485WAT     H261698   7.881   2.010   2.011
20486WAT      O61699   7.059   6.976   6.660
20486WAT     H161700   7.123   6.923   6.716
20486WAT     H261701   7.096   6.989   6.569
20487WAT      O61702   6.225   5.783   9.879
20487WAT     H161703   6.126   5.782   9.865
20487WAT     H261704   6.260   5.689   9.875
20488WAT      O61705   9.565   5.827   7.401
20488WAT     H161706   9.600   5.901   7.459
20488WAT     H261707   9.518   5.759   7.459
20489WAT      O61708   5.595   5.807   5.029
20489WAT     H161709   5.567   5.901   5.046
20489WAT     H261710   5.638   5.769   5.111
20490WAT      O61711   2.409   9.671   7.904
20490WAT     H161712   2.469   9.595   7.927
20490WAT     H261713   2.343   9.641   7.835
20491WAT      O61714   4.738   9.576   8.430
20491WAT     H161715   4.638   9.570   8.421
20491WAT     H261716   4.779   9.580   8.339
20492WAT      O61717   6.714   3.547   5.876
20492WAT     H161718   6.654   3.472   5.849
20492WAT     H261719   6.809   3.515   5.879
20493WAT      O61720   2.471   9.608   0.634
20493WAT     H161721   2.378   9.644   0.627
20493WAT     H261722   2.536   9.685   0.637
20494WAT      O61723   9.166   2.678   1.932
20494WAT     H161724   9.127   2.592   1.899
20494WAT     H261725   9.112   2.755   1.899
20495WAT      O61726   0.976   5.556   5.485
20495WAT     H161727   1.010   5.603   5.403
20495WAT     H261728   0.989   5.615   5.565
20496WAT      O61729   3.171   4.287   6.381
20496WAT     H161730   3.191   4.260   6.287
20496WAT     H261731   3.236   4.358   6.409
20497WAT      O61732   7.804   7.314   3.164
20497WAT     H161733   7.751   7.373   3.225
20497WAT     H261734   7.887   7.284   3.210
20498WAT      O61735   8.957   0.096   3.937
20498WAT     H161736   8.957   0.004   3.977
20498WAT     H261737   8.863   0.131   3.934
20499WAT      O61738   4.757   9.749   1.646
20499WAT     H161739   4.682   9.773   1.585
20499WAT     H261740   4.841   9.792   1.613
20500WAT      O61741   1.315   8.769   7.686
20500WAT     H161742   1.252   8.814   7.749
20500WAT     H261743   1.363   8.695   7.734
20501WAT      O61744   0.090   6.071   6.916
20501WAT     H161745   0.163   6.117   6.966
20501WAT     H261746   0.013   6.052   6.978
20502WAT      O61747   6.531   4.440   4.519
20502WAT     H161748   6.474   4.512   4.481
20502WAT     H261749   6.477   4.384   4.582
20503WAT      O61750   5.813   3.478   9.703
20503WAT     H161751   5.727   3.432   9.724
20503WAT     H261752   5.802   3.533   9.620
20504WAT      O61753   4.990   7.710   8.248
20504WAT     H161754   4.925   7.638   8.270
20504WAT     H261755   4.968   7.749   8.159
20505WAT      O61756   6.332   2.543   6.832
20505WAT     H161757   6.294   2.561   6.741
20505WAT     H261758   6.326   2.445   6.851
20506WAT      O61759   5.622   2.718   4.268
20506WAT     H161760   5.643   2.664   4.350
20506WAT     H261761   5.681   2.689   4.193
20507WAT      O61762   3.286   9.188   1.013
20507WAT     H161763   3.235   9.272   0.998
20507WAT     H261764   3.345   9.170   0.934
20508WAT      O61765   2.463   9.623   3.237
20508WAT     H161766   2.505   9.554   3.178
20508WAT     H261767   2.388   9.581   3.289
20509WAT      O61768   6.967   9.535   2.365
20509WAT     H161769   6.919   9.592   2.431
20509WAT     H261770   6.960   9.576   2.274
20510WAT      O61771   0.199   6.828   3.740
20510WAT     H161772   0.156   6.738   3.730
20510WAT     H261773   0.208   6.850   3.837
20511WAT      O61774   7.422   7.322   2.864
20511WAT     H161775   7.349   7.273   2.913
20511WAT     H261776   7.511   7.289   2.897
20512WAT      O61777   7.126   6.146   5.345
20512WAT     H161778   7.074   6.065   5.319
20512WAT     H261779   7.064   6.223   5.361
20513WAT      O61780   1.141   1.574   1.418
20513WAT     H161781   1.177   1.499   1.474
20513WAT     H261782   1.163   1.558   1.322
20514WAT      O61783   9.428   7.090   6.148
20514WAT     H161784   9.437   7.036   6.065
20514WAT     H261785   9.520   7.109   6.184
20515WAT      O61786   6.853   5.734   4.230
20515WAT     H161787   6.775   5.789   4.200
20515WAT     H261788   6.876   5.668   4.158
20516WAT      O61789   3.996   5.746   0.306
20516WAT     H161790   4.046   5.823   0.268
20516WAT     H261791   3.996   5.670   0.240
20517WAT      O61792   9.246   9.085   8.464
20517WAT     H161793   9.325   9.136   8.500
20517WAT     H261794   9.251   9.084   8.364
20518WAT      O61795   6.561   6.493   2.246
20518WAT     H161796   6.490   6.423   2.244
20518WAT     H261797   6.556   6.544   2.332
20519WAT      O61798   4.648   4.485   7.794
20519WAT     H161799   4.571   4.538   7.831
20519WAT     H261800   4.633   4.388   7.812
20520WAT      O61801   3.940   7.316   6.053
20520WAT     H161802   3.877   7.363   5.992
20520WAT     H261803   3.909   7.222   6.068
20521WAT      O61804   7.659   5.763   1.377
20521WAT     H161805   7.709   5.705   1.313
20521WAT     H261806   7.631   5.848   1.330
20522WAT      O61807   5.524   9.099   3.698
20522WAT     H161808   5.564   9.052   3.776
20522WAT     H261809   5.512   9.035   3.623
20523WAT      O61810   6.573   2.679   2.523
20523WAT     H161811   6.577   2.655   2.620
20523WAT     H261812   6.594   2.776   2.511
20524WAT      O61813   4.755   4.396   1.050
20524WAT     H161814   4.756   4.323   1.118
20524WAT     H261815   4.847   4.407   1.011
20525WAT      O61816   3.130   1.993   3.057
20525WAT     H161817   3.137   1.906   3.106
20525WAT     H261818   3.217   2.042   3.064
20526WAT      O61819   3.055   3.539   4.439
20526WAT     H161820   2.983   3.486   4.485
20526WAT     H261821   3.037   3.541   4.341
20527WAT      O61822   6.111   4.971   4.841
20527WAT     H161823   6.125   4.989   4.743
20527WAT     H261824   6.017   4.940   4.856
20528WAT      O61825   8.358   4.490   9.399
20528WAT     H161826   8.416   4.518   9.322
20528WAT     H261827   8.286   4.559   9.412
20529WAT      O61828   4.227   0.893   2.060
20529WAT     H161829   4.307   0.833   2.056
20529WAT     H261830   4.151   0.844   2.102
20530WAT      O61831   7.261   6.994   3.823
20530WAT     H161832   7.296   7.083   3.794
20530WAT     H261833   7.165   7.003   3.851
20531WAT      O61834   6.526   9.319   9.347
20531WAT     H161835   6.448   9.304   9.408
20531WAT     H261836   6.608   9.336   9.402
20532WAT      O61837   7.671   8.148   2.252
20532WAT     H161838   7.651   8.140   2.155
20532WAT     H261839   7.586   8.143   2.305
20533WAT      O61840   7.523   8.418   6.236
20533WAT     H161841   7.521   8.437   6.334
20533WAT     H261842   7.557   8.499   6.188
20534WAT      O61843   1.881   3.993   3.246
20534WAT     H161844   1.905   4.000   3.149
20534WAT     H261845   1.786   4.021   3.259
20535WAT      O61846   8.995   9.478   1.491
20535WAT     H161847   9.028   9.397   1.540
20535WAT     H261848   9.042   9.486   1.403
20536WAT      O61849   9.704   3.982   1.581
20536WAT     H161850   9.727   4.010   1.488
20536WAT     H261851   9.707   3.882   1.588
20537WAT      O61852   8.403   8.002   0.920
20537WAT     H161853   8.369   7.908   0.923
20537WAT     H261854   8.343   8.058   0.863
20538WAT      O61855   1.470   8.659   8.142
20538WAT     H161856   1.428   8.741   8.180
20538WAT     H261857   1.548   8.684   8.085
20539WAT      O61858   6.072   7.803   2.349
20539WAT     H161859   6.036   7.896   2.338
20539WAT     H261860   6.171   7.806   2.363
20540WAT      O61861   7.732   3.276   2.257
20540WAT     H161862   7.641   3.314   2.238
20540WAT     H261863   7.729   3.176   2.247
20541WAT      O61864   7.926   6.399   6.790
20541WAT     H161865   7.871   6.354   6.720
20541WAT     H261866   8.023   6.393   6.765
20542WAT      O61867   7.180   7.601   2.865
20542WAT     H161868   7.116   7.673   2.837
20542WAT     H261869   7.128   7.522   2.899
20543WAT      O61870   4.635   8.196   9.553
20543WAT     H161871   4.553   8.237   9.591
20543WAT     H261872   4.710   8.263   9.555
20544WAT      O61873   3.517   5.334   3.351
20544WAT     H161874   3.554   5.352   3.260
20544WAT     H261875   3.458   5.253   3.348
20545WAT      O61876   7.626   7.876   1.038
20545WAT     H161877   7.622   7.777   1.025
20545WAT     H261878   7.646   7.897   1.134
20546WAT      O61879   8.622   2.343   2.981
20546WAT     H161880   8.566   2.423   3.001
20546WAT     H261881   8.599   2.306   2.891
20547WAT      O61882   9.072   4.416   1.258
20547WAT     H161883   8.982   4.461   1.255
20547WAT     H261884   9.063   4.326   1.301
20548WAT      O61885   7.133   2.706   5.656
20548WAT     H161886   7.168   2.706   5.563
20548WAT     H261887   7.175   2.780   5.708
20549WAT      O61888   4.684   8.633   3.162
20549WAT     H161889   4.758   8.566   3.175
20549WAT     H261890   4.617   8.622   3.236
20550WAT      O61891   7.232   4.251   8.693
20550WAT     H161892   7.195   4.201   8.615
20550WAT     H261893   7.182   4.336   8.706
20551WAT      O61894   8.152   0.805   4.227
20551WAT     H161895   8.225   0.856   4.272
20551WAT     H261896   8.083   0.780   4.294
20552WAT      O61897   8.747   8.856   5.650
20552WAT     H161898   8.709   8.943   5.682
20552WAT     H261899   8.756   8.793   5.726
20553WAT      O61900   2.987   1.504   4.814
20553WAT     H161901   3.070   1.556   4.795
20553WAT     H261902   2.996   1.412   4.775
20554WAT      O61903   2.624   5.990   3.758
20554WAT     H161904   2.536   5.994   3.805
20554WAT     H261905   2.630   5.907   3.704
20555WAT      O61906   9.008   5.236   8.219
20555WAT     H161907   9.062   5.192   8.290
20555WAT     H261908   9.053   5.224   8.130
20556WAT      O61909   4.398   5.183   2.058
20556WAT     H161910   4.468   5.113   2.073
20556WAT     H261911   4.371   5.222   2.146
20557WAT      O61912   0.340   9.071   3.040
20557WAT     H161913   0.321   9.105   3.132
20557WAT     H261914   0.270   9.006   3.012
20558WAT      O61915   0.518   6.198   3.973
20558WAT     H161916   0.605   6.165   3.936
20558WAT     H261917   0.456   6.121   3.987
20559WAT      O61918   0.439   5.346   0.920
20559WAT     H161919   0.452   5.274   0.852
20559WAT     H261920   0.515   5.411   0.916
20560WAT      O61921   9.074   1.051   3.673
20560WAT     H161922   9.147   1.018   3.614
20560WAT     H261923   9.052   0.981   3.741
20561WAT      O61924   4.294   3.165   5.160
20561WAT     H161925   4.312   3.240   5.097
20561WAT     H261926   4.222   3.190   5.224
20562WAT      O61927   1.733   3.303   7.145
20562WAT     H161928   1.797   3.343   7.078
20562WAT     H261929   1.680   3.230   7.101
20563WAT      O61930   0.923   8.192   8.892
20563WAT     H161931   0.906   8.095   8.876
20563WAT     H261932   0.848   8.245   8.854
20564WAT      O61933   3.050   3.504   3.923
20564WAT     H161934   2.994   3.430   3.886
20564WAT     H261935   3.143   3.472   3.937
20565WAT      O61936   1.850   6.338   4.384
20565WAT     H161937   1.845   6.284   4.300
20565WAT     H261938   1.818   6.431   4.366
20566WAT      O61939   0.109   6.335   4.923
20566WAT     H161940   0.139   6.243   4.896
20566WAT     H261941   0.171   6.403   4.884
20567WAT      O61942   4.452   8.464   6.849
20567WAT     H161943   4.507   8.381   6.856
20567WAT     H261944   4.452   8.512   6.937
20568WAT      O61945   6.219   8.580   7.242
20568WAT     H161946   6.183   8.498   7.285
20568WAT     H261947   6.237   8.562   7.145
20569WAT      O61948   8.932   2.338   9.722
20569WAT     H161949   8.868   2.328   9.798
20569WAT     H261950   8.917   2.427   9.678
20570WAT      O61951   6.840   2.109   4.730
20570WAT     H161952   6.852   2.010   4.730
20570WAT     H261953   6.918   2.152   4.685
20571WAT      O61954   9.152   1.920   1.635
20571WAT     H161955   9.078   1.959   1.580
20571WAT     H261956   9.129   1.929   1.732
20572WAT      O61957   2.024   8.509   7.072
20572WAT     H161958   1.935   8.477   7.040
20572WAT     H261959   2.046   8.467   7.160
20573WAT      O61960   9.862   4.172   8.177
20573WAT     H161961   9.908   4.247   8.224
20573WAT     H261962   9.765   4.172   8.201
20574WAT      O61963   2.144   4.256   1.943
20574WAT     H161964   2.103   4.339   1.904
20574WAT     H261965   2.096   4.176   1.908
20575WAT      O61966   9.408   8.178   0.101
20575WAT     H161967   9.457   8.185   0.014
20575WAT     H261968   9.438   8.251   0.162
20576WAT      O61969   9.686   1.833   1.246
20576WAT     H161970   9.601   1.783   1.262
20576WAT     H261971   9.757   1.769   1.217
20577WAT      O61972   1.781   7.588   4.643
20577WAT     H161973   1.726   7.579   4.726
20577WAT     H261974   1.763   7.510   4.584
20578WAT      O61975   6.956   9.409   8.309
20578WAT     H161976   7.008   9.328   8.338
20578WAT     H261977   6.927   9.460   8.389
20579WAT      O61978   5.604   0.173   2.849
20579WAT     H161979   5.661   0.123   2.914
20579WAT     H261980   5.663   0.223   2.785
20580WAT      O61981   2.115   4.112   4.572
20580WAT     H161982   2.209   4.096   4.542
20580WAT     H261983   2.085   4.035   4.628
20581WAT      O61984   1.511   4.053   7.105
20581WAT     H161985   1.449   4.106   7.164
20581WAT     H261986   1.462   3.976   7.066
20582WAT      O61987   9.160   0.194   6.980
20582WAT     H161988   9.127   0.250   6.904
20582WAT     H261989   9.090   0.127   7.005
20583WAT      O61990   5.792   6.172   6.921
20583WAT     H161991   5.820   6.095   6.977
20583WAT     H261992   5.870   6.207   6.870
20584WAT      O61993   6.894   3.581   9.006
20584WAT     H161994   6.899   3.643   9.084
20584WAT     H261995   6.800   3.549   8.994
20585WAT      O61996   0.246   0.314   8.360
20585WAT     H161997   0.282   0.399   8.323
20585WAT     H261998   0.317   0.243   8.356
20586WAT      O61999   3.235   8.424   0.165
20586WAT     H162000   3.277   8.398   0.078
20586WAT     H262001   3.274   8.369   0.239
20587WAT      O62002   9.774   5.959   7.050
20587WAT     H162003   9.795   6.044   7.099
20587WAT     H262004   9.770   5.884   7.115
20588WAT      O62005   7.315   5.761   5.804
20588WAT     H162006   7.317   5.745   5.903
20588WAT     H262007   7.240   5.709   5.763
20589WAT      O62008   6.805   4.493   4.946
20589WAT     H162009   6.774   4.561   4.880
20589WAT     H262010   6.827   4.538   5.032
20590WAT      O62011   9.682   8.545   3.091
20590WAT     H162012   9.666   8.623   3.150
20590WAT     H262013   9.595   8.511   3.056
20591WAT      O62014   8.855   9.696   7.608
20591WAT     H162015   8.886   9.602   7.592
20591WAT     H262016   8.906   9.759   7.549
20592WAT      O62017   8.382   7.187   4.338
20592WAT     H162018   8.395   7.091   4.362
20592WAT     H262019   8.437   7.244   4.399
20593WAT      O62020   1.985   6.230   8.718
20593WAT     H162021   2.065   6.282   8.688
20593WAT     H262022   1.911   6.293   8.740
20594WAT      O62023   0.900   6.025   6.024
20594WAT     H162024   0.903   6.009   5.925
20594WAT     H262025   0.808   6.054   6.051
20595WAT      O62026   6.367   2.574   5.967
20595WAT     H162027   6.449   2.573   5.910
20595WAT     H262028   6.348   2.482   6.000
20596WAT      O62029   8.635   3.221   6.212
20596WAT     H162030   8.654   3.132   6.254
20596WAT     H262031   8.613   3.287   6.284
20597WAT      O62032   4.356   0.647   7.135
20597WAT     H162033   4.393   0.740   7.138
20597WAT     H262034   4.414   0.586   7.190
20598WAT      O62035   5.926   2.663   5.444
20598WAT     H162036   5.867   2.703   5.374
20598WAT     H262037   5.970   2.580   5.408
20599WAT      O62038   7.842   5.211   3.682
20599WAT     H162039   7.826   5.117   3.651
20599WAT     H262040   7.911   5.210   3.755
20600WAT      O62041   6.039   8.824   9.298
20600WAT     H162042   6.001   8.871   9.378
20600WAT     H262043   5.975   8.754   9.266
20601WAT      O62044   2.269   2.048   0.882
20601WAT     H162045   2.174   2.078   0.868
20601WAT     H262046   2.331   2.116   0.843
20602WAT      O62047   3.495   2.780   3.196
20602WAT     H162048   3.465   2.864   3.240
20602WAT     H262049   3.415   2.729   3.164
20603WAT      O62050   7.145   4.385   0.102
20603WAT     H162051   7.123   4.288   0.088
20603WAT     H262052   7.066   4.432   0.139
20604WAT      O62053   3.017   1.787   6.278
20604WAT     H162054   2.919   1.768   6.268
20604WAT     H262055   3.040   1.794   6.376
20605WAT      O62056   2.820   8.185   0.435
20605WAT     H162057   2.877   8.107   0.411
20605WAT     H262058   2.799   8.238   0.353
20606WAT      O62059   6.823   8.408   6.412
20606WAT     H162060   6.816   8.445   6.504
20606WAT     H262061   6.868   8.319   6.415
20607WAT      O62062   3.572   8.441   4.910
20607WAT     H162063   3.599   8.463   5.004
20607WAT     H262064   3.496   8.499   4.882
20608WAT      O62065   0.585   8.216   2.192
20608WAT     H162066   0.608   8.123   2.220
20608WAT     H262067   0.522   8.257   2.258
20609WAT      O62068   3.378   4.474   3.900
20609WAT     H162069   3.342   4.529   3.824
20609WAT     H262070   3.363   4.524   3.986
20610WAT      O62071   7.929   1.389   0.985
20610WAT     H162072   7.885   1.373   1.073
20610WAT     H262073   7.971   1.480   0.985
20611WAT      O62074   0.066   8.832   2.407
20611WAT     H162075  -0.004   8.853   2.475
20611WAT     H262076   0.135   8.905   2.406
20612WAT      O62077   0.895   3.495   0.240
20612WAT     H162078   0.947   3.581   0.240
20612WAT     H262079   0.889   3.460   0.333
20613WAT      O62080   3.108   9.631   0.176
20613WAT     H162081   3.013   9.616   0.204
20613WAT     H262082   3.155   9.685   0.246
20614WAT      O62083   0.381   2.135   5.337
20614WAT     H162084   0.411   2.075   5.263
20614WAT     H262085   0.460   2.164   5.391
20615WAT      O62086   1.305   2.181   5.606
20615WAT     H162087   1.365   2.102   5.622
20615WAT     H262088   1.296   2.233   5.690
20616WAT      O62089   9.620   9.637   6.371
20616WAT     H162090   9.698   9.617   6.430
20616WAT     H262091   9.538   9.592   6.409
20617WAT      O62092   3.465   3.234   0.407
20617WAT     H162093   3.560   3.236   0.376
20617WAT     H262094   3.412   3.170   0.350
20618WAT      O62095   7.483   0.167   5.049
20618WAT     H162096   7.393   0.208   5.035
20618WAT     H262097   7.527   0.151   4.961
20619WAT      O62098   1.881   6.112   9.768
20619WAT     H162099   1.869   6.191   9.707
20619WAT     H262100   1.830   6.128   9.852
20620WAT      O62101   1.573   4.192   0.745
20620WAT     H162102   1.530   4.278   0.772
20620WAT     H262103   1.655   4.210   0.691
20621WAT      O62104   4.934   5.381   8.701
20621WAT     H162105   4.837   5.384   8.677
20621WAT     H262106   4.952   5.444   8.776
20622WAT      O62107   9.049   1.923   7.157
20622WAT     H162108   9.061   2.004   7.100
20622WAT     H262109   9.137   1.876   7.168
20623WAT      O62110   9.873   4.329   7.649
20623WAT     H162111   9.912   4.410   7.694
20623WAT     H262112   9.773   4.332   7.655
20624WAT      O62113   5.388   1.068   0.543
20624WAT     H162114   5.364   1.155   0.500
20624WAT     H262115   5.420   1.085   0.637
20625WAT      O62116   1.562   8.417   8.641
20625WAT     H162117   1.563   8.477   8.721
20625WAT     H262118   1.554   8.471   8.558
20626WAT      O62119   6.075   1.961   2.173
20626WAT     H162120   6.135   2.016   2.231
20626WAT     H262121   6.116   1.948   2.084
20627WAT      O62122   8.232   3.042   1.638
20627WAT     H162123   8.308   2.999   1.589
20627WAT     H262124   8.227   3.138   1.613
20628WAT      O62125   2.792   6.854   0.488
20628WAT     H162126   2.794   6.763   0.530
20628WAT     H262127   2.878   6.870   0.439
20629WAT      O62128   4.830   6.402   1.370
20629WAT     H162129   4.867   6.405   1.278
20629WAT     H262130   4.765   6.477   1.383
20630WAT      O62131   1.003   1.070   5.866
20630WAT     H162132   0.959   1.114   5.787
20630WAT     H262133   1.100   1.057   5.847
20631WAT      O62134   2.165   6.569   1.755
20631WAT     H162135   2.125   6.496   1.810
20631WAT     H262136   2.181   6.649   1.813
20632WAT      O62137   8.517   1.811   5.431
20632WAT     H162138   8.441   1.819   5.367
20632WAT     H262139   8.586   1.749   5.394
20633WAT      O62140   4.585   2.033   0.689
20633WAT     H162141   4.679   2.007   0.667
20633WAT     H262142   4.567   2.125   0.655
20634WAT      O62143   9.725   2.623   6.486
20634WAT     H162144   9.632   2.594   6.462
20634WAT     H262145   9.787   2.603   6.411
20635WAT      O62146   9.046   0.764   0.805
20635WAT     H162147   9.031   0.799   0.713
20635WAT     H262148   9.113   0.822   0.852
20636WAT      O62149   0.938   6.400   0.975
20636WAT     H162150   0.939   6.306   1.010
20636WAT     H262151   0.851   6.417   0.929
20637WAT      O62152   2.493   4.121   7.494
20637WAT     H162153   2.506   4.208   7.446
20637WAT     H262154   2.523   4.131   7.588
20638WAT      O62155   6.945   7.051   7.176
20638WAT     H162156   7.014   7.039   7.105
20638WAT     H262157   6.907   7.143   7.171
20639WAT      O62158   7.967   5.701   3.058
20639WAT     H162159   8.025   5.620   3.058
20639WAT     H262160   7.901   5.695   2.983
20640WAT      O62161   5.941   1.554   6.609
20640WAT     H162162   6.022   1.513   6.567
20640WAT     H262163   5.963   1.646   6.640
20641WAT      O62164   2.828   8.271   1.615
20641WAT     H162165   2.855   8.296   1.522
20641WAT     H262166   2.752   8.205   1.611
20642WAT      O62167   3.502   5.762   3.693
20642WAT     H162168   3.513   5.833   3.762
20642WAT     H262169   3.469   5.678   3.736
20643WAT      O62170   0.368   5.321   8.894
20643WAT     H162171   0.409   5.402   8.852
20643WAT     H262172   0.427   5.287   8.967
20644WAT      O62173   6.620   2.470   5.491
20644WAT     H162174   6.560   2.476   5.412
20644WAT     H262175   6.678   2.389   5.484
20645WAT      O62176   3.254   3.723   2.882
20645WAT     H162177   3.337   3.758   2.926
20645WAT     H262178   3.262   3.733   2.783
20646WAT      O62179   7.243   8.280   9.338
20646WAT     H162180   7.169   8.216   9.316
20646WAT     H262181   7.295   8.245   9.417
20647WAT      O62182   6.489   3.985   7.120
20647WAT     H162183   6.435   4.001   7.203
20647WAT     H262184   6.531   3.894   7.125
20648WAT      O62185   2.300   4.637   6.964
20648WAT     H162186   2.208   4.599   6.966
20648WAT     H262187   2.327   4.656   6.870
20649WAT      O62188   5.951   2.143   7.212
20649WAT     H162189   5.939   2.044   7.226
20649WAT     H262190   5.971   2.161   7.116
20650WAT      O62191   6.113   2.924   3.856
20650WAT     H162192   6.145   3.018   3.855
20650WAT     H262193   6.192   2.862   3.852
20651WAT      O62194   6.783   9.008   9.621
20651WAT     H162195   6.847   8.941   9.583
20651WAT     H262196   6.831   9.095   9.636
20652WAT      O62197   5.904   6.102   2.224
20652WAT     H162198   5.952   6.085   2.138
20652WAT     H262199   5.834   6.171   2.210
20653WAT      O62200   3.074   9.344   3.737
20653WAT     H162201   2.987   9.375   3.777
20653WAT     H262202   3.081   9.245   3.745
20654WAT      O62203   4.025   1.335   4.022
20654WAT     H162204   4.030   1.336   3.922
20654WAT     H262205   4.117   1.338   4.061
20655WAT      O62206   3.663   6.311   9.522
20655WAT     H162207   3.738   6.329   9.459
20655WAT     H262208   3.668   6.374   9.600
20656WAT      O62209   3.026   3.754   1.727
20656WAT     H162210   2.949   3.765   1.790
20656WAT     H262211   3.068   3.843   1.710
20657WAT      O62212   1.614   3.741   1.452
20657WAT     H162213   1.600   3.737   1.551
20657WAT     H262214   1.706   3.775   1.433
20658WAT      O62215   3.125   7.276   0.918
20658WAT     H162216   3.063   7.294   0.995
20658WAT     H262217   3.158   7.182   0.923
20659WAT      O62218   0.462   1.717   6.329
20659WAT     H162219   0.399   1.641   6.315
20659WAT     H262220   0.482   1.726   6.426
20660WAT      O62221   9.331   5.081   5.544
20660WAT     H162222   9.395   5.155   5.562
20660WAT     H262223   9.237   5.113   5.558
20661WAT      O62224   7.688   8.719   0.399
20661WAT     H162225   7.709   8.653   0.326
20661WAT     H262226   7.700   8.675   0.488
20662WAT      O62227   8.953   3.921   0.814
20662WAT     H162228   8.856   3.902   0.797
20662WAT     H262229   8.961   3.997   0.877
20663WAT      O62230   0.269   7.810   2.825
20663WAT     H162231   0.335   7.798   2.898
20663WAT     H262232   0.186   7.758   2.845
20664WAT      O62233   9.002   4.770   2.994
20664WAT     H162234   8.986   4.676   2.963
20664WAT     H262235   9.051   4.768   3.081
20665WAT      O62236   6.072   3.167   5.481
20665WAT     H162237   6.065   3.067   5.473
20665WAT     H262238   6.166   3.191   5.505
20666WAT      O62239   0.298   0.291   7.586
20666WAT     H162240   0.266   0.320   7.496
20666WAT     H262241   0.246   0.337   7.657
20667WAT      O62242   5.205   2.840   2.132
20667WAT     H162243   5.209   2.750   2.090
20667WAT     H262244   5.270   2.901   2.085
20668WAT      O62245   6.474   7.740   2.630
20668WAT     H162246   6.555   7.690   2.599
20668WAT     H262247   6.490   7.773   2.723
20669WAT      O62248   1.658   1.958   8.918
20669WAT     H162249   1.628   1.987   9.009
20669WAT     H262250   1.697   2.036   8.870
20670WAT      O62251   4.723   8.042   0.603
20670WAT     H162252   4.711   7.960   0.659
20670WAT     H262253   4.763   8.115   0.659
20671WAT      O62254   8.609   7.561   8.534
20671WAT     H162255   8.584   7.554   8.437
20671WAT     H262256   8.637   7.655   8.554
20672WAT      O62257   4.268   5.626   4.546
20672WAT     H162258   4.257   5.582   4.457
20672WAT     H262259   4.274   5.556   4.617
20673WAT      O62260   3.853   3.723   9.102
20673WAT     H162261   3.905   3.807   9.087
20673WAT     H262262   3.778   3.719   9.036
20674WAT      O62263   9.336   2.446   5.104
20674WAT     H162264   9.241   2.475   5.117
20674WAT     H262265   9.384   2.513   5.048
20675WAT      O62266   5.941   9.768   8.301
20675WAT     H162267   5.899   9.857   8.319
20675WAT     H262268   5.889   9.720   8.231
20676WAT      O62269   6.488   3.243   9.447
20676WAT     H162270   6.442   3.157   9.470
20676WAT     H262271   6.478   3.307   9.523
20677WAT      O62272   1.469   0.100   8.369
20677WAT     H162273   1.551   0.043   8.360
20677WAT     H262274   1.466   0.140   8.461
20678WAT      O62275   9.615   0.016   0.185
20678WAT     H162276   9.546   0.031   0.115
20678WAT     H262277   9.672  -0.062   0.159
20679WAT      O62278   8.923   9.811   2.614
20679WAT     H162279   8.969   9.827   2.527
20679WAT     H262280   8.898   9.899   2.655
20680WAT      O62281   2.002   7.445   9.362
20680WAT     H162282   1.922   7.437   9.303
20680WAT     H262283   2.069   7.376   9.336
20681WAT      O62284   7.513   1.039   3.709
20681WAT     H162285   7.593   0.993   3.746
20681WAT     H262286   7.443   0.972   3.684
20682WAT      O62287   8.081   0.315   5.595
20682WAT     H162288   8.169   0.350   5.564
20682WAT     H262289   8.081   0.311   5.695
20683WAT      O62290   7.612   8.208   5.643
20683WAT     H162291   7.690   8.267   5.665
20683WAT     H262292   7.569   8.176   5.728
20684WAT      O62293   7.323   6.263   0.979
20684WAT     H162294   7.326   6.278   0.881
20684WAT     H262295   7.416   6.252   1.014
20685WAT      O62296   7.978   1.988   4.044
20685WAT     H162297   7.905   2.031   3.992
20685WAT     H262298   7.939   1.918   4.105
20686WAT      O62299   7.006   5.058   7.039
20686WAT     H162300   6.932   5.108   7.084
20686WAT     H262301   6.968   5.000   6.967
20687WAT      O62302   9.553   3.291   9.115
20687WAT     H162303   9.563   3.216   9.181
20687WAT     H262304   9.548   3.253   9.022
20688WAT      O62305   4.469   9.501   5.784
20688WAT     H162306   4.436   9.512   5.691
20688WAT     H262307   4.455   9.407   5.814
20689WAT      O62308   5.066   4.368   4.909
20689WAT     H162309   5.101   4.369   4.816
20689WAT     H262310   5.140   4.348   4.973
20690WAT      O62311   2.911   4.534   2.030
20690WAT     H162312   2.838   4.602   2.023
20690WAT     H262313   2.904   4.470   1.953
20691WAT      O62314   3.083   0.780   4.784
20691WAT     H162315   3.072   0.879   4.787
20691WAT     H262316   2.996   0.736   4.806
20692WAT      O62317   4.674   6.704   2.955
20692WAT     H162318   4.745   6.764   2.916
20692WAT     H262319   4.686   6.698   3.054
20693WAT      O62320   5.289   0.241   9.135
20693WAT     H162321   5.250   0.192   9.213
20693WAT     H262322   5.382   0.271   9.159
20694WAT      O62323   5.642   1.177   1.065
20694WAT     H162324   5.651   1.077   1.069
20694WAT     H262325   5.589   1.209   1.144
20695WAT      O62326   3.463   5.971   7.966
20695WAT     H162327   3.535   5.995   8.031
20695WAT     H262328   3.450   6.046   7.901
20696WAT      O62329   3.106   7.309   4.380
20696WAT     H162330   3.108   7.285   4.283
20696WAT     H262331   3.092   7.407   4.390
20697WAT      O62332   3.106   3.971   7.012
20697WAT     H162333   3.061   3.884   6.992
20697WAT     H262334   3.088   4.036   6.938
20698WAT      O62335   6.939   8.657   2.640
20698WAT     H162336   6.970   8.745   2.676
20698WAT     H262337   6.900   8.671   2.549
20699WAT      O62338   3.045   5.863   6.509
20699WAT     H162339   3.093   5.938   6.554
20699WAT     H262340   2.948   5.886   6.500
20700WAT      O62341   7.031   2.647   9.686
20700WAT     H162342   7.061   2.698   9.766
20700WAT     H262343   7.047   2.702   9.604
20701WAT      O62344   9.493   9.472   8.186
20701WAT     H162345   9.443   9.406   8.129
20701WAT     H262346   9.434   9.550   8.206
20702WAT      O62347   0.988   5.322   4.728
20702WAT     H162348   1.029   5.291   4.642
20702WAT     H262349   1.040   5.286   4.805
20703WAT      O62350   1.162   6.049   1.415
20703WAT     H162351   1.148   5.962   1.461
20703WAT     H262352   1.073   6.091   1.396
20704WAT      O62353   8.608   7.417   7.876
20704WAT     H162354   8.562   7.497   7.914
20704WAT     H262355   8.657   7.443   7.792
20705WAT      O62356   2.918   7.526   0.111
20705WAT     H162357   2.881   7.604   0.162
20705WAT     H262358   2.847   7.458   0.097
20706WAT      O62359   6.896   6.495   4.762
20706WAT     H162360   6.977   6.440   4.784
20706WAT     H262361   6.913   6.591   4.787
20707WAT      O62362   6.623   2.294   9.002
20707WAT     H162363   6.660   2.253   9.085
20707WAT     H262364   6.659   2.247   8.922
20708WAT      O62365   4.087   4.624   2.378
20708WAT     H162366   4.148   4.669   2.312
20708WAT     H262367   4.141   4.571   2.442
20709WAT      O62368   6.514   3.583   3.916
20709WAT     H162369   6.610   3.609   3.907
20709WAT     H262370   6.508   3.489   3.949
20710WAT      O62371   2.602   9.558   7.219
20710WAT     H162372   2.548   9.566   7.303
20710WAT     H262373   2.623   9.461   7.203
20711WAT      O62374   9.289   0.403   4.092
20711WAT     H162375   9.372   0.392   4.038
20711WAT     H262376   9.237   0.318   4.091
20712WAT      O62377   0.835   4.325   7.928
20712WAT     H162378   0.855   4.240   7.977
20712WAT     H262379   0.751   4.365   7.964
20713WAT      O62380   9.813   3.438   5.364
20713WAT     H162381   9.887   3.383   5.327
20713WAT     H262382   9.835   3.466   5.457
20714WAT      O62383   4.486   5.912   0.953
20714WAT     H162384   4.401   5.883   0.909
20714WAT     H262385   4.564   5.885   0.895
20715WAT      O62386   6.790   4.860   5.400
20715WAT     H162387   6.871   4.885   5.453
20715WAT     H262388   6.748   4.943   5.363
20716WAT      O62389   4.936   6.541   2.810
20716WAT     H162390   4.905   6.474   2.878
20716WAT     H262391   4.984   6.615   2.857
20717WAT      O62392   4.863   4.988   2.173
20717WAT     H162393   4.815   4.900   2.164
20717WAT     H262394   4.817   5.044   2.242
20718WAT      O62395   1.512   0.783   5.356
20718WAT     H162396   1.610   0.778   5.372
20718WAT     H262397   1.491   0.866   5.304
20719WAT      O62398   5.325   3.396   1.377
20719WAT     H162399   5.342   3.482   1.328
20719WAT     H262400   5.329   3.319   1.313
20720WAT      O62401   4.007   6.425   8.062
20720WAT     H162402   4.095   6.453   8.024
20720WAT     H262403   4.019   6.341   8.116
20721WAT      O62404   1.972   2.243   2.818
20721WAT     H162405   2.030   2.228   2.897
20721WAT     H262406   1.910   2.319   2.836
20722WAT      O62407   0.896   3.989   1.416
20722WAT     H162408   0.830   3.958   1.347
20722WAT     H262409   0.987   3.992   1.375
20723WAT      O62410   5.526   0.514   6.786
20723WAT     H162411   5.544   0.447   6.858
20723WAT     H262412   5.612   0.540   6.742
20724WAT      O62413   9.123   5.185   7.444
20724WAT     H162414   9.220   5.173   7.467
20724WAT     H262415   9.115   5.238   7.360
20725WAT      O62416   5.581   4.460   8.114
20725WAT     H162417   5.658   4.468   8.177
20725WAT     H262418   5.509   4.524   8.141
20726WAT      O62419   9.379   5.036   1.517
20726WAT     H162420   9.434   4.993   1.445
20726WAT     H262421   9.349   4.965   1.581
20727WAT      O62422   5.320   4.742   0.878
20727WAT     H162423   5.333   4.661   0.935
20727WAT     H262424   5.399   4.753   0.816
20728WAT      O62425   2.778   2.934   8.255
20728WAT     H162426   2.770   3.014   8.196
20728WAT     H262427   2.862   2.941   8.309
20729WAT      O62428   7.254   0.112   0.399
20729WAT     H162429   7.277   0.027   0.352
20729WAT     H262430   7.163   0.142   0.371
20730WAT      O62431   5.888   8.976   9.508
20730WAT     H162432   5.918   8.909   9.576
20730WAT     H262433   5.893   9.068   9.547
20731WAT      O62434   8.561   8.025   9.285
20731WAT     H162435   8.550   8.069   9.196
20731WAT     H262436   8.640   7.964   9.283
20732WAT      O62437   8.227   8.474   6.914
20732WAT     H162438   8.311   8.459   6.965
20732WAT     H262439   8.231   8.564   6.870
20733WAT      O62440   2.509   1.483   7.906
20733WAT     H162441   2.582   1.416   7.913
20733WAT     H262442   2.422   1.437   7.888
20734WAT      O62443   5.264   3.740   7.246
20734WAT     H162444   5.237   3.832   7.220
20734WAT     H262445   5.362   3.727   7.232
20735WAT      O62446   8.855   5.931   5.688
20735WAT     H162447   8.812   6.015   5.721
20735WAT     H262448   8.948   5.924   5.724
20736WAT      O62449   3.524   5.163   4.963
20736WAT     H162450   3.427   5.181   4.951
20736WAT     H262451   3.548   5.168   5.060
20737WAT      O62452   3.660   4.672   8.256
20737WAT     H162453   3.673   4.622   8.170
20737WAT     H262454   3.743   4.665   8.311
20738WAT      O62455   1.018   6.242   8.376
20738WAT     H162456   1.116   6.221   8.366
20738WAT     H262457   1.004   6.340   8.369
20739WAT      O62458   2.814   0.773   5.671
20739WAT     H162459   2.824   0.726   5.758
20739WAT     H262460   2.729   0.744   5.627
20740WAT      O62461   1.721   3.430   5.827
20740WAT     H162462   1.753   3.367   5.897
20740WAT     H262463   1.636   3.473   5.857
20741WAT      O62464   6.801   1.510   9.571
20741WAT     H162465   6.877   1.551   9.522
20741WAT     H262466   6.725   1.575   9.575
20742WAT      O62467   1.617   3.907   9.090
20742WAT     H162468   1.672   3.942   9.014
20742WAT     H262469   1.677   3.886   9.167
20743WAT      O62470   2.536   4.631   7.738
20743WAT     H162471   2.558   4.599   7.830
20743WAT     H262472   2.466   4.572   7.698
20744WAT      O62473   2.032   7.745   7.361
20744WAT     H162474   2.052   7.655   7.400
20744WAT     H262475   2.094   7.763   7.283
20745WAT      O62476   5.844   9.644   2.919
20745WAT     H162477   5.816   9.579   2.990
20745WAT     H262478   5.901   9.596   2.852
20746WAT      O62479   0.194   1.244   6.572
20746WAT     H162480   0.223   1.193   6.490
20746WAT     H262481   0.145   1.182   6.633
20747WAT      O62482   2.625   5.022   0.493
20747WAT     H162483   2.613   5.034   0.394
20747WAT     H262484   2.620   5.112   0.538
20748WAT      O62485   7.643   9.467   2.357
20748WAT     H162486   7.647   9.507   2.448
20748WAT     H262487   7.731   9.479   2.311
20749WAT      O62488   9.671   2.850   9.294
20749WAT     H162489   9.686   2.905   9.211
20749WAT     H262490   9.627   2.906   9.364
20750WAT      O62491   5.840   9.744   9.892
20750WAT     H162492   5.847   9.844   9.903
20750WAT     H262493   5.746   9.720   9.869
20751WAT      O62494   6.148   8.957   7.770
20751WAT     H162495   6.053   8.937   7.793
20751WAT     H262496   6.208   8.911   7.835
20752WAT      O62497   6.279   0.031   2.837
20752WAT     H162498   6.329   0.109   2.874
20752WAT     H262499   6.181   0.051   2.838
20753WAT      O62500   2.940   6.394   7.329
20753WAT     H162501   2.896   6.432   7.410
20753WAT     H262502   2.914   6.448   7.249
20754WAT      O62503   1.772   7.279   3.829
20754WAT     H162504   1.792   7.280   3.927
20754WAT     H262505   1.856   7.263   3.778
20755WAT      O62506   7.426   6.104   1.262
20755WAT     H162507   7.360   6.068   1.327
20755WAT     H262508   7.430   6.204   1.269
20756WAT      O62509   6.754   6.390   3.082
20756WAT     H162510   6.843   6.425   3.112
20756WAT     H262511   6.719   6.447   3.008
20757WAT      O62512   0.071   5.182   0.370
20757WAT     H162513   0.140   5.215   0.435
20757WAT     H262514   0.028   5.099   0.406
20758WAT      O62515   9.591   0.667   4.113
20758WAT     H162516   9.660   0.710   4.055
20758WAT     H262517   9.501   0.708   4.094
20759WAT      O62518   1.942   1.231   1.273
20759WAT     H162519   1.947   1.147   1.328
20759WAT     H262520   2.030   1.247   1.228
20760WAT      O62521   8.412   7.504   2.827
20760WAT     H162522   8.337   7.483   2.890
20760WAT     H262523   8.483   7.434   2.835
20761WAT      O62524   9.443   6.726   8.528
20761WAT     H162525   9.446   6.674   8.443
20761WAT     H262526   9.534   6.761   8.549
20762WAT      O62527   0.873   2.438   9.562
20762WAT     H162528   0.838   2.516   9.615
20762WAT     H262529   0.877   2.357   9.621
20763WAT      O62530   5.298   9.794   1.571
20763WAT     H162531   5.256   9.826   1.486
20763WAT     H262532   5.269   9.852   1.646
20764WAT      O62533   4.826   1.190   5.803
20764WAT     H162534   4.814   1.219   5.708
20764WAT     H262535   4.767   1.111   5.821
20765WAT      O62536   4.502   9.555   5.183
20765WAT     H162537   4.430   9.616   5.215
20765WAT     H262538   4.462   9.466   5.159
20766WAT      O62539   4.191   7.486   8.677
20766WAT     H162540   4.176   7.418   8.606
20766WAT     H262541   4.288   7.487   8.703
20767WAT      O62542   0.256   7.850   2.483
20767WAT     H162543   0.205   7.853   2.397
20767WAT     H262544   0.290   7.941   2.505
20768WAT      O62545   8.933   8.715   6.957
20768WAT     H162546   9.000   8.644   6.982
20768WAT     H262547   8.948   8.795   7.015
20769WAT      O62548   4.351   4.527   0.967
20769WAT     H162549   4.345   4.476   1.053
20769WAT     H262550   4.275   4.501   0.908
20770WAT      O62551   1.248   4.695   4.158
20770WAT     H162552   1.279   4.601   4.168
20770WAT     H262553   1.200   4.724   4.240
20771WAT      O62554   4.973   1.002   4.166
20771WAT     H162555   4.996   0.941   4.242
20771WAT     H262556   4.936   0.948   4.091
20772WAT      O62557   8.725   2.962   1.710
20772WAT     H162558   8.662   3.037   1.731
20772WAT     H262559   8.809   2.972   1.763
20773WAT      O62560   4.046   0.167   6.874
20773WAT     H162561   4.128   0.196   6.924
20773WAT     H262562   3.973   0.233   6.889
20774WAT      O62563   4.601   2.092   1.888
20774WAT     H162564   4.688   2.124   1.925
20774WAT     H262565   4.618   2.030   1.811
20775WAT      O62566   1.204   2.295   2.530
20775WAT     H162567   1.204   2.279   2.628
20775WAT     H262568   1.169   2.387   2.511
20776WAT      O62569   5.696   9.042   4.094
20776WAT     H162570   5.703   9.138   4.121
20776WAT     H262571   5.770   9.020   4.030
20777WAT      O62572   3.711   6.652   8.426
20777WAT     H162573   3.725   6.592   8.505
20777WAT     H262574   3.780   6.632   8.356
20778WAT      O62575   3.531   6.036   1.967
20778WAT     H162576   3.596   5.970   2.004
20778WAT     H262577   3.566   6.072   1.880
20779WAT      O62578   9.858   9.245   0.866
20779WAT     H162579   9.800   9.212   0.791
20779WAT     H262580   9.808   9.239   0.952
20780WAT      O62581   9.100   6.867   2.912
20780WAT     H162582   9.039   6.859   2.832
20780WAT     H262583   9.091   6.785   2.969
20781WAT      O62584   3.011   0.784   1.496
20781WAT     H162585   2.930   0.788   1.555
20781WAT     H262586   3.010   0.698   1.446
20782WAT      O62587   4.607   9.227   2.430
20782WAT     H162588   4.584   9.135   2.399
20782WAT     H262589   4.639   9.281   2.352
20783WAT      O62590   1.642   2.707   4.205
20783WAT     H162591   1.588   2.695   4.121
20783WAT     H262592   1.727   2.655   4.198
20784WAT      O62593   5.212   0.076   0.121
20784WAT     H162594   5.282   0.006   0.134
20784WAT     H262595   5.138   0.040   0.066
20785WAT      O62596   8.830   0.143   6.775
20785WAT     H162597   8.887   0.101   6.704
20785WAT     H262598   8.733   0.134   6.749
20786WAT      O62599   8.710   1.224   2.521
20786WAT     H162600   8.785   1.230   2.455
20786WAT     H262601   8.663   1.312   2.527
20787WAT      O62602   3.120   0.116   0.777
20787WAT     H162603   3.180   0.145   0.702
20787WAT     H262604   3.161   0.142   0.864
20788WAT      O62605   0.005   8.852   5.395
20788WAT     H162606   0.007   8.770   5.338
20788WAT     H262607   0.049   8.833   5.483
20789WAT      O62608   9.039   8.425   2.112
20789WAT     H162609   9.017   8.490   2.039
20789WAT     H262610   8.993   8.338   2.095
20790WAT      O62611   3.357   4.071   5.934
20790WAT     H162612   3.432   4.114   5.883
20790WAT     H262613   3.366   3.972   5.930
20791WAT      O62614   3.507   4.803   3.370
20791WAT     H162615   3.500   4.766   3.463
20791WAT     H262616   3.604   4.806   3.343
20792WAT      O62617   8.526   1.377   1.770
20792WAT     H162618   8.513   1.282   1.797
20792WAT     H262619   8.459   1.401   1.700
20793WAT      O62620   7.463   0.123   5.511
20793WAT     H162621   7.481   0.053   5.581
20793WAT     H262622   7.442   0.079   5.424
20794WAT      O62623   9.066   9.147   0.529
20794WAT     H162624   9.078   9.221   0.463
20794WAT     H262625   9.049   9.184   0.620
20795WAT      O62626   5.292   5.881   6.304
20795WAT     H162627   5.273   5.845   6.213
20795WAT     H262628   5.214   5.862   6.364
20796WAT      O62629   3.220   2.086   6.004
20796WAT     H162630   3.320   2.084   6.008
20796WAT     H262631   3.190   2.168   5.955
20797WAT      O62632   0.586   4.831   5.422
20797WAT     H162633   0.525   4.907   5.398
20797WAT     H262634   0.606   4.834   5.520
20798WAT      O62635   2.420   2.282   4.644
20798WAT     H162636   2.477   2.280   4.726
20798WAT     H262637   2.325   2.261   4.668
20799WAT      O62638   6.300   0.848   7.076
20799WAT     H162639   6.256   0.806   7.155
20799WAT     H262640   6.353   0.928   7.105
20800WAT      O62641   7.873   8.179   3.359
20800WAT     H162642   7.949   8.117   3.379
20800WAT     H262643   7.788   8.141   3.396
20801WAT      O62644   3.059   1.173   1.788
20801WAT     H162645   3.138   1.202   1.843
20801WAT     H262646   2.979   1.164   1.848
20802WAT      O62647   3.025   4.506   7.973
20802WAT     H162648   3.018   4.562   8.056
20802WAT     H262649   3.119   4.475   7.962
20803WAT      O62650   3.113   4.287   2.898
20803WAT     H162651   3.135   4.382   2.922
20803WAT     H262652   3.037   4.255   2.954
20804WAT      O62653   2.864   9.669   0.566
20804WAT     H162654   2.919   9.589   0.543
20804WAT     H262655   2.896   9.708   0.652
20805WAT      O62656   5.740   5.166   5.977
20805WAT     H162657   5.707   5.200   6.064
20805WAT     H262658   5.774   5.073   5.988
20806WAT      O62659   3.830   9.777   4.098
20806WAT     H162660   3.829   9.843   4.174
20806WAT     H262661   3.775   9.698   4.122
20807WAT      O62662   1.984   3.636   7.914
20807WAT     H162663   2.066   3.634   7.971
20807WAT     H262664   1.978   3.725   7.868
20808WAT      O62665   0.603   1.020   2.393
20808WAT     H162666   0.535   0.963   2.347
20808WAT     H262667   0.576   1.034   2.488
20809WAT      O62668   7.728   6.042   4.877
20809WAT     H162669   7.684   5.984   4.808
20809WAT     H262670   7.817   6.073   4.843
20810WAT      O62671   2.355   2.071   6.556
20810WAT     H162672   2.287   2.068   6.629
20810WAT     H262673   2.420   1.996   6.569
20811WAT      O62674   2.529   4.413   5.550
20811WAT     H162675   2.627   4.425   5.539
20811WAT     H262676   2.486   4.502   5.566
20812WAT      O62677   4.716   3.940   8.586
20812WAT     H162678   4.619   3.950   8.608
20812WAT     H262679   4.767   3.919   8.670
20813WAT      O62680   5.861   6.702   7.731
20813WAT     H162681   5.917   6.744   7.803
20813WAT     H262682   5.842   6.607   7.756
20814WAT      O62683   8.490   1.848   6.380
20814WAT     H162684   8.404   1.854   6.431
20814WAT     H262685   8.476   1.887   6.288
20815WAT      O62686   3.266   8.818   8.187
20815WAT     H162687   3.258   8.821   8.088
20815WAT     H262688   3.261   8.911   8.224
20816WAT      O62689   2.513   1.806   2.909
20816WAT     H162690   2.439   1.768   2.853
20816WAT     H262691   2.600   1.794   2.862
20817WAT      O62692   7.048   8.029   9.595
20817WAT     H162693   7.084   8.102   9.652
20817WAT     H262694   7.000   7.963   9.652
20818WAT      O62695   7.618   9.730   1.318
20818WAT     H162696   7.544   9.705   1.256
20818WAT     H262697   7.579   9.762   1.405
20819WAT      O62698   7.096   7.222   4.810
20819WAT     H162699   7.166   7.214   4.881
20819WAT     H262700   7.128   7.178   4.726
20820WAT      O62701   3.813   0.516   2.886
20820WAT     H162702   3.737   0.573   2.853
20820WAT     H262703   3.855   0.468   2.809
20821WAT      O62704   5.009   8.109   0.856
20821WAT     H162705   5.070   8.043   0.812
20821WAT     H262706   4.971   8.069   0.939
20822WAT      O62707   8.538   5.349   3.068
20822WAT     H162708   8.618   5.404   3.097
20822WAT     H262709   8.558   5.252   3.082
20823WAT      O62710   5.586   2.751   7.358
20823WAT     H162711   5.512   2.690   7.331
20823WAT     H262712   5.567   2.843   7.324
20824WAT      O62713   1.475   2.380   8.792
20824WAT     H162714   1.426   2.353   8.875
20824WAT     H262715   1.564   2.418   8.817
20825WAT      O62716   8.226   5.758   8.300
20825WAT     H162717   8.140   5.801   8.272
20825WAT     H262718   8.242   5.676   8.245
20826WAT      O62719   7.041   4.208   5.495
20826WAT     H162720   7.001   4.298   5.481
20826WAT     H262721   7.075   4.201   5.589
20827WAT      O62722   2.009   2.938   4.700
20827WAT     H162723   1.992   2.860   4.760
20827WAT     H262724   1.923   2.973   4.664
20828WAT      O62725   6.923   5.906   8.742
20828WAT     H162726   7.021   5.889   8.732
20828WAT     H262727   6.875   5.820   8.755
20829WAT      O62728   9.189   5.130   5.910
20829WAT     H162729   9.170   5.207   5.849
20829WAT     H262730   9.287   5.127   5.929
20830WAT      O62731   5.961   1.524   7.355
20830WAT     H162732   5.895   1.542   7.282
20830WAT     H262733   6.040   1.584   7.345
20831WAT      O62734   4.873   4.208   7.369
20831WAT     H162735   4.792   4.204   7.428
20831WAT     H262736   4.951   4.170   7.419
20832WAT      O62737   6.103   2.894   1.335
20832WAT     H162738   6.107   2.915   1.237
20832WAT     H262739   6.193   2.866   1.367
20833WAT      O62740   6.677   3.111   5.884
20833WAT     H162741   6.608   3.174   5.919
20833WAT     H262742   6.738   3.160   5.821
20834WAT      O62743   1.111   0.128   1.723
20834WAT     H162744   1.188   0.064   1.713
20834WAT     H262745   1.110   0.191   1.646
20835WAT      O62746   6.803   0.966   4.748
20835WAT     H162747   6.863   1.027   4.799
20835WAT     H262748   6.807   0.874   4.788
20836WAT      O62749   4.983   8.751   6.014
20836WAT     H162750   5.023   8.842   6.025
20836WAT     H262751   5.026   8.704   5.937
20837WAT      O62752   8.676   0.731   1.058
20837WAT     H162753   8.708   0.640   1.033
20837WAT     H262754   8.600   0.722   1.123
20838WAT      O62755   5.783   2.696   7.186
20838WAT     H162756   5.728   2.724   7.265
20838WAT     H262757   5.875   2.673   7.215
20839WAT      O62758   4.861   7.012   4.645
20839WAT     H162759   4.950   6.981   4.610
20839WAT     H262760   4.793   6.940   4.634
20840WAT      O62761   8.257   3.630   3.475
20840WAT     H162762   8.286   3.704   3.536
20840WAT     H262763   8.200   3.668   3.402
20841WAT      O62764   9.306   6.330   0.051
20841WAT     H162765   9.216   6.310   0.091
20841WAT     H262766   9.297   6.403  -0.017
20842WAT      O62767   1.226   2.301   9.417
20842WAT     H162768   1.277   2.218   9.395
20842WAT     H262769   1.202   2.300   9.514
20843WAT      O62770   7.107   3.574   5.709
20843WAT     H162771   7.078   3.576   5.614
20843WAT     H262772   7.201   3.608   5.716
20844WAT      O62773   2.348   0.233   0.434
20844WAT     H162774   2.368   0.331   0.427
20844WAT     H262775   2.300   0.203   0.351
20845WAT      O62776   5.337   2.020   4.923
20845WAT     H162777   5.325   1.927   4.890
20845WAT     H262778   5.283   2.034   5.006
20846WAT      O62779   6.211   2.873   7.113
20846WAT     H162780   6.173   2.924   7.190
20846WAT     H262781   6.164   2.899   7.029
20847WAT      O62782   1.143   7.544   5.076
20847WAT     H162783   1.043   7.534   5.077
20847WAT     H262784   1.184   7.469   5.127
20848WAT      O62785   1.065   8.517   2.907
20848WAT     H162786   1.078   8.449   2.835
20848WAT     H262787   1.051   8.472   2.994
20849WAT      O62788   1.864   0.385   4.467
20849WAT     H162789   1.903   0.474   4.489
20849WAT     H262790   1.784   0.369   4.524
20850WAT      O62791   3.469   8.323   9.349
20850WAT     H162792   3.534   8.251   9.325
20850WAT     H262793   3.518   8.407   9.370
20851WAT      O62794   3.799   1.949   4.250
20851WAT     H162795   3.715   1.934   4.198
20851WAT     H262796   3.861   1.872   4.236
20852WAT      O62797   9.612   8.831   6.321
20852WAT     H162798   9.531   8.878   6.287
20852WAT     H262799   9.593   8.793   6.412
20853WAT      O62800   3.557   4.596   2.738
20853WAT     H162801   3.653   4.623   2.744
20853WAT     H262802   3.543   4.511   2.788
20854WAT      O62803   7.648   3.853   2.417
20854WAT     H162804   7.728   3.903   2.449
20854WAT     H262805   7.621   3.886   2.327
20855WAT      O62806   6.990   5.891   2.888
20855WAT     H162807   6.971   5.821   2.958
20855WAT     H262808   6.912   5.953   2.881
20856WAT      O62809   7.153   2.267   7.497
20856WAT     H162810   7.082   2.207   7.459
20856WAT     H262811   7.243   2.233   7.469
20857WAT      O62812   2.040   6.707   4.596
20857WAT     H162813   1.974   6.652   4.646
20857WAT     H262814   2.030   6.691   4.498
20858WAT      O62815   4.133   0.818   0.474
20858WAT     H162816   4.152   0.750   0.545
20858WAT     H262817   4.140   0.910   0.512
20859WAT      O62818   8.657   0.438   3.580
20859WAT     H162819   8.749   0.406   3.601
20859WAT     H262820   8.634   0.514   3.640
20860WAT      O62821   4.736   9.312   7.669
20860WAT     H162822   4.713   9.293   7.764
20860WAT     H262823   4.779   9.232   7.628
20861WAT      O62824   0.592   1.194   6.092
20861WAT     H162825   0.687   1.163   6.088
20861WAT     H262826   0.589   1.294   6.092
20862WAT      O62827   4.380   2.644   2.737
20862WAT     H162828   4.290   2.689   2.734
20862WAT     H262829   4.428   2.659   2.651
20863WAT      O62830   3.800   8.167   0.597
20863WAT     H162831   3.736   8.138   0.667
20863WAT     H262832   3.751   8.220   0.527
20864WAT      O62833   7.814   3.531   5.021
20864WAT     H162834   7.849   3.624   5.034
20864WAT     H262835   7.867   3.485   4.951
20865WAT      O62836   3.618   0.697   5.805
20865WAT     H162837   3.567   0.740   5.879
20865WAT     H262838   3.705   0.745   5.792
20866WAT      O62839   0.130   8.385   9.714
20866WAT     H162840   0.038   8.425   9.720
20866WAT     H262841   0.146   8.351   9.621
20867WAT      O62842   4.143   1.072   0.579
20867WAT     H162843   4.056   1.107   0.616
20867WAT     H262844   4.198   1.149   0.548
20868WAT      O62845   2.861   0.627   4.807
20868WAT     H162846   2.917   0.544   4.810
20868WAT     H262847   2.794   0.619   4.734
20869WAT      O62848   1.953   6.898   6.448
20869WAT     H162849   1.963   6.852   6.360
20869WAT     H262850   2.043   6.914   6.488
20870WAT      O62851   8.066   1.076   1.232
20870WAT     H162852   8.028   1.135   1.303
20870WAT     H262853   8.111   0.998   1.275
20871WAT      O62854   0.057   3.924   8.234
20871WAT     H162855   0.015   3.864   8.167
20871WAT     H262856   0.039   4.020   8.210
20872WAT      O62857   8.579   1.566   9.033
20872WAT     H162858   8.502   1.504   9.045
20872WAT     H262859   8.665   1.515   9.036
20873WAT      O62860   7.596   9.679   2.118
20873WAT     H162861   7.669   9.616   2.146
20873WAT     H262862   7.521   9.627   2.077
20874WAT      O62863   1.821   6.915   4.542
20874WAT     H162864   1.854   6.910   4.448
20874WAT     H262865   1.727   6.881   4.548
20875WAT      O62866   5.165   1.192   6.168
20875WAT     H162867   5.210   1.102   6.172
20875WAT     H262868   5.088   1.194   6.232
20876WAT      O62869   8.489   1.892   4.854
20876WAT     H162870   8.582   1.856   4.866
20876WAT     H262871   8.494   1.988   4.829
20877WAT      O62872   8.655   6.489   8.180
20877WAT     H162873   8.645   6.408   8.237
20877WAT     H262874   8.733   6.543   8.211
20878WAT      O62875   2.252   7.139   5.335
20878WAT     H162876   2.209   7.225   5.306
20878WAT     H262877   2.323   7.159   5.403
20879WAT      O62878   6.830   2.759   0.680
20879WAT     H162879   6.831   2.702   0.762
20879WAT     H262880   6.859   2.704   0.601
20880WAT      O62881   8.349   6.449   8.666
20880WAT     H162882   8.345   6.373   8.601
20880WAT     H262883   8.370   6.533   8.616
20881WAT      O62884   5.503   7.747   0.329
20881WAT     H162885   5.477   7.663   0.281
20881WAT     H262886   5.421   7.799   0.351
20882WAT      O62887   9.090   4.761   3.263
20882WAT     H162888   9.171   4.820   3.265
20882WAT     H262889   9.037   4.774   3.347
20883WAT      O62890   0.476   2.141   7.811
20883WAT     H162891   0.391   2.103   7.847
20883WAT     H262892   0.533   2.173   7.887
20884WAT      O62893   3.783   7.808   7.470
20884WAT     H162894   3.776   7.724   7.417
20884WAT     H262895   3.725   7.800   7.552
20885WAT      O62896   4.000   8.406   0.837
20885WAT     H162897   4.065   8.332   0.855
20885WAT     H262898   4.049   8.484   0.798
20886WAT      O62899   6.811   6.142   3.730
20886WAT     H162900   6.827   6.130   3.828
20886WAT     H262901   6.777   6.057   3.690
20887WAT      O62902   5.238   9.435   8.671
20887WAT     H162903   5.189   9.458   8.755
20887WAT     H262904   5.335   9.424   8.691
20888WAT      O62905   7.588   7.717   6.274
20888WAT     H162906   7.501   7.682   6.308
20888WAT     H262907   7.659   7.701   6.342
20889WAT      O62908   6.765   3.224   3.032
20889WAT     H162909   6.666   3.234   3.042
20889WAT     H262910   6.808   3.225   3.122
20890WAT      O62911   3.079   2.587   6.594
20890WAT     H162912   2.992   2.633   6.577
20890WAT     H262913   3.148   2.656   6.616
20891WAT      O62914   6.660   9.392   4.495
20891WAT     H162915   6.665   9.492   4.492
20891WAT     H262916   6.585   9.361   4.437
20892WAT      O62917   5.612   5.844   6.491
20892WAT     H162918   5.564   5.757   6.476
20892WAT     H262919   5.559   5.901   6.553
20893WAT      O62920   5.504   3.876   2.516
20893WAT     H162921   5.592   3.908   2.481
20893WAT     H262922   5.468   3.942   2.581
20894WAT      O62923   0.356   0.727   2.758
20894WAT     H162924   0.367   0.654   2.826
20894WAT     H262925   0.312   0.805   2.801
20895WAT      O62926   9.219   9.091   2.931
20895WAT     H162927   9.170   9.138   3.005
20895WAT     H262928   9.266   9.158   2.875
20896WAT      O62929   0.042   0.923   2.181
20896WAT     H162930   0.026   0.859   2.107
20896WAT     H262931  -0.033   0.918   2.247
20897WAT      O62932   5.513   8.291   9.371
20897WAT     H162933   5.466   8.311   9.286
20897WAT     H262934   5.560   8.373   9.404
20898WAT      O62935   2.741   3.852   3.175
20898WAT     H162936   2.745   3.870   3.077
20898WAT     H262937   2.834   3.851   3.213
20899WAT      O62938   7.281   5.203   0.555
20899WAT     H162939   7.257   5.276   0.619
20899WAT     H262940   7.373   5.219   0.520
20900WAT      O62941   7.751   6.064   8.947
20900WAT     H162942   7.807   6.006   9.005
20900WAT     H262943   7.678   6.105   9.002
20901WAT      O62944   1.516   9.362   5.848
20901WAT     H162945   1.423   9.353   5.813
20901WAT     H262946   1.531   9.296   5.922
20902WAT      O62947   0.715   6.331   0.122
20902WAT     H162948   0.761   6.255   0.076
20902WAT     H262949   0.632   6.356   0.071
20903WAT      O62950   5.315   2.977   6.689
20903WAT     H162951   5.278   2.892   6.651
20903WAT     H262952   5.258   3.007   6.765
20904WAT      O62953   9.838   1.301   2.795
20904WAT     H162954   9.750   1.258   2.813
20904WAT     H262955   9.826   1.381   2.736
20905WAT      O62956   7.402   8.909   5.182
20905WAT     H162957   7.352   8.958   5.254
20905WAT     H262958   7.498   8.899   5.209
20906WAT      O62959   3.563   1.530   2.892
20906WAT     H162960   3.595   1.435   2.897
20906WAT     H262961   3.587   1.568   2.803
20907WAT      O62962   2.897   0.076   3.861
20907WAT     H162963   2.939  -0.011   3.832
20907WAT     H262964   2.962   0.151   3.847
20908WAT      O62965   4.682   4.647   0.187
20908WAT     H162966   4.686   4.548   0.169
20908WAT     H262967   4.775   4.681   0.203
20909WAT      O62968   9.716   9.315   1.120
20909WAT     H162969   9.725   9.414   1.125
20909WAT     H262970   9.738   9.275   1.209
20910WAT      O62971   3.549   0.475   3.157
20910WAT     H162972   3.599   0.558   3.182
20910WAT     H262973   3.451   0.492   3.166
20911WAT      O62974   8.195   4.873   7.297
20911WAT     H162975   8.173   4.868   7.200
20911WAT     H262976   8.217   4.968   7.322
20912WAT      O62977   1.221   6.875   5.586
20912WAT     H162978   1.197   6.813   5.511
20912WAT     H262979   1.304   6.842   5.631
20913WAT      O62980   7.096   3.934   1.112
20913WAT     H162981   7.181   3.948   1.061
20913WAT     H262982   7.039   4.016   1.106
20914WAT      O62983   5.933   2.810   0.299
20914WAT     H162984   5.961   2.717   0.273
20914WAT     H262985   6.001   2.875   0.267
20915WAT      O62986   1.739   8.921   3.578
20915WAT     H162987   1.705   8.886   3.665
20915WAT     H262988   1.685   8.883   3.503
20916WAT      O62989   3.530   1.335   1.125
20916WAT     H162990   3.583   1.316   1.043
20916WAT     H262991   3.499   1.250   1.166
20917WAT      O62992   5.090   1.793   7.751
20917WAT     H162993   5.184   1.762   7.765
20917WAT     H262994   5.045   1.805   7.840
20918WAT      O62995   1.870   8.590   1.333
20918WAT     H162996   1.899   8.578   1.238
20918WAT     H262997   1.921   8.527   1.392
20919WAT      O62998   8.871   8.920   0.776
20919WAT     H162999   8.888   9.017   0.793
20919WAT     H263000   8.950   8.866   0.806
20920WAT      O63001   6.185   6.075   7.502
20920WAT     H163002   6.109   6.056   7.564
20920WAT     H263003   6.211   6.171   7.510
20921WAT      O63004   2.537   5.443   9.219
20921WAT     H163005   2.485   5.458   9.136
20921WAT     H263006   2.635   5.451   9.199
20922WAT      O63007   5.352   2.460   5.031
20922WAT     H163008   5.409   2.394   4.981
20922WAT     H263009   5.337   2.426   5.124
20923WAT      O63010   4.798   8.460   5.118
20923WAT     H163011   4.777   8.545   5.166
20923WAT     H263012   4.713   8.414   5.094
20924WAT      O63013   1.124   5.764   0.491
20924WAT     H163014   1.165   5.737   0.579
20924WAT     H263015   1.071   5.847   0.503
20925WAT      O63016   1.540   4.247   8.882
20925WAT     H163017   1.567   4.290   8.968
20925WAT     H263018   1.453   4.285   8.851
20926WAT      O63019   2.607   9.530   0.893
20926WAT     H163020   2.527   9.579   0.858
20926WAT     H263021   2.666   9.593   0.943
20927WAT      O63022   8.044   4.870   3.144
20927WAT     H163023   8.080   4.797   3.203
20927WAT     H263024   8.074   4.959   3.179
20928WAT      O63025   3.641   8.340   9.833
20928WAT     H163026   3.666   8.267   9.769
20928WAT     H263027   3.689   8.326   9.920
20929WAT      O63028   9.237   2.621   0.845
20929WAT     H163029   9.254   2.644   0.941
20929WAT     H263030   9.150   2.572   0.837
20930WAT      O63031   7.609   4.929   7.343
20930WAT     H163032   7.617   4.861   7.416
20930WAT     H263033   7.699   4.968   7.324
20931WAT      O63034   1.953   1.710   8.277
20931WAT     H163035   2.034   1.768   8.265
20931WAT     H263036   1.870   1.766   8.269
20932WAT      O63037   7.886   0.308   8.274
20932WAT     H163038   7.910   0.232   8.336
20932WAT     H263039   7.798   0.346   8.301
20933WAT      O63040   3.181   2.941   2.839
20933WAT     H163041   3.127   2.964   2.920
20933WAT     H263042   3.271   2.909   2.867
20934WAT      O63043   0.085   4.532   4.873
20934WAT     H163044   0.164   4.590   4.851
20934WAT     H263045   0.042   4.502   4.788
20935WAT      O63046   4.518   0.220   9.374
20935WAT     H163047   4.427   0.178   9.369
20935WAT     H263048   4.584   0.161   9.328
20936WAT      O63049   3.167   4.747   2.376
20936WAT     H163050   3.115   4.662   2.387
20936WAT     H263051   3.107   4.819   2.343
20937WAT      O63052   1.275   4.066   2.376
20937WAT     H163053   1.310   3.975   2.397
20937WAT     H263054   1.314   4.133   2.439
20938WAT      O63055   3.779   0.245   7.150
20938WAT     H163056   3.805   0.150   7.133
20938WAT     H263057   3.700   0.248   7.211
20939WAT      O63058   4.760   2.647   8.608
20939WAT     H163059   4.800   2.580   8.546
20939WAT     H263060   4.779   2.621   8.703
20940WAT      O63061   6.231   7.767   7.834
20940WAT     H163062   6.234   7.813   7.744
20940WAT     H263063   6.247   7.835   7.906
20941WAT      O63064   7.000   8.552   3.963
20941WAT     H163065   7.051   8.630   3.999
20941WAT     H263066   7.030   8.533   3.870
20942WAT      O63067   3.256   9.184   4.642
20942WAT     H163068   3.349   9.218   4.629
20942WAT     H263069   3.193   9.261   4.648
20943WAT      O63070   6.328   6.868   9.169
20943WAT     H163071   6.240   6.912   9.157
20943WAT     H263072   6.359   6.830   9.082
20944WAT      O63073   0.897   1.758   5.910
20944WAT     H163074   0.935   1.840   5.954
20944WAT     H263075   0.972   1.699   5.880
20945WAT      O63076   4.384   8.883   9.359
20945WAT     H163077   4.413   8.809   9.421
20945WAT     H263078   4.457   8.951   9.353
20946WAT      O63079   4.415   6.586   1.424
20946WAT     H163080   4.390   6.672   1.468
20946WAT     H263081   4.513   6.585   1.405
20947WAT      O63082   2.379   1.390   7.620
20947WAT     H163083   2.324   1.456   7.568
20947WAT     H263084   2.476   1.412   7.611
20948WAT      O63085   9.056   5.930   1.894
20948WAT     H163086   9.122   5.900   1.825
20948WAT     H263087   8.974   5.872   1.890
20949WAT      O63088   2.483   0.757   1.091
20949WAT     H163089   2.408   0.738   1.028
20949WAT     H263090   2.540   0.676   1.101
20950WAT      O63091   0.350   1.664   4.785
20950WAT     H163092   0.318   1.720   4.862
20950WAT     H263093   0.273   1.642   4.726
20951WAT      O63094   3.487   2.656   9.015
20951WAT     H163095   3.573   2.706   9.001
20951WAT     H263096   3.418   2.718   9.050
20952WAT      O63097   6.886   1.383   0.424
20952WAT     H163098   6.852   1.393   0.331
20952WAT     H263099   6.906   1.287   0.442
20953WAT      O63100   6.344   8.043   7.918
20953WAT     H163101   6.401   7.986   7.976
20953WAT     H263102   6.399   8.116   7.877
20954WAT      O63103   7.680   1.810   2.898
20954WAT     H163104   7.743   1.877   2.858
20954WAT     H263105   7.588   1.850   2.902
20955WAT      O63106   1.179   2.986   4.106
20955WAT     H163107   1.188   2.959   4.010
20955WAT     H263108   1.270   2.996   4.146
20956WAT      O63109   0.425   4.927   3.488
20956WAT     H163110   0.450   5.024   3.489
20956WAT     H263111   0.371   4.908   3.406
20957WAT      O63112   7.129   5.352   2.188
20957WAT     H163113   7.087   5.442   2.203
20957WAT     H263114   7.166   5.318   2.274
20958WAT      O63115   4.817   1.907   4.475
20958WAT     H163116   4.861   1.833   4.527
20958WAT     H263117   4.797   1.875   4.382
20959WAT      O63118   0.092   5.823   3.679
20959WAT     H163119   0.173   5.809   3.736
20959WAT     H263120   0.031   5.745   3.688
20960WAT      O63121   4.052   0.996   6.137
20960WAT     H163122   4.059   1.047   6.223
20960WAT     H263123   3.988   1.043   6.076
20961WAT      O63124   9.722   0.126   3.146
20961WAT     H163125   9.665   0.046   3.125
20961WAT     H263126   9.705   0.197   3.078
20962WAT      O63127   0.404   8.943   1.331
20962WAT     H163128   0.487   8.979   1.373
20962WAT     H263129   0.329   9.008   1.344
20963WAT      O63130   3.973   2.232   3.237
20963WAT     H163131   3.969   2.208   3.140
20963WAT     H263132   3.933   2.323   3.251
20964WAT      O63133   0.618   1.677   4.737
20964WAT     H163134   0.679   1.600   4.758
20964WAT     H263135   0.526   1.656   4.767
20965WAT      O63136   6.298   5.791   0.907
20965WAT     H163137   6.234   5.750   0.972
20965WAT     H263138   6.250   5.855   0.848
20966WAT      O63139   4.497   2.102   3.319
20966WAT     H163140   4.563   2.041   3.276
20966WAT     H263141   4.540   2.191   3.336
20967WAT      O63142   0.816   5.727   6.910
20967WAT     H163143   0.878   5.663   6.865
20967WAT     H263144   0.859   5.764   6.992
20968WAT      O63145   7.639   6.790   2.734
20968WAT     H163146   7.730   6.831   2.726
20968WAT     H263147   7.578   6.832   2.668
20969WAT      O63148   2.727   8.580   3.699
20969WAT     H163149   2.710   8.484   3.677
20969WAT     H263150   2.774   8.624   3.623
20970WAT      O63151   1.039   1.782   1.542
20970WAT     H163152   1.056   1.772   1.640
20970WAT     H263153   1.072   1.701   1.494
20971WAT      O63154   5.478   2.580   2.030
20971WAT     H163155   5.462   2.543   2.122
20971WAT     H263156   5.391   2.606   1.989
20972WAT      O63157   2.841   6.784   9.764
20972WAT     H163158   2.936   6.763   9.739
20972WAT     H263159   2.840   6.854   9.836
20973WAT      O63160   4.386   2.839   6.008
20973WAT     H163161   4.301   2.807   5.968
20973WAT     H263162   4.382   2.938   6.021
20974WAT      O63163   4.202   0.690   4.169
20974WAT     H163164   4.110   0.709   4.202
20974WAT     H263165   4.237   0.608   4.215
20975WAT      O63166   1.420   2.081   2.408
20975WAT     H163167   1.399   2.001   2.464
20975WAT     H263168   1.351   2.152   2.423
20976WAT      O63169   2.098   0.102   1.434
20976WAT     H163170   2.013   0.153   1.448
20976WAT     H263171   2.078   0.014   1.391
20977WAT      O63172   6.307   9.797   0.700
20977WAT     H163173   6.319   9.711   0.651
20977WAT     H263174   6.339   9.872   0.642
20978WAT      O63175   1.362   6.650   6.961
20978WAT     H163176   1.317   6.633   7.049
20978WAT     H263177   1.316   6.725   6.914
20979WAT      O63178   3.595   8.068   0.779
20979WAT     H163179   3.606   7.968   0.783
20979WAT     H263180   3.500   8.092   0.797
20980WAT      O63181   8.513   7.018   3.126
20980WAT     H163182   8.423   7.053   3.102
20980WAT     H263183   8.530   6.931   3.078
20981WAT      O63184   7.541   3.939   2.158
20981WAT     H163185   7.558   4.037   2.149
20981WAT     H263186   7.458   3.915   2.108
20982WAT      O63187   6.828   8.121   7.837
20982WAT     H163188   6.927   8.132   7.824
20982WAT     H263189   6.780   8.198   7.795
20983WAT      O63190   9.584   6.065   4.862
20983WAT     H163191   9.601   6.099   4.770
20983WAT     H263192   9.604   5.967   4.865
20984WAT      O63193   4.160   2.325   3.777
20984WAT     H163194   4.196   2.269   3.851
20984WAT     H263195   4.229   2.337   3.706
20985WAT      O63196   7.631   3.523   3.785
20985WAT     H163197   7.691   3.534   3.864
20985WAT     H263198   7.565   3.450   3.804
20986WAT      O63199   2.893   6.325   3.437
20986WAT     H163200   2.959   6.295   3.368
20986WAT     H263201   2.833   6.249   3.461
20987WAT      O63202   6.061   1.259   8.882
20987WAT     H163203   5.972   1.232   8.846
20987WAT     H263204   6.069   1.233   8.978
20988WAT      O63205   8.712   1.649   3.824
20988WAT     H163206   8.719   1.744   3.794
20988WAT     H263207   8.803   1.607   3.823
20989WAT      O63208   3.604   6.129   1.726
20989WAT     H163209   3.552   6.163   1.648
20989WAT     H263210   3.651   6.044   1.701
20990WAT      O63211   0.329   1.641   2.963
20990WAT     H163212   0.241   1.605   2.932
20990WAT     H263213   0.399   1.626   2.893
20991WAT      O63214   2.698   5.194   2.473
20991WAT     H163215   2.723   5.257   2.399
20991WAT     H263216   2.644   5.243   2.542
20992WAT      O63217   0.918   8.567   1.746
20992WAT     H163218   0.953   8.661   1.748
20992WAT     H263219   0.918   8.533   1.652
20993WAT      O63220   3.675   4.565   0.868
20993WAT     H163221   3.698   4.588   0.963
20993WAT     H263222   3.645   4.647   0.820
20994WAT      O63223   9.181   6.891   9.315
20994WAT     H163224   9.164   6.956   9.388
20994WAT     H263225   9.101   6.884   9.257
20995WAT      O63226   8.034   7.965   0.985
20995WAT     H163227   8.116   7.927   0.943
20995WAT     H263228   8.015   7.916   1.070
20996WAT      O63229   6.466   0.452   7.470
20996WAT     H163230   6.510   0.417   7.388
20996WAT     H263231   6.439   0.547   7.456
20997WAT      O63232   8.201   5.616   6.928
20997WAT     H163233   8.283   5.564   6.904
20997WAT     H263234   8.182   5.683   6.856
20998WAT      O63235   2.586   5.747   6.084
20998WAT     H163236   2.648   5.784   6.153
20998WAT     H263237   2.539   5.667   6.121
20999WAT      O63238   0.656   3.159   8.423
20999WAT     H163239   0.619   3.129   8.335
20999WAT     H263240   0.687   3.079   8.475
21000WAT      O63241   4.997   3.015   5.824
21000WAT     H163242   4.945   3.037   5.741
21000WAT     H263243   5.057   2.937   5.806
21001WAT      O63244   1.616   8.836   3.364
21001WAT     H163245   1.666   8.859   3.281
21001WAT     H263246   1.539   8.899   3.374
21002WAT      O63247   7.530   3.828   5.146
21002WAT     H163248   7.597   3.901   5.158
21002WAT     H263249   7.551   3.753   5.209
21003WAT      O63250   5.153   4.914   5.315
21003WAT     H163251   5.213   4.982   5.357
21003WAT     H263252   5.104   4.956   5.238
21004WAT      O63253   1.440   0.778   6.650
21004WAT     H163254   1.373   0.705   6.663
21004WAT     H263255   1.480   0.802   6.739
21005WAT      O63256   4.256   8.354   4.072
21005WAT     H163257   4.201   8.433   4.099
21005WAT     H263258   4.233   8.328   3.978
21006WAT      O63259   0.556   3.044   5.011
21006WAT     H163260   0.566   3.130   5.061
21006WAT     H263261   0.643   3.018   4.970
21007WAT      O63262   8.696   2.554   7.261
21007WAT     H163263   8.637   2.474   7.261
21007WAT     H263264   8.640   2.637   7.260
21008WAT      O63265   2.708   9.719   6.758
21008WAT     H163266   2.661   9.659   6.823
21008WAT     H263267   2.781   9.669   6.712
21009WAT      O63268   9.415   0.396   1.331
21009WAT     H163269   9.480   0.454   1.379
21009WAT     H263270   9.454   0.368   1.243
21010WAT      O63271   7.936   7.451   0.988
21010WAT     H163272   7.901   7.361   0.962
21010WAT     H263273   7.959   7.451   1.086
21011WAT      O63274   3.231   1.467   6.990
21011WAT     H163275   3.274   1.514   7.067
21011WAT     H263276   3.278   1.380   6.974
21012WAT      O63277   2.364   1.145   1.348
21012WAT     H163278   2.350   1.136   1.447
21012WAT     H263279   2.423   1.224   1.330
21013WAT      O63280   0.812   7.453   1.211
21013WAT     H163281   0.789   7.370   1.161
21013WAT     H263282   0.728   7.499   1.240
21014WAT      O63283   7.574   8.955   2.543
21014WAT     H163284   7.623   8.868   2.539
21014WAT     H263285   7.638   9.030   2.527
21015WAT      O63286   6.777   1.374   4.002
21015WAT     H163287   6.818   1.404   4.088
21015WAT     H263288   6.715   1.298   4.020
21016WAT      O63289   8.353   6.379   5.555
21016WAT     H163290   8.426   6.444   5.531
21016WAT     H263291   8.371   6.291   5.513
21017WAT      O63292   7.501   7.493   1.593
21017WAT     H163293   7.520   7.531   1.502
21017WAT     H263294   7.476   7.567   1.655
21018WAT      O63295   5.848   6.352   2.658
21018WAT     H163296   5.936   6.337   2.704
21018WAT     H263297   5.845   6.299   2.573
21019WAT      O63298   2.603   3.114   0.235
21019WAT     H163299   2.607   3.018   0.208
21019WAT     H263300   2.682   3.163   0.199
21020WAT      O63301   2.451   3.815   1.643
21020WAT     H163302   2.425   3.741   1.704
21020WAT     H263303   2.545   3.800   1.611
21021WAT      O63304   7.083   6.807   7.481
21021WAT     H163305   7.046   6.770   7.566
21021WAT     H263306   7.062   6.904   7.475
21022WAT      O63307   1.595   7.804   3.311
21022WAT     H163308   1.618   7.892   3.353
21022WAT     H263309   1.679   7.758   3.282
21023WAT      O63310   7.626   7.759   1.991
21023WAT     H163311   7.691   7.828   2.023
21023WAT     H263312   7.532   7.792   2.004
21024WAT      O63313   6.667   8.243   0.990
21024WAT     H163314   6.640   8.171   1.054
21024WAT     H263315   6.675   8.329   1.039
21025WAT      O63316   8.223   7.717   0.138
21025WAT     H163317   8.308   7.668   0.121
21025WAT     H263318   8.147   7.651   0.142
21026WAT      O63319   1.077   8.354   1.616
21026WAT     H163320   1.160   8.352   1.671
21026WAT     H263321   1.000   8.320   1.671
21027WAT      O63322   6.189   6.389   7.610
21027WAT     H163323   6.256   6.447   7.564
21027WAT     H263324   6.097   6.419   7.586
21028WAT      O63325   5.798   7.547   5.723
21028WAT     H163326   5.716   7.492   5.711
21028WAT     H263327   5.829   7.541   5.818
21029WAT      O63328   4.793   0.785   9.789
21029WAT     H163329   4.864   0.853   9.770
21029WAT     H263330   4.833   0.694   9.790
21030WAT      O63331   1.287   1.220   2.953
21030WAT     H163332   1.319   1.156   2.884
21030WAT     H263333   1.238   1.295   2.909
21031WAT      O63334   3.053   8.507   1.004
21031WAT     H163335   3.144   8.546   0.995
21031WAT     H263336   3.002   8.520   0.919
21032WAT      O63337   7.174   6.897   5.814
21032WAT     H163338   7.138   6.805   5.804
21032WAT     H263339   7.270   6.892   5.841
21033WAT      O63340   1.896   4.216   9.332
21033WAT     H163341   1.995   4.221   9.345
21033WAT     H263342   1.873   4.246   9.239
21034WAT      O63343   7.135   5.944   9.153
21034WAT     H163344   7.093   5.934   9.243
21034WAT     H263345   7.096   6.025   9.108
21035WAT      O63346   3.605   3.894   7.673
21035WAT     H163347   3.506   3.906   7.663
21035WAT     H263348   3.645   3.977   7.713
21036WAT      O63349   2.777   9.750   4.886
21036WAT     H163350   2.754   9.838   4.844
21036WAT     H263351   2.693   9.707   4.920
21037WAT      O63352   8.278   8.383   8.989
21037WAT     H163353   8.264   8.304   8.929
21037WAT     H263354   8.210   8.381   9.063
21038WAT      O63355   4.605   6.247   6.104
21038WAT     H163356   4.576   6.257   6.009
21038WAT     H263357   4.679   6.180   6.109
21039WAT      O63358   7.353   8.590   4.096
21039WAT     H163359   7.435   8.641   4.122
21039WAT     H263360   7.272   8.636   4.133
21040WAT      O63361   0.067   8.572   1.940
21040WAT     H163362   0.075   8.656   1.994
21040WAT     H263363   0.158   8.542   1.913
21041WAT      O63364   4.592   2.264   7.305
21041WAT     H163365   4.593   2.217   7.393
21041WAT     H263366   4.680   2.309   7.290
21042WAT      O63367   7.309   3.337   4.613
21042WAT     H163368   7.227   3.293   4.649
21042WAT     H263369   7.325   3.306   4.519
21043WAT      O63370   0.281   0.988   7.395
21043WAT     H163371   0.336   1.070   7.413
21043WAT     H263372   0.321   0.938   7.319
21044WAT      O63373   2.887   4.278   3.304
21044WAT     H163374   2.908   4.266   3.401
21044WAT     H263375   2.944   4.351   3.266
21045WAT      O63376   8.776   4.977   3.605
21045WAT     H163377   8.700   4.996   3.667
21045WAT     H263378   8.764   5.029   3.520
21046WAT      O63379   4.574   3.277   4.839
21046WAT     H163380   4.516   3.294   4.919
21046WAT     H263381   4.607   3.364   4.802
21047WAT      O63382   3.596   0.490   9.635
21047WAT     H163383   3.516   0.523   9.686
21047WAT     H263384   3.595   0.529   9.543
21048WAT      O63385   1.855   5.122   4.057
21048WAT     H163386   1.838   5.207   4.006
21048WAT     H263387   1.821   5.044   4.004
21049WAT      O63388   6.102   3.879   1.968
21049WAT     H163389   6.003   3.870   1.980
21049WAT     H263390   6.122   3.953   1.905
21050WAT      O63391   0.747   8.682   5.812
21050WAT     H163392   0.663   8.627   5.820
21050WAT     H263393   0.803   8.646   5.738
21051WAT      O63394   1.617   9.459   2.906
21051WAT     H163395   1.552   9.383   2.916
21051WAT     H263396   1.709   9.423   2.892
21052WAT      O63397   1.753   7.640   5.075
21052WAT     H163398   1.786   7.698   5.000
21052WAT     H263399   1.758   7.692   5.161
21053WAT      O63400   2.916   6.342   2.870
21053WAT     H163401   2.969   6.392   2.939
21053WAT     H263402   2.977   6.283   2.816
21054WAT      O63403   1.799   5.243   4.308
21054WAT     H163404   1.865   5.309   4.344
21054WAT     H263405   1.831   5.210   4.219
21055WAT      O63406   9.796   2.021   5.050
21055WAT     H163407   9.742   2.105   5.046
21055WAT     H263408   9.817   1.991   4.957
21056WAT      O63409   9.536   7.654   8.028
21056WAT     H163410   9.449   7.672   8.074
21056WAT     H263411   9.611   7.692   8.083
21057WAT      O63412   8.047   3.155   6.150
21057WAT     H163413   8.083   3.163   6.243
21057WAT     H263414   8.006   3.242   6.123
21058WAT      O63415   3.948   8.698   5.762
21058WAT     H163416   3.906   8.608   5.753
21058WAT     H263417   3.960   8.720   5.858
21059WAT      O63418   3.244   4.757   5.919
21059WAT     H163419   3.215   4.702   5.841
21059WAT     H263420   3.273   4.696   5.994
21060WAT      O63421   6.936   9.221   1.965
21060WAT     H163422   6.957   9.217   2.063
21060WAT     H263423   7.016   9.253   1.915
21061WAT      O63424   6.568   2.145   4.680
21061WAT     H163425   6.666   2.133   4.699
21061WAT     H263426   6.550   2.240   4.655
21062WAT      O63427   9.202   0.464   9.654
21062WAT     H163428   9.242   0.402   9.722
21062WAT     H263429   9.116   0.500   9.689
21063WAT      O63430   6.451   4.859   7.216
21063WAT     H163431   6.521   4.875   7.146
21063WAT     H263432   6.481   4.897   7.303
21064WAT      O63433   8.802   8.745   2.159
21064WAT     H163434   8.767   8.786   2.243
21064WAT     H263435   8.894   8.778   2.141
21065WAT      O63436   2.207   4.976   9.003
21065WAT     H163437   2.133   4.948   9.064
21065WAT     H263438   2.230   4.901   8.940
21066WAT      O63439   0.917   5.281   8.244
21066WAT     H163440   1.000   5.242   8.203
21066WAT     H263441   0.877   5.348   8.181
21067WAT      O63442   9.128   6.285   5.119
21067WAT     H163443   9.079   6.353   5.064
21067WAT     H263444   9.217   6.322   5.146
21068WAT      O63445   7.433   7.987   7.964
21068WAT     H163446   7.490   8.069   7.967
21068WAT     H263447   7.445   7.941   7.876
21069WAT      O63448   4.569   4.777   9.620
21069WAT     H163449   4.570   4.680   9.646
21069WAT     H263450   4.503   4.826   9.676
21070WAT      O63451   5.876   3.309   6.903
21070WAT     H163452   5.869   3.313   6.803
21070WAT     H263453   5.945   3.242   6.930
21071WAT      O63454   0.046   5.352   2.601
21071WAT     H163455  -0.043   5.394   2.586
21071WAT     H263456   0.116   5.404   2.553
21072WAT      O63457   8.716   9.469   3.422
21072WAT     H163458   8.796   9.453   3.480
21072WAT     H263459   8.634   9.437   3.469
21073WAT      O63460   6.320   5.400   5.670
21073WAT     H163461   6.312   5.406   5.570
21073WAT     H263462   6.351   5.308   5.695
21074WAT      O63463   3.956   6.014   6.090
21074WAT     H163464   3.969   5.936   6.029
21074WAT     H263465   3.861   6.016   6.122
21075WAT      O63466   9.291   8.258   6.989
21075WAT     H163467   9.232   8.195   7.040
21075WAT     H263468   9.263   8.352   7.007
21076WAT      O63469   7.544   3.687   2.622
21076WAT     H163470   7.582   3.736   2.543
21076WAT     H263471   7.532   3.591   2.599
21077WAT      O63472   1.466   2.536   4.536
21077WAT     H163473   1.490   2.484   4.618
21077WAT     H263474   1.412   2.478   4.475
21078WAT      O63475   9.584   4.898   3.930
21078WAT     H163476   9.551   4.992   3.920
21078WAT     H263477   9.677   4.899   3.967
21079WAT      O63478   2.483   5.778   9.115
21079WAT     H163479   2.398   5.749   9.159
21079WAT     H263480   2.506   5.871   9.143
21080WAT      O63481   2.198   7.655   1.604
21080WAT     H163482   2.204   7.637   1.702
21080WAT     H263483   2.168   7.750   1.590
21081WAT      O63484   0.345   1.937   7.289
21081WAT     H163485   0.285   2.015   7.306
21081WAT     H263486   0.336   1.908   7.194
21082WAT      O63487   7.250   9.200   5.117
21082WAT     H163488   7.222   9.132   5.185
21082WAT     H263489   7.330   9.250   5.149
21083WAT      O63490   5.278   2.358   4.158
21083WAT     H163491   5.362   2.411   4.168
21083WAT     H263492   5.301   2.262   4.140
21084WAT      O63493   6.242   8.293   4.749
21084WAT     H163494   6.255   8.268   4.653
21084WAT     H263495   6.324   8.269   4.801
21085WAT      O63496   4.505   8.399   6.337
21085WAT     H163497   4.526   8.496   6.350
21085WAT     H263498   4.408   8.388   6.316
21086WAT      O63499   7.510   4.436   9.742
21086WAT     H163500   7.441   4.365   9.758
21086WAT     H263501   7.600   4.393   9.731
21087WAT      O63502   9.121   5.001   4.987
21087WAT     H163503   9.117   4.907   5.021
21087WAT     H263504   9.212   5.019   4.950
21088WAT      O63505   8.218   2.870   3.356
21088WAT     H163506   8.250   2.942   3.418
21088WAT     H263507   8.119   2.864   3.360
21089WAT      O63508   9.874   6.374   7.541
21089WAT     H163509   9.826   6.431   7.474
21089WAT     H263510   9.856   6.409   7.633
21090WAT      O63511   7.428   7.915   2.582
21090WAT     H163512   7.470   8.000   2.614
21090WAT     H263513   7.499   7.855   2.545
21091WAT      O63514   5.294   3.925   6.340
21091WAT     H163515   5.221   3.857   6.338
21091WAT     H263516   5.323   3.941   6.434
21092WAT      O63517   0.905   0.704   5.958
21092WAT     H163518   1.003   0.716   5.971
21092WAT     H263519   0.875   0.753   5.876
21093WAT      O63520   0.750   9.171   2.881
21093WAT     H163521   0.685   9.121   2.938
21093WAT     H263522   0.791   9.109   2.814
21094WAT      O63523   2.714   1.061   7.568
21094WAT     H163524   2.782   1.097   7.632
21094WAT     H263525   2.623   1.066   7.608
21095WAT      O63526   2.420   2.000   2.109
21095WAT     H163527   2.448   1.929   2.174
21095WAT     H263528   2.404   2.086   2.157
21096WAT      O63529   6.733   3.813   2.730
21096WAT     H163530   6.651   3.811   2.673
21096WAT     H263531   6.787   3.895   2.709
21097WAT      O63532   0.251   1.880   1.941
21097WAT     H163533   0.221   1.791   1.977
21097WAT     H263534   0.198   1.902   1.860
21098WAT      O63535   5.934   7.837   0.101
21098WAT     H163536   5.857   7.852   0.038
21098WAT     H263537   5.901   7.788   0.182
21099WAT      O63538   1.561   7.024   1.431
21099WAT     H163539   1.639   6.971   1.464
21099WAT     H263540   1.509   6.969   1.365
21100WAT      O63541   1.113   9.534   4.854
21100WAT     H163542   1.040   9.595   4.886
21100WAT     H263543   1.112   9.532   4.754
21101WAT      O63544   9.302   3.450   1.438
21101WAT     H163545   9.383   3.442   1.379
21101WAT     H263546   9.300   3.541   1.479
21102WAT      O63547   6.068   8.561   9.598
21102WAT     H163548   6.040   8.488   9.534
21102WAT     H263549   6.166   8.577   9.590
21103WAT      O63550   8.032   0.645   2.629
21103WAT     H163551   8.063   0.601   2.544
21103WAT     H263552   8.104   0.707   2.662
21104WAT      O63553   2.374   1.175   1.630
21104WAT     H163554   2.430   1.257   1.646
21104WAT     H263555   2.294   1.178   1.690
21105WAT      O63556   9.022   8.368   6.536
21105WAT     H163557   9.082   8.296   6.570
21105WAT     H263558   9.028   8.373   6.437
21106WAT      O63559   7.973   1.586   8.283
21106WAT     H163560   7.906   1.563   8.353
21106WAT     H263561   8.042   1.513   8.278
21107WAT      O63562   0.727   7.954   4.509
21107WAT     H163563   0.821   7.988   4.505
21107WAT     H263564   0.697   7.930   4.417
21108WAT      O63565   5.540   1.389   7.438
21108WAT     H163566   5.600   1.446   7.494
21108WAT     H263567   5.567   1.396   7.342
21109WAT      O63568   9.334   2.646   8.674
21109WAT     H163569   9.241   2.676   8.651
21109WAT     H263570   9.360   2.569   8.616
21110WAT      O63571   7.150   1.157   4.027
21110WAT     H163572   7.235   1.202   4.052
21110WAT     H263573   7.074   1.199   4.076
21111WAT      O63574   2.988   6.993   4.002
21111WAT     H163575   3.001   6.996   4.101
21111WAT     H263576   3.035   6.914   3.965
21112WAT      O63577   2.571   1.142   3.685
21112WAT     H163578   2.532   1.195   3.609
21112WAT     H263579   2.498   1.113   3.747
21113WAT      O63580   4.006   4.619   2.973
21113WAT     H163581   4.065   4.554   3.021
21113WAT     H263582   4.022   4.711   3.008
21114WAT      O63583   0.519   1.489   9.424
21114WAT     H163584   0.588   1.539   9.372
21114WAT     H263585   0.428   1.515   9.393
21115WAT      O63586   5.580   2.055   2.904
21115WAT     H163587   5.586   1.955   2.897
21115WAT     H263588   5.670   2.093   2.924
21116WAT      O63589   7.777   4.653   4.621
21116WAT     H163590   7.710   4.580   4.608
21116WAT     H263591   7.868   4.612   4.628
21117WAT      O63592   7.366   3.582   6.069
21117WAT     H163593   7.448   3.629   6.038
21117WAT     H263594   7.334   3.623   6.155
21118WAT      O63595   7.005   2.449   9.036
21118WAT     H163596   6.955   2.536   9.033
21118WAT     H263597   6.997   2.409   9.127
21119WAT      O63598   0.009   6.737   7.737
21119WAT     H163599  -0.073   6.698   7.696
21119WAT     H263600   0.090   6.696   7.694
21120WAT      O63601   1.099   1.948   4.397
21120WAT     H163602   1.016   2.004   4.391
21120WAT     H263603   1.087   1.866   4.342
21121WAT      O63604   4.458   7.635   4.394
21121WAT     H163605   4.394   7.563   4.366
21121WAT     H263606   4.412   7.723   4.392
21122WAT      O63607   3.428   0.274   5.326
21122WAT     H163608   3.455   0.347   5.263
21122WAT     H263609   3.486   0.276   5.407
21123WAT      O63610   3.203   6.369   5.794
21123WAT     H163611   3.179   6.290   5.738
21123WAT     H263612   3.297   6.397   5.774
21124WAT      O63613   1.958   2.532   2.984
21124WAT     H163614   1.920   2.624   2.999
21124WAT     H263615   1.894   2.478   2.930
21125WAT      O63616   3.662   4.702   0.392
21125WAT     H163617   3.626   4.755   0.315
21125WAT     H263618   3.588   4.685   0.457
21126WAT      O63619   0.293   6.785   6.501
21126WAT     H163620   0.276   6.798   6.404
21126WAT     H263621   0.237   6.850   6.553
21127WAT      O63622   3.339   2.454   0.412
21127WAT     H163623   3.363   2.363   0.447
21127WAT     H263624   3.421   2.510   0.404
21128WAT      O63625   6.979   0.132   3.508
21128WAT     H163626   7.076   0.116   3.524
21128WAT     H263627   6.951   0.217   3.553
21129WAT      O63628   7.828   2.074   0.334
21129WAT     H163629   7.876   1.991   0.361
21129WAT     H263630   7.876   2.117   0.258
21130WAT      O63631   8.218   9.800   2.401
21130WAT     H163632   8.211   9.864   2.323
21130WAT     H263633   8.276   9.723   2.375
21131WAT      O63634   5.303   6.184   2.654
21131WAT     H163635   5.311   6.148   2.561
21131WAT     H263636   5.333   6.115   2.719
21132WAT      O63637   9.799   7.424   2.254
21132WAT     H163638   9.840   7.503   2.209
21132WAT     H263639   9.706   7.410   2.219
21133WAT      O63640   2.279   0.950   1.155
21133WAT     H163641   2.365   0.905   1.130
21133WAT     H263642   2.299   1.029   1.213
21134WAT      O63643   4.153   2.022   7.434
21134WAT     H163644   4.110   1.986   7.351
21134WAT     H263645   4.167   2.121   7.424
21135WAT      O63646   5.861   0.351   7.354
21135WAT     H163647   5.815   0.433   7.320
21135WAT     H263648   5.899   0.300   7.277
21136WAT      O63649   7.876   1.593   2.557
21136WAT     H163650   7.917   1.661   2.496
21136WAT     H263651   7.873   1.504   2.511
21137WAT      O63652   5.649   0.070   4.490
21137WAT     H163653   5.733   0.045   4.442
21137WAT     H263654   5.629   0.166   4.474
21138WAT      O63655   8.624   0.324   1.227
21138WAT     H163656   8.585   0.380   1.300
21138WAT     H263657   8.678   0.250   1.267
21139WAT      O63658   1.960   1.990   3.762
21139WAT     H163659   2.034   2.049   3.727
21139WAT     H263660   1.907   2.041   3.830
21140WAT      O63661   9.052   6.489   2.834
21140WAT     H163662   9.077   6.522   2.743
21140WAT     H263663   9.075   6.392   2.841
21141WAT      O63664   1.018   0.806   4.125
21141WAT     H163665   0.963   0.779   4.204
21141WAT     H263666   1.081   0.732   4.100
21142WAT      O63667   0.148   7.392   9.419
21142WAT     H163668   0.090   7.317   9.387
21142WAT     H263669   0.191   7.437   9.341
21143WAT      O63670   2.122   5.884   0.736
21143WAT     H163671   2.145   5.882   0.833
21143WAT     H263672   2.032   5.843   0.722
21144WAT      O63673   5.630   6.243   8.302
21144WAT     H163674   5.555   6.309   8.288
21144WAT     H263675   5.601   6.172   8.365
21145WAT      O63676   6.183   3.647   1.852
21145WAT     H163677   6.282   3.646   1.835
21145WAT     H263678   6.159   3.730   1.903
21146WAT      O63679   2.756   1.496   2.693
21146WAT     H163680   2.745   1.460   2.786
21146WAT     H263681   2.693   1.450   2.631
21147WAT      O63682   8.433   6.507   2.567
21147WAT     H163683   8.468   6.567   2.639
21147WAT     H263684   8.506   6.486   2.502
21148WAT      O63685   3.724   2.483   8.690
21148WAT     H163686   3.643   2.503   8.744
21148WAT     H263687   3.726   2.542   8.609
21149WAT      O63688   7.387   6.927   4.341
21149WAT     H163689   7.412   6.832   4.356
21149WAT     H263690   7.466   6.977   4.306
21150WAT      O63691   9.327   3.070   4.218
21150WAT     H163692   9.369   3.160   4.228
21150WAT     H263693   9.241   3.079   4.167
21151WAT      O63694   4.931   6.233   3.305
21151WAT     H163695   4.965   6.196   3.219
21151WAT     H263696   4.871   6.311   3.287
21152WAT      O63697   5.291   4.924   6.465
21152WAT     H163698   5.205   4.878   6.443
21152WAT     H263699   5.273   5.000   6.527
21153WAT      O63700   7.700   2.149   2.189
21153WAT     H163701   7.647   2.232   2.201
21153WAT     H263702   7.795   2.166   2.215
21154WAT      O63703   5.475   5.816   4.747
21154WAT     H163704   5.460   5.726   4.708
21154WAT     H263705   5.490   5.808   4.845
21155WAT      O63706   6.307   0.263   4.000
21155WAT     H163707   6.232   0.202   3.973
21155WAT     H263708   6.297   0.350   3.952
21156WAT      O63709   2.507   3.515   7.272
21156WAT     H163710   2.442   3.591   7.269
21156WAT     H263711   2.525   3.491   7.367
21157WAT      O63712   5.732   2.948   5.770
21157WAT     H163713   5.695   2.917   5.857
21157WAT     H263714   5.677   3.023   5.735
21158WAT      O63715   5.101   4.730   0.336
21158WAT     H163716   5.077   4.767   0.426
21158WAT     H263717   5.167   4.791   0.291
21159WAT      O63718   6.709   8.509   3.129
21159WAT     H163719   6.664   8.429   3.089
21159WAT     H263720   6.770   8.551   3.062
21160WAT      O63721   5.564   1.241   1.837
21160WAT     H163722   5.544   1.290   1.922
21160WAT     H263723   5.663   1.244   1.820
21161WAT      O63724   8.128   0.101   7.225
21161WAT     H163725   8.070   0.032   7.181
21161WAT     H263726   8.219   0.062   7.241
21162WAT      O63727   0.029   1.560   8.938
21162WAT     H163728  -0.059   1.538   8.895
21162WAT     H263729   0.063   1.647   8.902
21163WAT      O63730   6.880   3.859   7.985
21163WAT     H163731   6.880   3.771   8.031
21163WAT     H263732   6.787   3.881   7.954
21164WAT      O63733   4.201   8.730   2.862
21164WAT     H163734   4.238   8.712   2.953
21164WAT     H263735   4.258   8.797   2.815
21165WAT      O63736   2.699   1.896   7.686
21165WAT     H163737   2.773   1.865   7.746
21165WAT     H263738   2.728   1.887   7.591
21166WAT      O63739   7.634   8.878   2.026
21166WAT     H163740   7.547   8.897   2.072
21166WAT     H263741   7.698   8.837   2.090
21167WAT      O63742   1.027   7.199   6.839
21167WAT     H163743   1.097   7.249   6.891
21167WAT     H263744   0.947   7.184   6.897
21168WAT      O63745   7.620   7.075   1.138
21168WAT     H163746   7.692   7.108   1.076
21168WAT     H263747   7.656   7.070   1.231
21169WAT      O63748   9.146   7.234   8.348
21169WAT     H163749   9.176   7.226   8.443
21169WAT     H263750   9.192   7.165   8.292
21170WAT      O63751   6.165   4.032   8.935
21170WAT     H163752   6.227   4.005   8.861
21170WAT     H263753   6.117   3.951   8.968
21171WAT      O63754   8.008   9.262   9.782
21171WAT     H163755   7.989   9.268   9.880
21171WAT     H263756   8.003   9.166   9.753
21172WAT      O63757   1.507   2.641   6.276
21172WAT     H163758   1.503   2.685   6.186
21172WAT     H263759   1.600   2.649   6.313
21173WAT      O63760   7.553   4.725   1.491
21173WAT     H163761   7.642   4.689   1.519
21173WAT     H263762   7.547   4.822   1.518
21174WAT      O63763   2.379   9.178   8.418
21174WAT     H163764   2.426   9.243   8.477
21174WAT     H263765   2.282   9.201   8.414
21175WAT      O63766   8.954   3.537   9.441
21175WAT     H163767   9.001   3.458   9.480
21175WAT     H263768   9.017   3.589   9.383
21176WAT      O63769   0.215   8.049   9.590
21176WAT     H163770   0.156   7.968   9.589
21176WAT     H263771   0.311   8.020   9.593
21177WAT      O63772   1.523   1.284   4.078
21177WAT     H163773   1.463   1.289   3.999
21177WAT     H263774   1.488   1.342   4.151
21178WAT      O63775   1.472   0.978   4.752
21178WAT     H163776   1.523   1.039   4.691
21178WAT     H263777   1.434   0.902   4.699
21179WAT      O63778   1.285   6.543   5.730
21179WAT     H163779   1.324   6.499   5.811
21179WAT     H263780   1.224   6.478   5.684
21180WAT      O63781   8.956   3.612   7.693
21180WAT     H163782   8.937   3.537   7.755
21180WAT     H263783   9.006   3.684   7.741
21181WAT      O63784   7.904   2.142   8.797
21181WAT     H163785   7.817   2.094   8.785
21181WAT     H263786   7.948   2.155   8.709
21182WAT      O63787   0.091   5.560   7.095
21182WAT     H163788   0.014   5.503   7.126
21182WAT     H263789   0.059   5.624   7.025
21183WAT      O63790   0.043   2.257   4.719
21183WAT     H163791   0.106   2.293   4.649
21183WAT     H263792   0.077   2.281   4.810
21184WAT      O63793   6.507   0.469   5.858
21184WAT     H163794   6.589   0.512   5.896
21184WAT     H263795   6.436   0.463   5.928
21185WAT      O63796   9.014   3.245   0.938
21185WAT     H163797   8.950   3.173   0.964
21185WAT     H263798   9.083   3.207   0.877
21186WAT      O63799   0.211   2.497   5.459
21186WAT     H163800   0.274   2.482   5.535
21186WAT     H263801   0.184   2.593   5.456
21187WAT      O63802   7.669   0.714   3.439
21187WAT     H163803   7.734   0.693   3.512
21187WAT     H263804   7.593   0.649   3.443
21188WAT      O63805   7.922   0.967   6.482
21188WAT     H163806   7.985   0.974   6.405
21188WAT     H263807   7.848   0.905   6.458
21189WAT      O63808   5.022   0.093   5.637
21189WAT     H163809   5.020   0.178   5.584
21189WAT     H263810   4.952   0.030   5.601
21190WAT      O63811   1.501   2.711   1.633
21190WAT     H163812   1.596   2.693   1.661
21190WAT     H263813   1.443   2.710   1.715
21191WAT      O63814   4.079   8.438   6.541
21191WAT     H163815   3.999   8.496   6.526
21191WAT     H263816   4.130   8.427   6.455
21192WAT      O63817   5.075   1.781   2.057
21192WAT     H163818   4.999   1.837   2.090
21192WAT     H263819   5.049   1.737   1.971
21193WAT      O63820   3.224   1.201   1.575
21193WAT     H163821   3.207   1.149   1.491
21193WAT     H263822   3.143   1.195   1.634
21194WAT      O63823   3.587   0.059   3.567
21194WAT     H163824   3.490   0.033   3.565
21194WAT     H263825   3.595   0.155   3.594
21195WAT      O63826   7.484   3.576   3.531
21195WAT     H163827   7.504   3.561   3.628
21195WAT     H263828   7.398   3.532   3.508
21196WAT      O63829   7.530   5.657   1.584
21196WAT     H163830   7.597   5.659   1.659
21196WAT     H263831   7.575   5.681   1.498
21197WAT      O63832   4.909   4.191   9.369
21197WAT     H163833   4.975   4.133   9.416
21197WAT     H263834   4.822   4.191   9.419
21198WAT      O63835   2.295   0.797   4.869
21198WAT     H163836   2.291   0.809   4.969
21198WAT     H263837   2.389   0.808   4.838
21199WAT      O63838   0.822   2.459   5.554
21199WAT     H163839   0.909   2.411   5.552
21199WAT     H263840   0.810   2.512   5.470
21200WAT      O63841   9.498   2.505   2.813
21200WAT     H163842   9.472   2.430   2.752
21200WAT     H263843   9.565   2.563   2.768
21201WAT      O63844   8.326   0.112   1.185
21201WAT     H163845   8.295   0.100   1.090
21201WAT     H263846   8.336   0.210   1.204
21202WAT      O63847   0.902   6.063   8.546
21202WAT     H163848   0.884   5.981   8.492
21202WAT     H263849   0.946   6.132   8.488
21203WAT      O63850   2.145   9.385   1.730
21203WAT     H163851   2.239   9.357   1.711
21203WAT     H263852   2.145   9.452   1.805
21204WAT      O63853   6.045   9.553   8.444
21204WAT     H163854   6.011   9.617   8.374
21204WAT     H263855   6.089   9.476   8.399
21205WAT      O63856   5.801   2.304   0.213
21205WAT     H163857   5.756   2.362   0.281
21205WAT     H263858   5.733   2.269   0.149
21206WAT      O63859   2.571   5.073   0.224
21206WAT     H163860   2.583   4.980   0.188
21206WAT     H263861   2.560   5.137   0.147
21207WAT      O63862   5.973   7.254   4.123
21207WAT     H163863   6.001   7.186   4.191
21207WAT     H263864   5.914   7.322   4.168
21208WAT      O63865   5.119   3.169   2.208
21208WAT     H163866   5.030   3.205   2.237
21208WAT     H263867   5.106   3.106   2.132
21209WAT      O63868   1.605   8.822   7.713
21209WAT     H163869   1.511   8.791   7.705
21209WAT     H263870   1.660   8.782   7.640
21210WAT      O63871   6.782   1.264   0.730
21210WAT     H163872   6.812   1.173   0.704
21210WAT     H263873   6.861   1.322   0.749
21211WAT      O63874   5.298   2.033   8.238
21211WAT     H163875   5.285   1.938   8.210
21211WAT     H263876   5.221   2.062   8.296
21212WAT      O63877   3.248   5.252   9.801
21212WAT     H163878   3.298   5.199   9.869
21212WAT     H263879   3.152   5.259   9.829
21213WAT      O63880   1.380   2.189   7.038
21213WAT     H163881   1.317   2.143   6.976
21213WAT     H263882   1.469   2.199   6.993
21214WAT      O63883   1.308   4.140   7.281
21214WAT     H163884   1.265   4.052   7.300
21214WAT     H263885   1.313   4.194   7.365
21215WAT      O63886   1.324   4.262   7.522
21215WAT     H163887   1.413   4.267   7.567
21215WAT     H263888   1.271   4.345   7.543
21216WAT      O63889   3.779   6.482   2.279
21216WAT     H163890   3.849   6.535   2.231
21216WAT     H263891   3.772   6.391   2.238
21217WAT      O63892   2.516   4.028   6.350
21217WAT     H163893   2.571   4.006   6.431
21217WAT     H263894   2.536   4.121   6.321
21218WAT      O63895   8.238   1.587   3.613
21218WAT     H163896   8.330   1.559   3.585
21218WAT     H263897   8.223   1.561   3.709
21219WAT      O63898   2.579   2.457   6.150
21219WAT     H163899   2.650   2.481   6.084
21219WAT     H263900   2.522   2.385   6.112
21220WAT      O63901   3.922   0.358   3.749
21220WAT     H163902   3.924   0.438   3.810
21220WAT     H263903   3.988   0.290   3.781
21221WAT      O63904   0.702   3.964   8.959
21221WAT     H163905   0.612   3.935   8.992
21221WAT     H263906   0.770   3.896   8.988
21222WAT      O63907   1.377   6.080   7.514
21222WAT     H163908   1.470   6.044   7.513
21222WAT     H263909   1.378   6.173   7.551
21223WAT      O63910   5.895   4.527   8.899
21223WAT     H163911   5.900   4.626   8.885
21223WAT     H263912   5.972   4.483   8.853
21224WAT      O63913   7.177   7.109   4.595
21224WAT     H163914   7.107   7.058   4.545
21224WAT     H263915   7.262   7.057   4.596
21225WAT      O63916   7.975   0.598   8.405
21225WAT     H163917   8.015   0.688   8.422
21225WAT     H263918   8.047   0.533   8.381
21226WAT      O63919   7.923   1.630   5.558
21226WAT     H163920   8.011   1.605   5.518
21226WAT     H263921   7.891   1.716   5.518
21227WAT      O63922   5.243   3.834   6.832
21227WAT     H163923   5.335   3.864   6.858
21227WAT     H263924   5.249   3.751   6.777
21228WAT      O63925   9.402   2.336   6.690
21228WAT     H163926   9.497   2.342   6.723
21228WAT     H263927   9.360   2.426   6.692
21229WAT      O63928   3.827   2.804   8.071
21229WAT     H163929   3.906   2.861   8.095
21229WAT     H263930   3.743   2.852   8.099
21230WAT      O63931   6.596   1.188   0.316
21230WAT     H163932   6.597   1.139   0.403
21230WAT     H263933   6.671   1.155   0.258
21231WAT      O63934   7.910   0.264   9.366
21231WAT     H163935   7.996   0.214   9.355
21231WAT     H263936   7.921   0.357   9.332
21232WAT      O63937   0.225   9.609   3.916
21232WAT     H163938   0.273   9.679   3.864
21232WAT     H263939   0.132   9.599   3.881
21233WAT      O63940   5.815   9.028   2.191
21233WAT     H163941   5.846   9.057   2.281
21233WAT     H263942   5.762   8.943   2.201
21234WAT      O63943   0.847   9.832   1.479
21234WAT     H163944   0.910   9.784   1.541
21234WAT     H263945   0.856   9.931   1.493
21235WAT      O63946   5.789   3.689   1.485
21235WAT     H163947   5.856   3.666   1.555
21235WAT     H263948   5.772   3.787   1.485
21236WAT      O63949   5.284   6.928   7.945
21236WAT     H163950   5.207   6.945   8.007
21236WAT     H263951   5.370   6.950   7.992
21237WAT      O63952   7.612   7.834   5.094
21237WAT     H163953   7.645   7.865   5.183
21237WAT     H263954   7.588   7.914   5.038
21238WAT      O63955   3.983   8.216   3.973
21238WAT     H163956   4.066   8.253   3.933
21238WAT     H263957   3.999   8.123   4.005
21239WAT      O63958   2.523   1.778   7.154
21239WAT     H163959   2.539   1.875   7.138
21239WAT     H263960   2.608   1.727   7.137
21240WAT      O63961   9.340   4.888   8.999
21240WAT     H163962   9.322   4.880   8.901
21240WAT     H263963   9.406   4.961   9.016
21241WAT      O63964   1.256   6.946   6.020
21241WAT     H163965   1.179   6.904   5.972
21241WAT     H263966   1.292   7.023   5.967
21242WAT      O63967   8.595   4.626   7.752
21242WAT     H163968   8.611   4.597   7.658
21242WAT     H263969   8.609   4.547   7.813
21243WAT      O63970   3.815   7.588   3.429
21243WAT     H163971   3.840   7.662   3.491
21243WAT     H263972   3.768   7.626   3.349
21244WAT      O63973   3.476   9.346   4.589
21244WAT     H163974   3.567   9.370   4.624
21244WAT     H263975   3.474   9.360   4.490
21245WAT      O63976   3.433   7.837   4.775
21245WAT     H163977   3.347   7.811   4.818
21245WAT     H263978   3.415   7.872   4.683
21246WAT      O63979   4.858   3.225   7.174
21246WAT     H163980   4.905   3.309   7.201
21246WAT     H263981   4.876   3.153   7.242
21247WAT      O63982   2.489   2.175   6.886
21247WAT     H163983   2.508   2.273   6.879
21247WAT     H263984   2.395   2.157   6.858
21248WAT      O63985   2.761   6.021   0.002
21248WAT     H163986   2.709   6.011   0.087
21248WAT     H263987   2.703   6.058  -0.070
21249WAT      O63988   9.049   4.638   1.034
21249WAT     H163989   9.117   4.565   1.036
21249WAT     H263990   9.078   4.713   1.095
21250WAT      O63991   8.902   5.342   6.744
21250WAT     H163992   8.822   5.387   6.705
21250WAT     H263993   8.887   5.243   6.746
21251WAT      O63994   0.935   5.347   5.922
21251WAT     H163995   1.005   5.405   5.963
21251WAT     H263996   0.877   5.401   5.861
21252WAT      O63997   0.827   8.980   1.130
21252WAT     H163998   0.737   9.005   1.164
21252WAT     H263999   0.846   8.884   1.151
21253WAT      O64000   6.329   9.079   0.606
21253WAT     H164001   6.249   9.138   0.599
21253WAT     H264002   6.382   9.103   0.688
21254WAT      O64003   7.993   0.638   1.211
21254WAT     H164004   7.945   0.702   1.150
21254WAT     H264005   7.975   0.544   1.181
21255WAT      O64006   1.310   9.287   8.943
21255WAT     H164007   1.261   9.256   9.025
21255WAT     H264008   1.409   9.281   8.959
21256WAT      O64009   5.155   1.812   0.785
21256WAT     H164010   5.154   1.728   0.839
21256WAT     H264011   5.135   1.791   0.690
21257WAT      O64012   9.797   4.593   3.982
21257WAT     H164013   9.854   4.654   3.927
21257WAT     H264014   9.834   4.587   4.074
21258WAT      O64015   2.712   4.645   2.996
21258WAT     H164016   2.619   4.639   2.960
21258WAT     H264017   2.776   4.612   2.927
21259WAT      O64018   6.548   0.073   0.248
21259WAT     H164019   6.609  -0.005   0.266
21259WAT     H264020   6.455   0.040   0.233
21260WAT      O64021   6.052   5.222   6.320
21260WAT     H164022   6.130   5.267   6.276
21260WAT     H264023   6.035   5.264   6.409
21261WAT      O64024   2.439   5.832   2.592
21261WAT     H164025   2.424   5.822   2.494
21261WAT     H264026   2.389   5.912   2.626
21262WAT      O64027   7.296   0.117   4.490
21262WAT     H164028   7.230   0.144   4.419
21262WAT     H264029   7.253   0.050   4.551
21263WAT      O64030   2.562   5.798   0.043
21263WAT     H164031   2.578   5.860   0.120
21263WAT     H264032   2.650   5.768   0.006
21264WAT      O64033   6.502   8.498   2.349
21264WAT     H164034   6.572   8.475   2.282
21264WAT     H264035   6.476   8.594   2.340
21265WAT      O64036   1.831   5.745   7.407
21265WAT     H164037   1.806   5.779   7.316
21265WAT     H264038   1.749   5.735   7.463
21266WAT      O64039   7.338   2.997   1.536
21266WAT     H164040   7.386   3.044   1.462
21266WAT     H264041   7.239   3.012   1.527
21267WAT      O64042   9.406   3.866   3.354
21267WAT     H164043   9.339   3.804   3.395
21267WAT     H264044   9.364   3.955   3.338
21268WAT      O64045   8.852   2.658   0.320
21268WAT     H164046   8.814   2.723   0.254
21268WAT     H264047   8.817   2.677   0.411
21269WAT      O64048   6.683   5.931   8.021
21269WAT     H164049   6.718   5.840   8.040
21269WAT     H264050   6.698   5.990   8.101
21270WAT      O64051   5.277   6.429   6.033
21270WAT     H164052   5.337   6.383   6.099
21270WAT     H264053   5.253   6.365   5.960
21271WAT      O64054   0.012   2.808   1.922
21271WAT     H164055   0.034   2.896   1.963
21271WAT     H264056  -0.034   2.821   1.835
21272WAT      O64057   6.689   2.120   1.830
21272WAT     H164058   6.761   2.186   1.809
21272WAT     H264059   6.711   2.032   1.788
21273WAT      O64060   2.383   0.282   2.319
21273WAT     H164061   2.288   0.255   2.335
21273WAT     H264062   2.392   0.380   2.334
21274WAT      O64063   7.717   6.001   5.330
21274WAT     H164064   7.676   6.090   5.309
21274WAT     H264065   7.658   5.951   5.393
21275WAT      O64066   6.262   0.622   5.030
21275WAT     H164067   6.286   0.621   5.127
21275WAT     H264068   6.245   0.717   5.002
21276WAT      O64069   2.765   6.358   9.007
21276WAT     H164070   2.825   6.280   9.025
21276WAT     H264071   2.674   6.325   8.981
21277WAT      O64072   8.860   5.570   0.805
21277WAT     H164073   8.927   5.497   0.785
21277WAT     H264074   8.817   5.600   0.721
21278WAT      O64075   8.095   1.703   4.635
21278WAT     H164076   8.000   1.674   4.634
21278WAT     H264077   8.138   1.682   4.548
21279WAT      O64078   2.395   6.012   0.714
21279WAT     H164079   2.313   6.011   0.771
21279WAT     H264080   2.400   6.098   0.664
21280WAT      O64081   5.264   9.629   2.381
21280WAT     H164082   5.253   9.537   2.417
21280WAT     H264083   5.246   9.630   2.283
21281WAT      O64084   4.900   1.270   9.551
21281WAT     H164085   4.923   1.263   9.648
21281WAT     H264086   4.980   1.247   9.496
21282WAT      O64087   4.489   2.841   0.958
21282WAT     H164088   4.538   2.754   0.956
21282WAT     H264089   4.547   2.910   1.001
21283WAT      O64090   0.623   0.009   0.229
21283WAT     H164091   0.680  -0.073   0.222
21283WAT     H264092   0.581   0.028   0.140
21284WAT      O64093   2.666   0.147   3.974
21284WAT     H164094   2.602   0.071   3.989
21284WAT     H264095   2.749   0.113   3.930
21285WAT      O64096   1.719   4.917   3.905
21285WAT     H164097   1.741   4.984   3.834
21285WAT     H264098   1.633   4.872   3.883
21286WAT      O64099   4.429   4.412   3.210
21286WAT     H164100   4.342   4.442   3.169
21286WAT     H264101   4.410   4.366   3.297
21287WAT      O64102   2.848   3.214   9.442
21287WAT     H164103   2.948   3.221   9.442
21287WAT     H264104   2.809   3.288   9.496
21288WAT      O64105   5.809   7.731   3.553
21288WAT     H164106   5.818   7.749   3.651
21288WAT     H264107   5.728   7.675   3.536
21289WAT      O64108   6.590   0.341   8.978
21289WAT     H164109   6.504   0.392   8.984
21289WAT     H264110   6.635   0.362   8.891
21290WAT      O64111   2.714   3.978   6.544
21290WAT     H164112   2.807   3.942   6.536
21290WAT     H264113   2.677   3.954   6.634
21291WAT      O64114   6.971   1.493   5.962
21291WAT     H164115   7.016   1.582   5.966
21291WAT     H264116   6.951   1.471   5.866
21292WAT      O64117   1.442   6.078   3.567
21292WAT     H164118   1.481   6.045   3.481
21292WAT     H264119   1.353   6.120   3.550
21293WAT      O64120   4.863   3.003   7.783
21293WAT     H164121   4.829   2.990   7.876
21293WAT     H264122   4.815   3.079   7.739
21294WAT      O64123   7.994   3.646   2.416
21294WAT     H164124   8.094   3.642   2.421
21294WAT     H264125   7.957   3.553   2.419
21295WAT      O64126   4.192   8.278   3.826
21295WAT     H164127   4.166   8.183   3.811
21295WAT     H264128   4.229   8.317   3.741
21296WAT      O64129   6.485   9.558   3.573
21296WAT     H164130   6.455   9.562   3.478
21296WAT     H264131   6.510   9.465   3.597
21297WAT      O64132   7.409   1.224   7.108
21297WAT     H164133   7.315   1.216   7.142
21297WAT     H264134   7.418   1.173   7.023
21298WAT      O64135   0.130   5.448   0.084
21298WAT     H164136   0.136   5.503   0.167
21298WAT     H264137   0.035   5.420   0.070
21299WAT      O64138   9.056   1.410   8.152
21299WAT     H164139   8.982   1.367   8.101
21299WAT     H264140   9.052   1.383   8.248
21300WAT      O64141   4.074   0.704   4.937
21300WAT     H164142   3.983   0.714   4.897
21300WAT     H264143   4.084   0.611   4.973
21301WAT      O64144   5.537   2.021   6.854
21301WAT     H164145   5.517   2.108   6.899
21301WAT     H264146   5.602   1.969   6.909
21302WAT      O64147   1.983   1.250   7.906
21302WAT     H164148   1.898   1.241   7.855
21302WAT     H264149   1.963   1.288   7.996
21303WAT      O64150   5.063   3.542   1.687
21303WAT     H164151   5.025   3.456   1.652
21303WAT     H264152   5.148   3.563   1.639
21304WAT      O64153   5.612   7.363   5.534
21304WAT     H164154   5.682   7.355   5.463
21304WAT     H264155   5.532   7.308   5.508
21305WAT      O64156   9.634   2.942   1.914
21305WAT     H164157   9.610   2.894   1.829
21305WAT     H264158   9.619   3.040   1.903
21306WAT      O64159   9.845   3.096   8.228
21306WAT     H164160   9.896   3.168   8.276
21306WAT     H264161   9.753   3.090   8.266
21307WAT      O64162   9.607   6.072   9.032
21307WAT     H164163   9.512   6.044   9.019
21307WAT     H264164   9.612   6.172   9.037
21308WAT      O64165   5.502   3.970   0.894
21308WAT     H164166   5.476   3.880   0.861
21308WAT     H264167   5.573   3.961   0.964
21309WAT      O64168   8.650   6.438   6.962
21309WAT     H164169   8.740   6.481   6.969
21309WAT     H264170   8.607   6.465   6.876
21310WAT      O64171   7.394   7.902   2.065
21310WAT     H164172   7.416   7.935   2.157
21310WAT     H264173   7.303   7.861   2.066
21311WAT      O64174   0.645   3.146   9.361
21311WAT     H164175   0.713   3.086   9.319
21311WAT     H264176   0.568   3.092   9.395
21312WAT      O64177   1.562   6.041   0.800
21312WAT     H164178   1.529   6.017   0.891
21312WAT     H264179   1.651   5.997   0.784
21313WAT      O64180   1.527   8.538   6.962
21313WAT     H164181   1.471   8.456   6.973
21313WAT     H264182   1.496   8.589   6.882
21314WAT      O64183   7.867   6.216   7.300
21314WAT     H164184   7.892   6.124   7.328
21314WAT     H264185   7.881   6.225   7.201
21315WAT      O64186   1.598   7.485   8.828
21315WAT     H164187   1.576   7.523   8.918
21315WAT     H264188   1.670   7.540   8.786
21316WAT      O64189   6.798   1.806   2.983
21316WAT     H164190   6.855   1.878   2.943
21316WAT     H264191   6.852   1.753   3.049
21317WAT      O64192   2.296   1.972   4.355
21317WAT     H164193   2.230   1.921   4.300
21317WAT     H264194   2.374   2.000   4.298
21318WAT      O64195   2.852   9.210   7.298
21318WAT     H164196   2.758   9.208   7.265
21318WAT     H264197   2.855   9.249   7.390
21319WAT      O64198   5.833   3.156   1.597
21319WAT     H164199   5.742   3.184   1.565
21319WAT     H264200   5.823   3.087   1.668
21320WAT      O64201   7.417   2.208   1.654
21320WAT     H164202   7.444   2.304   1.646
21320WAT     H264203   7.464   2.154   1.584
21321WAT      O64204   5.054   5.657   7.081
21321WAT     H164205   4.969   5.629   7.126
21321WAT     H264206   5.117   5.692   7.150
21322WAT      O64207   2.768   6.768   4.574
21322WAT     H164208   2.799   6.766   4.479
21322WAT     H264209   2.838   6.725   4.632
21323WAT      O64210   3.143   7.333   8.113
21323WAT     H164211   3.154   7.357   8.017
21323WAT     H264212   3.084   7.400   8.158
21324WAT      O64213   5.268   0.900   8.057
21324WAT     H164214   5.302   0.961   7.984
21324WAT     H264215   5.169   0.892   8.050
21325WAT      O64216   1.981   9.709   2.329
21325WAT     H164217   1.889   9.686   2.360
21325WAT     H264218   2.045   9.706   2.406
21326WAT      O64219   2.883   4.189   8.304
21326WAT     H164220   2.956   4.200   8.372
21326WAT     H264221   2.868   4.277   8.257
21327WAT      O64222   2.040   4.493   1.834
21327WAT     H164223   2.088   4.579   1.849
21327WAT     H264224   1.981   4.502   1.754
21328WAT      O64225   1.296   3.737   0.009
21328WAT     H164226   1.320   3.651  -0.034
21328WAT     H264227   1.379   3.791   0.026
21329WAT      O64228   5.616   3.805   7.399
21329WAT     H164229   5.593   3.736   7.468
21329WAT     H264230   5.542   3.872   7.393
21330WAT      O64231   6.200   9.620   5.676
21330WAT     H164232   6.178   9.523   5.678
21330WAT     H264233   6.143   9.669   5.742
21331WAT      O64234   9.496   0.999   9.628
21331WAT     H164235   9.502   1.082   9.572
21331WAT     H264236   9.584   0.951   9.627
21332WAT      O64237   8.071   1.945   2.024
21332WAT     H164238   8.134   1.884   1.975
21332WAT     H264239   8.103   1.955   2.118
21333WAT      O64240   7.259   4.038   2.921
21333WAT     H164241   7.166   4.020   2.953
21333WAT     H264242   7.292   3.960   2.868
21334WAT      O64243   9.543   1.290   9.584
21334WAT     H164244   9.603   1.321   9.658
21334WAT     H264245   9.594   1.287   9.498
21335WAT      O64246   8.817   1.750   1.981
21335WAT     H164247   8.762   1.670   2.001
21335WAT     H264248   8.878   1.731   1.904
21336WAT      O64249   7.851   8.994   8.819
21336WAT     H164250   7.851   9.076   8.875
21336WAT     H264251   7.772   8.937   8.842
21337WAT      O64252   1.140   0.347   1.258
21337WAT     H164253   1.064   0.400   1.219
21337WAT     H264254   1.219   0.353   1.197
21338WAT      O64255   3.949   3.152   9.423
21338WAT     H164256   3.911   3.185   9.336
21338WAT     H264257   4.017   3.081   9.403
21339WAT      O64258   2.684   4.464   2.422
21339WAT     H164259   2.616   4.392   2.412
21339WAT     H264260   2.670   4.510   2.510
21340WAT      O64261   2.370   1.664   9.769
21340WAT     H164262   2.403   1.758   9.763
21340WAT     H264263   2.315   1.653   9.852
21341WAT      O64264   9.395   4.543   6.406
21341WAT     H164265   9.344   4.480   6.348
21341WAT     H264266   9.493   4.524   6.397
21342WAT      O64267   5.438   7.127   2.593
21342WAT     H164268   5.531   7.145   2.625
21342WAT     H264269   5.419   7.029   2.597
21343WAT      O64270   0.731   1.520   5.387
21343WAT     H164271   0.658   1.508   5.455
21343WAT     H264272   0.813   1.474   5.419
21344WAT      O64273   5.152   2.427   7.452
21344WAT     H164274   5.191   2.495   7.390
21344WAT     H264275   5.224   2.367   7.487
21345WAT      O64276   0.583   1.887   2.714
21345WAT     H164277   0.586   1.789   2.695
21345WAT     H264278   0.670   1.916   2.753
21346WAT      O64279   7.735   5.797   5.568
21346WAT     H164280   7.821   5.792   5.619
21346WAT     H264281   7.662   5.827   5.630
21347WAT      O64282   7.622   6.299   1.757
21347WAT     H164283   7.656   6.392   1.743
21347WAT     H264284   7.647   6.243   1.678
21348WAT      O64285   4.322   4.899   3.111
21348WAT     H164286   4.418   4.876   3.127
21348WAT     H264287   4.315   4.957   3.029
21349WAT      O64288   3.545   5.965   2.447
21349WAT     H164289   3.564   6.033   2.377
21349WAT     H264290   3.456   5.983   2.489
21350WAT      O64291   5.896   5.849   0.451
21350WAT     H164292   5.894   5.774   0.517
21350WAT     H264293   5.822   5.837   0.385
21351WAT      O64294   3.358   7.316   3.454
21351WAT     H164295   3.328   7.307   3.549
21351WAT     H264296   3.413   7.399   3.444
21352WAT      O64297   9.389   1.285   8.240
21352WAT     H164298   9.398   1.285   8.140
21352WAT     H264299   9.371   1.378   8.272
21353WAT      O64300   4.770   0.004   1.148
21353WAT     H164301   4.800   0.097   1.166
21353WAT     H264302   4.735  -0.003   1.055
21354WAT      O64303   3.522   0.223   1.919
21354WAT     H164304   3.523   0.285   1.840
21354WAT     H264305   3.486   0.135   1.890
21355WAT      O64306   7.830   7.151   0.942
21355WAT     H164307   7.874   7.067   0.908
21355WAT     H264308   7.759   7.180   0.878
21356WAT      O64309   0.690   3.609   4.732
21356WAT     H164310   0.718   3.575   4.642
21356WAT     H264311   0.591   3.623   4.732
21357WAT      O64312   9.056   2.066   6.538
21357WAT     H164313   9.122   1.995   6.561
21357WAT     H264314   8.963   2.031   6.553
21358WAT      O64315   5.810   9.236   2.825
21358WAT     H164316   5.874   9.162   2.807
21358WAT     H264317   5.798   9.291   2.742
21359WAT      O64318   3.177   4.962   4.619
21359WAT     H164319   3.127   4.875   4.620
21359WAT     H264320   3.215   4.980   4.709
21360WAT      O64321   8.089   9.097   3.619
21360WAT     H164322   8.188   9.092   3.628
21360WAT     H264323   8.047   9.067   3.704
21361WAT      O64324   0.095   7.448   7.010
21361WAT     H164325   0.094   7.547   6.994
21361WAT     H264326   0.099   7.400   6.923
21362WAT      O64327   4.446   1.993   2.092
21362WAT     H164328   4.356   2.035   2.084
21362WAT     H264329   4.504   2.023   2.016
21363WAT      O64330   8.322   5.723   5.477
21363WAT     H164331   8.365   5.717   5.386
21363WAT     H264332   8.276   5.811   5.487
21364WAT      O64333   1.669   3.217   7.809
21364WAT     H164334   1.645   3.310   7.782
21364WAT     H264335   1.624   3.152   7.747
21365WAT      O64336   5.270   9.570   4.232
21365WAT     H164337   5.276   9.667   4.207
21365WAT     H264338   5.195   9.557   4.296
21366WAT      O64339   0.150   1.541   3.406
21366WAT     H164340   0.059   1.580   3.395
21366WAT     H264341   0.192   1.576   3.489
21367WAT      O64342   0.173   1.015   7.982
21367WAT     H164343   0.147   1.004   8.078
21367WAT     H264344   0.273   1.012   7.975
21368WAT      O64345   8.903   0.407   5.926
21368WAT     H164346   8.866   0.346   5.856
21368WAT     H264347   8.990   0.445   5.894
21369WAT      O64348   8.435   4.427   5.589
21369WAT     H164349   8.440   4.517   5.546
21369WAT     H264350   8.513   4.372   5.559
21370WAT      O64351   5.155   1.314   1.078
21370WAT     H164352   5.180   1.390   1.139
21370WAT     H264353   5.233   1.291   1.020
21371WAT      O64354   4.101   5.729   9.373
21371WAT     H164355   4.035   5.775   9.314
21371WAT     H264356   4.121   5.638   9.335
21372WAT      O64357   4.885   6.281   0.737
21372WAT     H164358   4.886   6.381   0.731
21372WAT     H264359   4.796   6.247   0.709
21373WAT      O64360   5.265   6.288   8.940
21373WAT     H164361   5.357   6.262   8.969
21373WAT     H264362   5.253   6.387   8.950
21374WAT      O64363   0.878   2.986   1.920
21374WAT     H164364   0.962   2.960   1.968
21374WAT     H264365   0.800   2.973   1.981
21375WAT      O64366   9.659   6.762   0.801
21375WAT     H164367   9.672   6.699   0.877
21375WAT     H264368   9.698   6.723   0.717
21376WAT      O64369   5.856   9.757   7.400
21376WAT     H164370   5.846   9.712   7.489
21376WAT     H264371   5.938   9.723   7.354
21377WAT      O64372   4.240   8.483   0.207
21377WAT     H164373   4.160   8.480   0.147
21377WAT     H264374   4.211   8.472   0.302
21378WAT      O64375   4.105   9.825   4.415
21378WAT     H164376   4.041   9.815   4.339
21378WAT     H264377   4.192   9.782   4.392
21379WAT      O64378   5.459   0.988   0.249
21379WAT     H164379   5.370   1.006   0.208
21379WAT     H264380   5.449   0.983   0.349
21380WAT      O64381   0.845   1.282   6.674
21380WAT     H164382   0.824   1.186   6.655
21380WAT     H264383   0.889   1.323   6.595
21381WAT      O64384   2.493   8.049   2.831
21381WAT     H164385   2.475   7.951   2.846
21381WAT     H264386   2.558   8.059   2.756
21382WAT      O64387   8.625   7.181   9.057
21382WAT     H164388   8.692   7.223   8.997
21382WAT     H264389   8.597   7.246   9.128
21383WAT      O64390   6.219   9.338   5.375
21383WAT     H164391   6.120   9.323   5.367
21383WAT     H264392   6.267   9.259   5.337
21384WAT      O64393   2.033   3.619   3.539
21384WAT     H164394   1.989   3.547   3.592
21384WAT     H264395   2.000   3.708   3.569
21385WAT      O64396   7.322   3.484   1.957
21385WAT     H164397   7.396   3.476   1.890
21385WAT     H264398   7.235   3.461   1.913
21386WAT      O64399   2.513   9.462   7.494
21386WAT     H164400   2.420   9.472   7.458
21386WAT     H264401   2.522   9.370   7.534
21387WAT      O64402   6.240   7.273   7.022
21387WAT     H164403   6.232   7.313   7.114
21387WAT     H264404   6.314   7.318   6.972
21388WAT      O64405   5.522   7.187   4.008
21388WAT     H164406   5.613   7.204   3.970
21388WAT     H264407   5.518   7.094   4.044
21389WAT      O64408   3.177   1.893   2.044
21389WAT     H164409   3.144   1.896   1.950
21389WAT     H264410   3.126   1.824   2.096
21390WAT      O64411   2.314   2.824   0.561
21390WAT     H164412   2.370   2.744   0.580
21390WAT     H264413   2.217   2.799   0.567
21391WAT      O64414   7.644   2.983   1.197
21391WAT     H164415   7.740   3.009   1.206
21391WAT     H264416   7.634   2.886   1.218
21392WAT      O64417   2.032   6.930   5.328
21392WAT     H164418   2.035   6.900   5.424
21392WAT     H264419   2.073   7.021   5.321
21393WAT      O64420   3.633   8.911   7.801
21393WAT     H164421   3.695   8.852   7.853
21393WAT     H264422   3.665   8.918   7.706
21394WAT      O64423   8.311   7.569   4.546
21394WAT     H164424   8.228   7.529   4.508
21394WAT     H264425   8.303   7.575   4.645
21395WAT      O64426   1.125   3.611   1.405
21395WAT     H164427   1.027   3.589   1.414
21395WAT     H264428   1.139   3.708   1.427
21396WAT      O64429   6.536   7.736   4.787
21396WAT     H164430   6.634   7.724   4.775
21396WAT     H264431   6.512   7.832   4.777
21397WAT      O64432   1.606   3.700   9.307
21397WAT     H164433   1.566   3.706   9.398
21397WAT     H264434   1.696   3.656   9.312
21398WAT      O64435   0.027   0.560   3.681
21398WAT     H164436  -0.018   0.594   3.764
21398WAT     H264437  -0.029   0.488   3.639
21399WAT      O64438   7.976   9.756   3.750
21399WAT     H164439   7.920   9.762   3.832
21399WAT     H264440   7.920   9.773   3.669
21400WAT      O64441   9.309   9.534   2.491
21400WAT     H164442   9.258   9.562   2.410
21400WAT     H264443   9.363   9.611   2.524
21401WAT      O64444   7.887   8.589   5.547
21401WAT     H164445   7.864   8.573   5.451
21401WAT     H264446   7.944   8.513   5.581
21402WAT      O64447   8.951   6.187   3.284
21402WAT     H164448   9.016   6.113   3.264
21402WAT     H264449   8.879   6.153   3.343
21403WAT      O64450   4.013   3.921   9.060
21403WAT     H164451   4.071   3.960   8.988
21403WAT     H264452   4.062   3.921   9.147
21404WAT      O64453   4.235   9.304   1.215
21404WAT     H164454   4.334   9.297   1.204
21404WAT     H264455   4.207   9.249   1.294
21405WAT      O64456   0.314   0.355   3.361
21405WAT     H164457   0.267   0.382   3.445
21405WAT     H264458   0.267   0.394   3.282
21406WAT      O64459   0.115   2.079   3.226
21406WAT     H164460   0.130   1.981   3.211
21406WAT     H264461   0.082   2.121   3.142
21407WAT      O64462   8.305   6.710   3.003
21407WAT     H164463   8.280   6.715   2.906
21407WAT     H264464   8.223   6.722   3.059
21408WAT      O64465   2.252   2.383   4.031
21408WAT     H164466   2.303   2.467   4.013
21408WAT     H264467   2.283   2.343   4.117
21409WAT      O64468   4.142   2.394   0.739
21409WAT     H164469   4.151   2.478   0.686
21409WAT     H264470   4.207   2.395   0.815
21410WAT      O64471   6.689   9.267   5.495
21410WAT     H164472   6.709   9.280   5.398
21410WAT     H264473   6.772   9.234   5.541
21411WAT      O64474   2.716   5.675   4.281
21411WAT     H164475   2.648   5.740   4.316
21411WAT     H264476   2.807   5.717   4.285
21412WAT      O64477   7.658   5.999   3.021
21412WAT     H164478   7.736   6.038   2.972
21412WAT     H264479   7.578   5.998   2.961
21413WAT      O64480   8.199   8.528   6.598
21413WAT     H164481   8.238   8.576   6.676
21413WAT     H264482   8.232   8.570   6.513
21414WAT      O64483   7.354   8.844   8.926
21414WAT     H164484   7.369   8.747   8.905
21414WAT     H264485   7.321   8.852   9.020
21415WAT      O64486   9.869   6.146   4.513
21415WAT     H164487   9.898   6.094   4.433
21415WAT     H264488   9.904   6.240   4.507
21416WAT      O64489   2.246   8.453   8.384
21416WAT     H164490   2.203   8.438   8.295
21416WAT     H264491   2.221   8.380   8.447
21417WAT      O64492   8.127   3.396   0.226
21417WAT     H164493   8.045   3.454   0.233
21417WAT     H264494   8.105   3.315   0.172
21418WAT      O64495   6.980   8.602   3.434
21418WAT     H164496   6.890   8.590   3.476
21418WAT     H264497   7.046   8.631   3.503
21419WAT      O64498   6.480   6.260   3.051
21419WAT     H164499   6.529   6.328   2.996
21419WAT     H264500   6.474   6.292   3.146
21420WAT      O64501   1.018   9.043   1.878
21420WAT     H164502   0.939   9.104   1.871
21420WAT     H264503   1.082   9.079   1.946
21421WAT      O64504   5.299   5.865   7.976
21421WAT     H164505   5.246   5.916   7.908
21421WAT     H264506   5.341   5.785   7.932
21422WAT      O64507   1.709   9.194   2.607
21422WAT     H164508   1.723   9.204   2.706
21422WAT     H264509   1.731   9.281   2.562
21423WAT      O64510   1.704   2.750   1.862
21423WAT     H164511   1.606   2.747   1.881
21423WAT     H264512   1.729   2.843   1.835
21424WAT      O64513   9.273   7.459   1.855
21424WAT     H164514   9.338   7.481   1.928
21424WAT     H264515   9.242   7.543   1.811
21425WAT      O64516   1.928   0.375   8.668
21425WAT     H164517   1.891   0.283   8.650
21425WAT     H264518   1.872   0.420   8.737
21426WAT      O64519   3.354   6.742   0.386
21426WAT     H164520   3.438   6.748   0.441
21426WAT     H264521   3.279   6.784   0.435
21427WAT      O64522   3.087   4.455   3.223
21427WAT     H164523   3.118   4.361   3.236
21427WAT     H264524   3.116   4.488   3.133
21428WAT      O64525   4.534   5.427   9.537
21428WAT     H164526   4.575   5.336   9.538
21428WAT     H264527   4.531   5.461   9.444
21429WAT      O64528   4.179   9.736   9.150
21429WAT     H164529   4.206   9.827   9.119
21429WAT     H264530   4.079   9.728   9.145
21430WAT      O64531   4.100   1.419   6.125
21430WAT     H164532   4.023   1.375   6.078
21430WAT     H264533   4.065   1.480   6.196
21431WAT      O64534   7.165   6.300   1.789
21431WAT     H164535   7.188   6.252   1.874
21431WAT     H264536   7.139   6.394   1.810
21432WAT      O64537   2.895   8.910   2.789
21432WAT     H164538   2.966   8.943   2.851
21432WAT     H264539   2.898   8.963   2.704
21433WAT      O64540   2.330   3.720   7.295
21433WAT     H164541   2.399   3.787   7.325
21433WAT     H264542   2.281   3.685   7.375
21434WAT      O64543   1.159   1.176   3.191
21434WAT     H164544   1.212   1.224   3.122
21434WAT     H264545   1.063   1.174   3.163
21435WAT      O64546   6.534   6.348   9.157
21435WAT     H164547   6.630   6.346   9.127
21435WAT     H264548   6.525   6.410   9.235
21436WAT      O64549   4.398   8.620   3.582
21436WAT     H164550   4.476   8.634   3.643
21436WAT     H264551   4.327   8.569   3.630
21437WAT      O64552   3.196   6.026   6.693
21437WAT     H164553   3.123   6.086   6.724
21437WAT     H264554   3.235   6.062   6.607
21438WAT      O64555   4.131   2.704   7.691
21438WAT     H164556   4.084   2.623   7.656
21438WAT     H264557   4.064   2.765   7.733
21439WAT      O64558   7.142   8.087   7.011
21439WAT     H164559   7.232   8.090   7.054
21439WAT     H264560   7.152   8.096   6.912
21440WAT      O64561   0.263   6.551   0.674
21440WAT     H164562   0.172   6.516   0.697
21440WAT     H264563   0.308   6.487   0.611
21441WAT      O64564   3.750   1.539   8.946
21441WAT     H164565   3.652   1.540   8.963
21441WAT     H264566   3.772   1.462   8.886
21442WAT      O64567   2.129   7.879   5.887
21442WAT     H164568   2.175   7.793   5.910
21442WAT     H264569   2.047   7.888   5.943
21443WAT      O64570   4.225   3.971   2.915
21443WAT     H164571   4.281   4.045   2.953
21443WAT     H264572   4.131   3.980   2.949
21444WAT      O64573   4.933   6.109   3.555
21444WAT     H164574   4.933   6.138   3.459
21444WAT     H264575   4.840   6.085   3.583
21445WAT      O64576   3.002   1.938   4.192
21445WAT     H164577   2.911   1.970   4.169
21445WAT     H264578   3.005   1.912   4.289
21446WAT      O64579   4.218   4.893   0.934
21446WAT     H164580   4.166   4.809   0.946
21446WAT     H264581   4.160   4.972   0.957
21447WAT      O64582   7.279   4.506   3.036
21447WAT     H164583   7.239   4.417   3.016
21447WAT     H264584   7.208   4.576   3.035
21448WAT      O64585   5.772   4.494   1.352
21448WAT     H164586   5.700   4.426   1.338
21448WAT     H264587   5.732   4.583   1.374
21449WAT      O64588   0.012   6.478   8.608
21449WAT     H164589   0.050   6.545   8.671
21449WAT     H264590  -0.032   6.405   8.660
21450WAT      O64591   5.252   0.059   5.006
21450WAT     H164592   5.219   0.083   5.098
21450WAT     H264593   5.224  -0.035   4.984
21451WAT      O64594   1.013   6.953   8.639
21451WAT     H164595   1.100   7.002   8.648
21451WAT     H264596   0.992   6.906   8.724
21452WAT      O64597   6.314   6.372   4.691
21452WAT     H164598   6.244   6.442   4.681
21452WAT     H264599   6.383   6.383   4.619
21453WAT      O64600   2.141   3.431   9.386
21453WAT     H164601   2.155   3.333   9.384
21453WAT     H264602   2.102   3.461   9.299
21454WAT      O64603   0.439   3.941   2.818
21454WAT     H164604   0.375   4.018   2.823
21454WAT     H264605   0.532   3.975   2.832
21455WAT      O64606   3.089   0.642   2.468
21455WAT     H164607   3.022   0.574   2.497
21455WAT     H264608   3.096   0.641   2.368
21456WAT      O64609   5.407   1.487   3.275
21456WAT     H164610   5.349   1.502   3.196
21456WAT     H264611   5.354   1.443   3.348
21457WAT      O64612   7.807   6.588   3.008
21457WAT     H164613   7.889   6.553   3.053
21457WAT     H264614   7.778   6.523   2.938
21458WAT      O64615   3.161   3.440   7.223
21458WAT     H164616   3.199   3.504   7.156
21458WAT     H264617   3.062   3.449   7.225
21459WAT      O64618   3.796   3.711   7.797
21459WAT     H164619   3.735   3.787   7.772
21459WAT     H264620   3.863   3.743   7.864
21460WAT      O64621   6.512   2.177   0.456
21460WAT     H164622   6.429   2.192   0.404
21460WAT     H264623   6.488   2.152   0.550
21461WAT      O64624   8.579   8.956   7.552
21461WAT     H164625   8.674   8.979   7.573
21461WAT     H264626   8.574   8.861   7.522
21462WAT      O64627   3.840   7.930   8.958
21462WAT     H164628   3.777   7.987   8.906
21462WAT     H264629   3.866   7.850   8.903
21463WAT      O64630   3.835   2.110   4.907
21463WAT     H164631   3.803   2.202   4.933
21463WAT     H264632   3.915   2.118   4.849
21464WAT      O64633   6.404   1.054   7.185
21464WAT     H164634   6.495   1.023   7.215
21464WAT     H264635   6.348   1.075   7.265
21465WAT      O64636   2.371   4.466   1.905
21465WAT     H164637   2.428   4.481   1.986
21465WAT     H264638   2.306   4.393   1.923
21466WAT      O64639   7.638   3.808   9.775
21466WAT     H164640   7.547   3.841   9.798
21466WAT     H264641   7.650   3.810   9.676
21467WAT      O64642   2.247   7.029   0.016
21467WAT     H164643   2.189   7.104   0.050
21467WAT     H264644   2.242   7.026  -0.083
21468WAT      O64645   7.952   3.236   7.999
21468WAT     H164646   7.876   3.177   8.028
21468WAT     H264647   8.035   3.181   7.992
21469WAT      O64648   8.401   2.398   4.930
21469WAT     H164649   8.317   2.344   4.919
21469WAT     H264650   8.413   2.421   5.026
21470WAT      O64651   4.210   3.206   3.436
21470WAT     H164652   4.221   3.112   3.468
21470WAT     H264653   4.143   3.209   3.363
21471WAT      O64654   8.519   4.539   4.302
21471WAT     H164655   8.559   4.560   4.392
21471WAT     H264656   8.466   4.455   4.308
21472WAT      O64657   5.452   3.843   5.634
21472WAT     H164658   5.540   3.807   5.665
21472WAT     H264659   5.397   3.870   5.713
21473WAT      O64660   8.155   5.146   0.256
21473WAT     H164661   8.120   5.059   0.222
21473WAT     H264662   8.211   5.131   0.337
21474WAT      O64663   8.460   1.005   5.488
21474WAT     H164664   8.423   1.015   5.580
21474WAT     H264665   8.458   0.908   5.463
21475WAT      O64666   6.222   0.655   7.289
21475WAT     H164667   6.310   0.697   7.314
21475WAT     H264668   6.174   0.626   7.372
21476WAT      O64669   0.624   2.271   5.586
21476WAT     H164670   0.681   2.353   5.587
21476WAT     H264671   0.597   2.247   5.679
21477WAT      O64672   0.596   1.206   9.712
21477WAT     H164673   0.679   1.212   9.656
21477WAT     H264674   0.595   1.119   9.760
21478WAT      O64675   2.215   5.535   8.116
21478WAT     H164676   2.189   5.561   8.023
21478WAT     H264677   2.170   5.449   8.140
21479WAT      O64678   7.100   4.311   4.291
21479WAT     H164679   7.195   4.317   4.322
21479WAT     H264680   7.072   4.215   4.288
21480WAT      O64681   7.490   7.479   4.364
21480WAT     H164682   7.491   7.577   4.343
21480WAT     H264683   7.473   7.428   4.280
21481WAT      O64684   9.269   4.205   0.606
21481WAT     H164685   9.359   4.217   0.564
21481WAT     H264686   9.280   4.190   0.705
21482WAT      O64687   3.149   7.837   4.900
21482WAT     H164688   3.112   7.757   4.947
21482WAT     H264689   3.175   7.906   4.967
21483WAT      O64690   0.854   3.955   6.597
21483WAT     H164691   0.802   4.006   6.529
21483WAT     H264692   0.840   3.996   6.687
21484WAT      O64693   9.836   2.551   7.153
21484WAT     H164694   9.764   2.607   7.192
21484WAT     H264695   9.826   2.548   7.053
21485WAT      O64696   5.857   0.371   9.362
21485WAT     H164697   5.929   0.310   9.395
21485WAT     H264698   5.898   0.450   9.315
21486WAT      O64699   8.953   9.175   2.171
21486WAT     H164700   8.972   9.139   2.262
21486WAT     H264701   8.872   9.131   2.134
21487WAT      O64702   1.286   5.685   7.253
21487WAT     H164703   1.361   5.746   7.278
21487WAT     H264704   1.309   5.591   7.278
21488WAT      O64705   9.574   5.791   8.722
21488WAT     H164706   9.538   5.876   8.760
21488WAT     H264707   9.669   5.805   8.693
21489WAT      O64708   8.432   4.063   3.593
21489WAT     H164709   8.503   4.070   3.663
21489WAT     H264710   8.371   3.987   3.615
21490WAT      O64711   0.795   8.958   3.801
21490WAT     H164712   0.731   8.882   3.814
21490WAT     H264713   0.743   9.043   3.791
21491WAT      O64714   2.052   3.377   2.182
21491WAT     H164715   2.137   3.329   2.161
21491WAT     H264716   2.037   3.376   2.281
21492WAT      O64717   5.825   6.780   6.628
21492WAT     H164718   5.731   6.774   6.661
21492WAT     H264719   5.827   6.833   6.543
21493WAT      O64720   8.493   5.610   1.631
21493WAT     H164721   8.533   5.548   1.564
21493WAT     H264722   8.523   5.703   1.613
21494WAT      O64723   5.566   2.095   8.292
21494WAT     H164724   5.571   2.179   8.238
21494WAT     H264725   5.471   2.062   8.293
21495WAT      O64726   6.137   1.798   6.895
21495WAT     H164727   6.150   1.703   6.867
21495WAT     H264728   6.039   1.815   6.911
21496WAT      O64729   7.285   1.288   7.693
21496WAT     H164730   7.186   1.277   7.705
21496WAT     H264731   7.312   1.250   7.605
21497WAT      O64732   0.560   7.630   4.137
21497WAT     H164733   0.469   7.589   4.146
21497WAT     H264734   0.622   7.561   4.099
21498WAT      O64735   3.646   6.873   8.873
21498WAT     H164736   3.631   6.805   8.946
21498WAT     H264737   3.566   6.876   8.813
21499WAT      O64738   6.715   6.109   0.190
21499WAT     H164739   6.620   6.083   0.208
21499WAT     H264740   6.773   6.071   0.262
21500WAT      O64741   4.117   7.764   5.076
21500WAT     H164742   4.087   7.668   5.070
21500WAT     H264743   4.077   7.805   5.158
21501WAT      O64744   5.428   2.794   0.267
21501WAT     H164745   5.429   2.698   0.294
21501WAT     H264746   5.427   2.800   0.167
21502WAT      O64747   1.481   8.269   8.340
21502WAT     H164748   1.496   8.365   8.362
21502WAT     H264749   1.568   8.219   8.346
21503WAT      O64750   7.256   0.634   4.729
21503WAT     H164751   7.216   0.667   4.814
21503WAT     H264752   7.272   0.535   4.736
21504WAT      O64753   2.530   3.857   7.434
21504WAT     H164754   2.557   3.809   7.517
21504WAT     H264755   2.512   3.953   7.455
21505WAT      O64756   7.269   1.497   8.837
21505WAT     H164757   7.290   1.449   8.752
21505WAT     H264758   7.347   1.552   8.865
21506WAT      O64759   7.920   6.158   3.558
21506WAT     H164760   8.015   6.153   3.529
21506WAT     H264761   7.882   6.065   3.562
21507WAT      O64762   7.381   7.547   4.636
21507WAT     H164763   7.318   7.495   4.579
21507WAT     H264764   7.463   7.570   4.584
21508WAT      O64765   5.998   4.448   2.592
21508WAT     H164766   6.028   4.429   2.685
21508WAT     H264767   6.008   4.365   2.536
21509WAT      O64768   4.351   0.438   5.644
21509WAT     H164769   4.296   0.407   5.567
21509WAT     H264770   4.389   0.358   5.692
21510WAT      O64771   2.016   2.172   8.667
21510WAT     H164772   2.087   2.113   8.706
21510WAT     H264773   1.926   2.140   8.695
21511WAT      O64774   5.713   9.096   6.034
21511WAT     H164775   5.631   9.047   6.005
21511WAT     H264776   5.792   9.035   6.028
21512WAT      O64777   4.153   5.343   0.476
21512WAT     H164778   4.190   5.270   0.418
21512WAT     H264779   4.193   5.431   0.448
21513WAT      O64780   8.929   2.153   1.843
21513WAT     H164781   8.836   2.126   1.865
21513WAT     H264782   8.993   2.091   1.888
21514WAT      O64783   1.808   4.340   3.343
21514WAT     H164784   1.759   4.426   3.331
21514WAT     H264785   1.743   4.264   3.341
21515WAT      O64786   8.030   5.679   0.331
21515WAT     H164787   7.983   5.592   0.317
21515WAT     H264788   7.968   5.743   0.376
21516WAT      O64789   9.724   5.893   6.021
21516WAT     H164790   9.813   5.935   6.002
21516WAT     H264791   9.723   5.859   6.115
21517WAT      O64792   0.093   3.595   6.587
21517WAT     H164793   0.167   3.626   6.527
21517WAT     H264794   0.067   3.502   6.562
21518WAT      O64795   1.977   3.027   1.723
21518WAT     H164796   1.893   3.069   1.757
21518WAT     H264797   2.036   3.097   1.685
21519WAT      O64798   5.199   7.623   3.166
21519WAT     H164799   5.182   7.698   3.101
21519WAT     H264800   5.114   7.602   3.215
21520WAT      O64801   6.959   2.073   6.399
21520WAT     H164802   6.884   2.137   6.385
21520WAT     H264803   6.962   2.046   6.496
21521WAT      O64804   4.484   2.093   8.686
21521WAT     H164805   4.570   2.058   8.722
21521WAT     H264806   4.493   2.110   8.588
21522WAT      O64807   2.303   2.280   7.348
21522WAT     H164808   2.279   2.363   7.400
21522WAT     H264809   2.401   2.282   7.327
21523WAT      O64810   3.762   9.174   7.447
21523WAT     H164811   3.818   9.227   7.383
21523WAT     H264812   3.672   9.157   7.406
21524WAT      O64813   0.406   0.113   3.319
21524WAT     H164814   0.357   0.199   3.336
21524WAT     H264815   0.402   0.091   3.222
21525WAT      O64816   1.696   9.316   4.838
21525WAT     H164817   1.708   9.413   4.819
21525WAT     H264818   1.599   9.293   4.829
21526WAT      O64819   5.744   2.407   2.955
21526WAT     H164820   5.781   2.320   2.986
21526WAT     H264821   5.819   2.472   2.940
21527WAT      O64822   1.417   5.370   6.483
21527WAT     H164823   1.464   5.427   6.416
21527WAT     H264824   1.318   5.371   6.464
21528WAT      O64825   1.793   4.643   9.572
21528WAT     H164826   1.775   4.546   9.558
21528WAT     H264827   1.708   4.690   9.594
21529WAT      O64828   8.372   2.048   0.391
21529WAT     H164829   8.467   2.028   0.368
21529WAT     H264830   8.333   1.970   0.440
21530WAT      O64831   7.135   6.620   2.483
21530WAT     H164832   7.114   6.639   2.387
21530WAT     H264833   7.211   6.678   2.512
21531WAT      O64834   5.691   3.411   3.087
21531WAT     H164835   5.621   3.376   3.024
21531WAT     H264836   5.733   3.493   3.047
21532WAT      O64837   4.741   1.137   7.392
21532WAT     H164838   4.680   1.203   7.349
21532WAT     H264839   4.769   1.171   7.482
21533WAT      O64840   6.793   3.859   4.296
21533WAT     H164841   6.841   3.830   4.379
21533WAT     H264842   6.694   3.850   4.311
21534WAT      O64843   7.495   8.247   0.129
21534WAT     H164844   7.514   8.167   0.186
21534WAT     H264845   7.397   8.251   0.110
21535WAT      O64846   5.490   2.897   4.101
21535WAT     H164847   5.530   2.841   4.173
21535WAT     H264848   5.538   2.880   4.015
21536WAT      O64849   0.473   7.083   4.199
21536WAT     H164850   0.507   7.177   4.196
21536WAT     H264851   0.406   7.074   4.271
21537WAT      O64852   2.937   4.834   3.973
21537WAT     H164853   2.912   4.891   4.052
21537WAT     H264854   3.023   4.787   3.993
21538WAT      O64855   5.212   6.868   7.110
21538WAT     H164856   5.255   6.943   7.161
21538WAT     H264857   5.231   6.880   7.012
21539WAT      O64858   9.306   1.018   0.605
21539WAT     H164859   9.404   1.026   0.584
21539WAT     H264860   9.291   0.936   0.661
21540WAT      O64861   3.684   9.663   8.233
21540WAT     H164862   3.621   9.629   8.163
21540WAT     H264863   3.634   9.676   8.319
21541WAT      O64864   2.977   1.586   1.740
21541WAT     H164865   3.039   1.599   1.662
21541WAT     H264866   2.893   1.637   1.725
21542WAT      O64867   3.795   3.903   5.741
21542WAT     H164868   3.856   3.975   5.708
21542WAT     H264869   3.799   3.899   5.841
21543WAT      O64870   7.171   6.616   4.401
21543WAT     H164871   7.248   6.581   4.453
21543WAT     H264872   7.116   6.676   4.459
21544WAT      O64873   7.733   7.172   2.528
21544WAT     H164874   7.833   7.173   2.537
21544WAT     H264875   7.706   7.234   2.454
21545WAT      O64876   4.689   7.346   2.513
21545WAT     H164877   4.700   7.336   2.414
21545WAT     H264878   4.597   7.379   2.533
21546WAT      O64879   3.181   6.241   4.800
21546WAT     H164880   3.121   6.210   4.726
21546WAT     H264881   3.237   6.317   4.768
21547WAT      O64882   7.179   9.071   3.361
21547WAT     H164883   7.183   9.033   3.269
21547WAT     H264884   7.216   9.005   3.426
21548WAT      O64885   8.322   7.129   7.178
21548WAT     H164886   8.322   7.031   7.157
21548WAT     H264887   8.242   7.172   7.136
21549WAT      O64888   6.826   6.703   4.286
21549WAT     H164889   6.738   6.736   4.321
21549WAT     H264890   6.862   6.634   4.347
21550WAT      O64891   7.280   7.057   2.485
21550WAT     H164892   7.250   7.046   2.391
21550WAT     H264893   7.376   7.028   2.493
21551WAT      O64894   0.583   0.612   1.550
21551WAT     H164895   0.485   0.611   1.571
21551WAT     H264896   0.635   0.619   1.635
21552WAT      O64897   5.724   3.644   1.227
21552WAT     H164898   5.799   3.657   1.162
21552WAT     H264899   5.759   3.649   1.321
21553WAT      O64900   7.582   5.649   7.184
21553WAT     H164901   7.596   5.669   7.088
21553WAT     H264902   7.487   5.669   7.209
21554WAT      O64903   5.641   2.892   3.856
21554WAT     H164904   5.658   2.797   3.832
21554WAT     H264905   5.633   2.946   3.772
21555WAT      O64906   1.173   9.430   1.476
21555WAT     H164907   1.193   9.527   1.491
21555WAT     H264908   1.259   9.379   1.475
21556WAT      O64909   4.099   7.505   2.901
21556WAT     H164910   4.134   7.598   2.911
21556WAT     H264911   4.027   7.489   2.969
21557WAT      O64912   2.880   9.425   2.277
21557WAT     H164913   2.943   9.475   2.337
21557WAT     H264914   2.852   9.485   2.201
21558WAT      O64915   7.804   3.192   5.530
21558WAT     H164916   7.715   3.163   5.494
21558WAT     H264917   7.864   3.216   5.454
21559WAT      O64918   5.760   0.789   9.123
21559WAT     H164919   5.684   0.853   9.112
21559WAT     H264920   5.724   0.696   9.126
21560WAT      O64921   6.575   1.374   0.114
21560WAT     H164922   6.561   1.301   0.180
21560WAT     H264923   6.487   1.414   0.090
21561WAT      O64924   6.655   4.178   3.228
21561WAT     H164925   6.603   4.169   3.312
21561WAT     H264926   6.674   4.087   3.191
21562WAT      O64927   5.578   6.566   6.291
21562WAT     H164928   5.662   6.513   6.276
21562WAT     H264929   5.571   6.638   6.222
21563WAT      O64930   7.681   8.423   8.128
21563WAT     H164931   7.597   8.370   8.137
21563WAT     H264932   7.659   8.520   8.115
21564WAT      O64933   4.988   6.214   6.122
21564WAT     H164934   5.054   6.208   6.197
21564WAT     H264935   4.909   6.156   6.143
21565WAT      O64936   7.819   7.945   5.818
21565WAT     H164937   7.883   7.887   5.767
21565WAT     H264938   7.730   7.900   5.822
21566WAT      O64939   5.921   8.693   8.410
21566WAT     H164940   5.887   8.786   8.415
21566WAT     H264941   5.862   8.633   8.464
21567WAT      O64942   1.588   6.107   1.769
21567WAT     H164943   1.598   6.206   1.759
21567WAT     H264944   1.535   6.071   1.692
21568WAT      O64945   2.068   3.020   2.380
21568WAT     H164946   2.155   3.055   2.417
21568WAT     H264947   2.085   2.937   2.328
21569WAT      O64948   3.041   8.683   4.159
21569WAT     H164949   3.034   8.598   4.108
21569WAT     H264950   3.053   8.760   4.095
21570WAT      O64951   8.641   2.079   2.286
21570WAT     H164952   8.706   2.119   2.221
21570WAT     H264953   8.691   2.031   2.358
21571WAT      O64954   1.953   9.511   9.029
21571WAT     H164955   1.939   9.438   8.962
21571WAT     H264956   2.025   9.572   8.998
21572WAT      O64957   0.430   4.699   5.759
21572WAT     H164958   0.445   4.604   5.734
21572WAT     H264959   0.346   4.707   5.813
21573WAT      O64960   0.769   5.916   8.068
21573WAT     H164961   0.698   5.953   8.008
21573WAT     H264962   0.734   5.837   8.118
21574WAT      O64963   8.332   0.399   0.617
21574WAT     H164964   8.310   0.456   0.696
21574WAT     H264965   8.397   0.447   0.558
21575WAT      O64966   1.412   4.136   4.865
21575WAT     H164967   1.384   4.066   4.800
21575WAT     H264968   1.500   4.111   4.905
21576WAT      O64969   2.157   3.602   6.873
21576WAT     H164970   2.161   3.669   6.947
21576WAT     H264971   2.229   3.534   6.885
21577WAT      O64972   7.484   1.029   5.492
21577WAT     H164973   7.536   1.114   5.484
21577WAT     H264974   7.393   1.049   5.529
21578WAT      O64975   1.154   1.171   5.229
21578WAT     H164976   1.253   1.179   5.227
21578WAT     H264977   1.127   1.108   5.302
21579WAT      O64978   4.701   9.694   9.879
21579WAT     H164979   4.796   9.704   9.851
21579WAT     H264980   4.667   9.781   9.915
21580WAT      O64981   5.656   0.375   8.927
21580WAT     H164982   5.749   0.412   8.933
21580WAT     H264983   5.656   0.291   8.873
21581WAT      O64984   5.561   7.864   6.142
21581WAT     H164985   5.575   7.799   6.068
21581WAT     H264986   5.480   7.838   6.195
21582WAT      O64987   3.065   8.529   4.803
21582WAT     H164988   3.143   8.578   4.842
21582WAT     H264989   3.012   8.592   4.745
21583WAT      O64990   5.943   6.642   3.579
21583WAT     H164991   5.889   6.666   3.660
21583WAT     H264992   6.013   6.575   3.603
21584WAT      O64993   1.442   5.082   6.158
21584WAT     H164994   1.389   5.001   6.135
21584WAT     H264995   1.482   5.072   6.249
21585WAT      O64996   8.721   6.427   0.505
21585WAT     H164997   8.648   6.492   0.523
21585WAT     H264998   8.716   6.352   0.570
21586WAT      O64999   6.641   9.733   9.593
21586WAT     H165000   6.728   9.778   9.572
21586WAT     H265001   6.629   9.729   9.692
21587WAT      O65002   5.212   3.960   9.162
21587WAT     H165003   5.188   3.999   9.251
21587WAT     H265004   5.187   3.863   9.161
21588WAT      O65005   4.932   1.847   3.275
21588WAT     H165006   5.001   1.817   3.209
21588WAT     H265007   4.950   1.803   3.363
21589WAT      O65008   8.028   8.017   4.909
21589WAT     H165009   8.024   7.917   4.915
21589WAT     H265010   8.122   8.047   4.925
21590WAT      O65011   6.489   8.967   7.031
21590WAT     H165012   6.489   8.917   6.944
21590WAT     H265013   6.488   8.901   7.107
21591WAT      O65014   7.953   0.303   0.538
21591WAT     H165015   7.979   0.318   0.634
21591WAT     H265016   8.011   0.232   0.499
21592WAT      O65017   7.800   4.664   3.442
21592WAT     H165018   7.855   4.745   3.460
21592WAT     H265019   7.860   4.588   3.418
21593WAT      O65020   8.173   7.222   1.243
21593WAT     H165021   8.122   7.136   1.232
21593WAT     H265022   8.218   7.244   1.157
21594WAT      O65023   5.456   9.303   5.262
21594WAT     H165024   5.540   9.287   5.210
21594WAT     H265025   5.427   9.398   5.249
21595WAT      O65026   0.196   8.153   9.833
21595WAT     H165027   0.188   8.251   9.819
21595WAT     H265028   0.198   8.106   9.745
21596WAT      O65029   5.431   9.586   7.019
21596WAT     H165030   5.481   9.669   6.996
21596WAT     H265031   5.349   9.580   6.962
21597WAT      O65032   0.530   5.704   0.758
21597WAT     H165033   0.560   5.627   0.702
21597WAT     H265034   0.581   5.704   0.844
21598WAT      O65035   4.834   8.224   0.184
21598WAT     H165036   4.880   8.150   0.234
21598WAT     H265037   4.751   8.250   0.233
21599WAT      O65038   3.498   0.279   7.967
21599WAT     H165039   3.582   0.295   8.019
21599WAT     H265040   3.419   0.283   8.029
21600WAT      O65041   5.090   7.503   5.394
21600WAT     H165042   5.037   7.470   5.315
21600WAT     H265043   5.038   7.575   5.441
21601WAT      O65044   4.257   4.246   5.335
21601WAT     H165045   4.352   4.217   5.325
21601WAT     H265046   4.199   4.195   5.272
21602WAT      O65047   0.158   9.349   5.310
21602WAT     H165048   0.127   9.264   5.352
21602WAT     H265049   0.254   9.365   5.335
21603WAT      O65050   8.803   6.951   5.708
21603WAT     H165051   8.890   6.994   5.688
21603WAT     H265052   8.818   6.854   5.727
21604WAT      O65053   6.714   0.919   2.084
21604WAT     H165054   6.720   0.819   2.076
21604WAT     H265055   6.752   0.947   2.172
21605WAT      O65056   8.453   3.671   0.548
21605WAT     H165057   8.421   3.723   0.468
21605WAT     H265058   8.393   3.689   0.626
21606WAT      O65059   5.268   2.828   6.326
21606WAT     H165060   5.289   2.844   6.230
21606WAT     H265061   5.180   2.782   6.334
21607WAT      O65062   6.452   0.738   7.396
21607WAT     H165063   6.468   0.801   7.472
21607WAT     H265064   6.540   0.713   7.355
21608WAT      O65065   1.745   2.706   9.674
21608WAT     H165066   1.783   2.638   9.611
21608WAT     H265067   1.710   2.784   9.622
21609WAT      O65068   9.753   7.726   3.268
21609WAT     H165069   9.723   7.645   3.217
21609WAT     H265070   9.730   7.715   3.365
21610WAT      O65071   3.915   5.435   1.309
21610WAT     H165072   3.999   5.449   1.361
21610WAT     H265073   3.866   5.521   1.301
21611WAT      O65074   6.963   1.901   5.364
21611WAT     H165075   6.996   1.965   5.434
21611WAT     H265076   6.868   1.922   5.343
21612WAT      O65077   4.971   8.373   2.136
21612WAT     H165078   5.022   8.453   2.167
21612WAT     H265079   4.891   8.403   2.084
21613WAT      O65080   6.214   6.122   0.237
21613WAT     H165081   6.191   6.135   0.141
21613WAT     H265082   6.199   6.208   0.287
21614WAT      O65083   4.017   9.559   3.527
21614WAT     H165084   3.919   9.568   3.549
21614WAT     H265085   4.033   9.595   3.435
21615WAT      O65086   2.301   2.920   4.323
21615WAT     H165087   2.236   2.871   4.381
21615WAT     H265088   2.383   2.941   4.376
21616WAT      O65089   9.263   6.668   6.051
21616WAT     H165090   9.231   6.582   6.012
21616WAT     H265091   9.192   6.705   6.111
21617WAT      O65092   8.850   0.303   6.173
21617WAT     H165093   8.873   0.368   6.101
21617WAT     H265094   8.931   0.248   6.196
21618WAT      O65095   5.166   1.098   7.412
21618WAT     H165096   5.114   1.105   7.497
21618WAT     H265097   5.117   1.146   7.339
21619WAT      O65098   3.157   0.791   3.564
21619WAT     H165099   3.101   0.709   3.562
21619WAT     H265100   3.099   0.870   3.586
21620WAT      O65101   1.716   9.446   5.654
21620WAT     H165102   1.667   9.442   5.568
21620WAT     H265103   1.667   9.393   5.724
21621WAT      O65104   7.588   9.072   3.471
21621WAT     H165105   7.626   9.115   3.389
21621WAT     H265106   7.658   9.015   3.514
21622WAT      O65107   3.373   3.438   0.829
21622WAT     H165108   3.335   3.480   0.911
21622WAT     H265109   3.358   3.498   0.751
21623WAT      O65110   7.822   0.809   7.691
21623WAT     H165111   7.915   0.776   7.702
21623WAT     H265112   7.760   0.732   7.677
21624WAT      O65113   9.343   8.291   7.317
21624WAT     H165114   9.267   8.300   7.382
21624WAT     H265115   9.362   8.195   7.300
21625WAT      O65116   6.183   9.163   8.666
21625WAT     H165117   6.174   9.262   8.683
21625WAT     H265118   6.229   9.120   8.743
21626WAT      O65119   1.539   3.663   8.945
21626WAT     H165120   1.594   3.654   8.862
21626WAT     H265121   1.577   3.734   9.004
21627WAT      O65122   1.589   0.634   8.165
21627WAT     H165123   1.606   0.543   8.129
21627WAT     H265124   1.663   0.696   8.138
21628WAT      O65125   0.593   5.982   0.214
21628WAT     H165126   0.692   5.978   0.203
21628WAT     H265127   0.566   5.925   0.292
21629WAT      O65128   7.629   6.412   0.934
21629WAT     H165129   7.683   6.473   0.992
21629WAT     H265130   7.554   6.465   0.892
21630WAT      O65131   1.787   4.418   4.452
21630WAT     H165132   1.734   4.392   4.533
21630WAT     H265133   1.865   4.475   4.480
21631WAT      O65134   1.778   8.354   9.547
21631WAT     H165135   1.848   8.424   9.562
21631WAT     H265136   1.694   8.380   9.593
21632WAT      O65137   6.538   4.146   2.832
21632WAT     H165138   6.596   4.070   2.860
21632WAT     H265139   6.528   4.145   2.733
21633WAT      O65140   2.695   1.536   9.584
21633WAT     H165141   2.603   1.545   9.545
21633WAT     H265142   2.749   1.474   9.526
21634WAT      O65143   0.737   5.810   5.196
21634WAT     H165144   0.795   5.837   5.119
21634WAT     H265145   0.683   5.888   5.227
21635WAT      O65146   6.844   8.012   1.624
21635WAT     H165147   6.763   7.957   1.603
21635WAT     H265148   6.850   8.026   1.723
21636WAT      O65149   2.002   0.178   4.157
21636WAT     H165150   1.960   0.268   4.164
21636WAT     H265151   1.932   0.107   4.172
21637WAT      O65152   3.640   4.266   6.639
21637WAT     H165153   3.618   4.193   6.574
21637WAT     H265154   3.590   4.349   6.614
21638WAT      O65155   1.179   6.427   7.413
21638WAT     H165156   1.115   6.370   7.362
21638WAT     H265157   1.233   6.370   7.475
21639WAT      O65158   2.937   5.366   1.239
21639WAT     H165159   2.957   5.325   1.150
21639WAT     H265160   2.922   5.294   1.306
21640WAT      O65161   1.291   8.057   4.382
21640WAT     H165162   1.302   8.017   4.473
21640WAT     H265163   1.247   8.146   4.389
21641WAT      O65164   0.143   3.311   4.692
21641WAT     H165165   0.233   3.292   4.654
21641WAT     H265166   0.119   3.239   4.757
21642WAT      O65167   6.058   5.162   8.563
21642WAT     H165168   6.153   5.173   8.591
21642WAT     H265169   6.041   5.217   8.481
21643WAT      O65170   6.835   7.226   3.980
21643WAT     H165171   6.778   7.241   3.900
21643WAT     H265172   6.794   7.273   4.059
21644WAT      O65173   5.495   1.660   1.960
21644WAT     H165174   5.576   1.624   1.914
21644WAT     H265175   5.522   1.700   2.048
21645WAT      O65176   4.925   0.326   0.560
21645WAT     H165177   4.893   0.302   0.651
21645WAT     H265178   4.976   0.249   0.521
21646WAT      O65179   0.399   0.949   8.864
21646WAT     H165180   0.435   0.866   8.906
21646WAT     H265181   0.338   0.925   8.788
21647WAT      O65182   6.375   0.441   6.536
21647WAT     H165183   6.319   0.435   6.619
21647WAT     H265184   6.466   0.404   6.554
21648WAT      O65185   2.747   0.063   1.640
21648WAT     H165186   2.798   0.132   1.691
21648WAT     H265187   2.805  -0.016   1.622
21649WAT      O65188   1.429   8.422   3.412
21649WAT     H165189   1.368   8.486   3.458
21649WAT     H265190   1.507   8.471   3.374
21650WAT      O65191   7.399   9.330   9.621
21650WAT     H165192   7.383   9.386   9.703
21650WAT     H265193   7.314   9.323   9.569
21651WAT      O65194   6.422   9.725   2.400
21651WAT     H165195   6.430   9.660   2.475
21651WAT     H265196   6.459   9.684   2.316
21652WAT      O65197   6.139   8.380   7.694
21652WAT     H165198   6.075   8.433   7.749
21652WAT     H265199   6.140   8.285   7.726
21653WAT      O65200   5.874   2.082   2.647
21653WAT     H165201   5.961   2.112   2.687
21653WAT     H265202   5.849   2.143   2.573
21654WAT      O65203   5.270   9.125   0.413
21654WAT     H165204   5.183   9.114   0.461
21654WAT     H265205   5.252   9.142   0.316
21655WAT      O65206   3.761   8.927   2.747
21655WAT     H165207   3.694   8.854   2.728
21655WAT     H265208   3.723   8.989   2.817
21656WAT      O65209   1.541   7.017   3.288
21656WAT     H165210   1.442   7.003   3.292
21656WAT     H265211   1.567   7.040   3.195
21657WAT      O65212   4.261   5.863   8.976
21657WAT     H165213   4.169   5.893   9.002
21657WAT     H265214   4.254   5.779   8.922
21658WAT      O65215   8.662   9.588   8.550
21658WAT     H165216   8.590   9.535   8.594
21658WAT     H265217   8.635   9.685   8.548
21659WAT      O65218   0.274   1.600   4.439
21659WAT     H165219   0.345   1.529   4.441
21659WAT     H265220   0.219   1.594   4.523
21660WAT      O65221   1.036   4.228   2.347
21660WAT     H165222   1.126   4.183   2.347
21660WAT     H265223   0.980   4.190   2.275
21661WAT      O65224   2.656   5.179   4.223
21661WAT     H165225   2.686   5.273   4.208
21661WAT     H265226   2.676   5.152   4.318
21662WAT      O65227   5.637   4.627   9.172
21662WAT     H165228   5.594   4.703   9.124
21662WAT     H265229   5.567   4.560   9.197
21663WAT      O65230   1.319   1.945   0.734
21663WAT     H165231   1.339   2.026   0.789
21663WAT     H265232   1.329   1.967   0.637
21664WAT      O65233   9.050   8.045   4.371
21664WAT     H165234   9.127   8.108   4.364
21664WAT     H265235   9.081   7.958   4.411
21665WAT      O65236   5.856   6.318   8.175
21665WAT     H165237   5.765   6.289   8.207
21665WAT     H265238   5.873   6.278   8.084
21666WAT      O65239   6.238   4.767   6.205
21666WAT     H165240   6.274   4.707   6.276
21666WAT     H265241   6.296   4.849   6.198
21667WAT      O65242   2.671   0.624   4.618
21667WAT     H165243   2.599   0.558   4.595
21667WAT     H265244   2.729   0.640   4.538
21668WAT      O65245   2.896   9.518   6.666
21668WAT     H165246   2.932   9.574   6.591
21668WAT     H265247   2.819   9.464   6.633
21669WAT      O65248   2.480   1.013   5.891
21669WAT     H165249   2.556   1.030   5.828
21669WAT     H265250   2.467   1.093   5.949
21670WAT      O65251   1.353   9.076   3.595
21670WAT     H165252   1.330   8.979   3.587
21670WAT     H265253   1.387   9.094   3.687
21671WAT      O65254   2.996   4.887   5.971
21671WAT     H165255   3.091   4.856   5.976
21671WAT     H265256   2.960   4.867   5.880
21672WAT      O65257   6.928   3.035   2.932
21672WAT     H165258   6.877   3.119   2.954
21672WAT     H265259   7.026   3.055   2.930
21673WAT      O65260   7.189   5.076   1.506
21673WAT     H165261   7.131   5.014   1.454
21673WAT     H265262   7.193   5.165   1.460
21674WAT      O65263   5.061   2.585   9.318
21674WAT     H165264   4.961   2.584   9.320
21674WAT     H265265   5.096   2.633   9.398
21675WAT      O65266   0.072   0.576   6.084
21675WAT     H165267   0.018   0.573   6.169
21675WAT     H265268   0.156   0.523   6.096
21676WAT      O65269   6.953   7.766   5.656
21676WAT     H165270   7.013   7.724   5.588
21676WAT     H265271   6.866   7.715   5.660
21677WAT      O65272   0.752   8.079   7.140
21677WAT     H165273   0.782   7.994   7.098
21677WAT     H265274   0.697   8.059   7.221
21678WAT      O65275   9.075   6.085   7.074
21678WAT     H165276   9.011   6.036   7.014
21678WAT     H265277   9.158   6.032   7.086
21679WAT      O65278   9.435   8.850   0.201
21679WAT     H165279   9.504   8.867   0.271
21679WAT     H265280   9.427   8.930   0.141
21680WAT      O65281   5.810   9.043   5.619
21680WAT     H165282   5.906   9.069   5.632
21680WAT     H265283   5.774   9.007   5.705
21681WAT      O65284   0.314   9.335   4.316
21681WAT     H165285   0.273   9.393   4.245
21681WAT     H265286   0.299   9.377   4.406
21682WAT      O65287   1.383   4.656   8.804
21682WAT     H165288   1.405   4.688   8.711
21682WAT     H265289   1.468   4.647   8.857
21683WAT      O65290   6.631   7.497   8.715
21683WAT     H165291   6.709   7.474   8.657
21683WAT     H265292   6.663   7.516   8.808
21684WAT      O65293   3.856   3.604   0.850
21684WAT     H165294   3.941   3.653   0.872
21684WAT     H265295   3.815   3.568   0.934
21685WAT      O65296   1.042   5.105   1.162
21685WAT     H165297   1.038   5.024   1.220
21685WAT     H265298   0.953   5.150   1.163
21686WAT      O65299   8.835   7.499   4.038
21686WAT     H165300   8.931   7.519   4.019
21686WAT     H265301   8.786   7.584   4.056
21687WAT      O65302   3.667   2.054   7.127
21687WAT     H165303   3.674   2.105   7.212
21687WAT     H265304   3.582   2.001   7.126
21688WAT      O65305   9.735   0.841   2.330
21688WAT     H165306   9.677   0.779   2.277
21688WAT     H265307   9.681   0.917   2.365
21689WAT      O65308   2.323   8.253   8.814
21689WAT     H165309   2.384   8.333   8.808
21689WAT     H265310   2.251   8.272   8.880
21690WAT      O65311   0.429   9.663   6.452
21690WAT     H165312   0.466   9.641   6.542
21690WAT     H265313   0.377   9.749   6.457
21691WAT      O65314   5.670   5.463   1.138
21691WAT     H165315   5.606   5.393   1.107
21691WAT     H265316   5.758   5.421   1.161
21692WAT      O65317   8.466   9.045   8.817
21692WAT     H165318   8.523   9.110   8.766
21692WAT     H265319   8.422   8.982   8.753
21693WAT      O65320   0.999   5.980   0.588
21693WAT     H165321   1.024   6.040   0.512
21693WAT     H265322   0.904   5.998   0.614
21694WAT      O65323   2.352   2.328   4.276
21694WAT     H165324   2.421   2.359   4.342
21694WAT     H265325   2.268   2.303   4.325
21695WAT      O65326   7.752   8.277   9.135
21695WAT     H165327   7.743   8.346   9.206
21695WAT     H265328   7.674   8.282   9.073
21696WAT      O65329   8.734   1.793   9.064
21696WAT     H165330   8.669   1.728   9.023
21696WAT     H265331   8.747   1.871   9.002
21697WAT      O65332   4.469   7.061   1.886
21697WAT     H165333   4.543   7.018   1.937
21697WAT     H265334   4.482   7.160   1.886
21698WAT      O65335   6.995   1.298   7.681
21698WAT     H165336   6.989   1.312   7.582
21698WAT     H265337   6.921   1.348   7.726
21699WAT      O65338   3.632   9.065   6.277
21699WAT     H165339   3.640   8.985   6.218
21699WAT     H265340   3.669   9.044   6.368
21700WAT      O65341   8.144   1.297   3.114
21700WAT     H165342   8.182   1.389   3.108
21700WAT     H265343   8.062   1.298   3.170
21701WAT      O65344   0.680   0.196   2.923
21701WAT     H165345   0.721   0.270   2.870
21701WAT     H265346   0.712   0.200   3.017
21702WAT      O65347   8.657   7.220   3.248
21702WAT     H165348   8.699   7.295   3.196
21702WAT     H265349   8.628   7.148   3.186
21703WAT      O65350   0.317   2.203   2.903
21703WAT     H165351   0.341   2.125   2.845
21703WAT     H265352   0.355   2.286   2.862
21704WAT      O65353   9.055   4.466   1.950
21704WAT     H165354   9.005   4.523   1.885
21704WAT     H265355   9.055   4.371   1.918
21705WAT      O65356   8.679   6.287   2.611
21705WAT     H165357   8.636   6.325   2.694
21705WAT     H265358   8.756   6.229   2.638
21706WAT      O65359   2.461   9.424   1.902
21706WAT     H165360   2.433   9.348   1.960
21706WAT     H265361   2.555   9.451   1.925
21707WAT      O65362   0.832   1.209   9.587
21707WAT     H165363   0.831   1.246   9.494
21707WAT     H265364   0.902   1.256   9.641
21708WAT      O65365   6.794   0.622   0.837
21708WAT     H165366   6.699   0.636   0.810
21708WAT     H265367   6.804   0.530   0.875
21709WAT      O65368   4.453   7.722   3.778
21709WAT     H165369   4.442   7.793   3.709
21709WAT     H265370   4.372   7.663   3.778
21710WAT      O65371   9.463   6.826   9.615
21710WAT     H165372   9.505   6.778   9.692
21710WAT     H265373   9.535   6.867   9.558
21711WAT      O65374   3.323   4.199   0.500
21711WAT     H165375   3.422   4.190   0.502
21711WAT     H265376   3.287   4.184   0.592
21712WAT      O65377   7.003   1.691   3.843
21712WAT     H165378   6.964   1.611   3.797
21712WAT     H265379   7.023   1.668   3.938
21713WAT      O65380   7.480   5.978   6.853
21713WAT     H165381   7.486   5.903   6.919
21713WAT     H265382   7.525   6.059   6.890
21714WAT      O65383   1.911   4.721   7.693
21714WAT     H165384   1.825   4.690   7.651
21714WAT     H265385   1.965   4.641   7.721
21715WAT      O65386   6.072   8.759   8.032
21715WAT     H165387   6.073   8.713   8.121
21715WAT     H265388   6.163   8.795   8.013
21716WAT      O65389   6.066   3.172   6.377
21716WAT     H165390   6.038   3.116   6.299
21716WAT     H265391   6.154   3.139   6.411
21717WAT      O65392   9.594   4.656   8.749
21717WAT     H165393   9.523   4.673   8.681
21717WAT     H265394   9.557   4.598   8.822
21718WAT      O65395   0.805   7.852   6.996
21718WAT     H165396   0.733   7.790   6.965
21718WAT     H265397   0.889   7.835   6.945
21719WAT      O65398   2.700   6.912   4.127
21719WAT     H165399   2.652   6.841   4.076
21719WAT     H265400   2.742   6.976   4.063
21720WAT      O65401   4.669   8.283   2.154
21720WAT     H165402   4.629   8.218   2.219
21720WAT     H265403   4.638   8.375   2.176
21721WAT      O65404   5.236   4.209   6.938
21721WAT     H165405   5.173   4.192   6.863
21721WAT     H265406   5.319   4.254   6.903
21722WAT      O65407   7.190   4.496   4.018
21722WAT     H165408   7.112   4.556   4.041
21722WAT     H265409   7.190   4.417   4.080
21723WAT      O65410   5.312   3.433   6.485
21723WAT     H165411   5.405   3.430   6.522
21723WAT     H265412   5.312   3.389   6.394
21724WAT      O65413   5.541   9.154   4.722
21724WAT     H165414   5.468   9.139   4.788
21724WAT     H265415   5.568   9.251   4.723
21725WAT      O65416   7.819   7.150   8.601
21725WAT     H165417   7.755   7.081   8.567
21725WAT     H265418   7.820   7.228   8.538
21726WAT      O65419   8.859   2.220   0.412
21726WAT     H165420   8.930   2.222   0.342
21726WAT     H265421   8.892   2.172   0.492
21727WAT      O65422   8.081   1.759   8.803
21727WAT     H165423   8.169   1.729   8.839
21727WAT     H265424   8.089   1.779   8.706
21728WAT      O65425   6.965   8.439   4.484
21728WAT     H165426   6.997   8.528   4.517
21728WAT     H265427   6.949   8.378   4.561
21729WAT      O65428   9.176   3.213   7.822
21729WAT     H165429   9.233   3.282   7.867
21729WAT     H265430   9.079   3.232   7.842
21730WAT      O65431   4.154   2.599   4.900
21730WAT     H165432   4.094   2.559   4.969
21730WAT     H265433   4.234   2.541   4.887
21731WAT      O65434   4.388   2.465   4.907
21731WAT     H165435   4.451   2.532   4.945
21731WAT     H265436   4.433   2.416   4.832
21732WAT      O65437   9.813   8.933   0.903
21732WAT     H165438   9.804   8.948   1.002
21732WAT     H265439   9.722   8.924   0.863
21733WAT      O65440   2.415   0.704   3.580
21733WAT     H165441   2.407   0.611   3.615
21733WAT     H265442   2.430   0.700   3.481
21734WAT      O65443   9.706   5.038   9.175
21734WAT     H165444   9.796   5.066   9.144
21734WAT     H265445   9.690   4.943   9.151
21735WAT      O65446   8.579   2.933   9.859
21735WAT     H165447   8.500   2.958   9.916
21735WAT     H265448   8.596   3.006   9.793
21736WAT      O65449   7.812   7.351   5.995
21736WAT     H165450   7.843   7.445   6.009
21736WAT     H265451   7.730   7.351   5.937
21737WAT      O65452   3.688   5.478   2.524
21737WAT     H165453   3.753   5.523   2.585
21737WAT     H265454   3.638   5.408   2.575
21738WAT      O65455   7.606   2.157   0.146
21738WAT     H165456   7.629   2.085   0.211
21738WAT     H265457   7.653   2.242   0.172
21739WAT      O65458   0.879   2.207   9.723
21739WAT     H165459   0.854   2.167   9.811
21739WAT     H265460   0.893   2.134   9.656
21740WAT      O65461   0.844   0.676   3.858
21740WAT     H165462   0.758   0.629   3.877
21740WAT     H265463   0.862   0.743   3.929
21741WAT      O65464   4.118   1.308   9.036
21741WAT     H165465   4.069   1.393   9.053
21741WAT     H265466   4.208   1.312   9.081
21742WAT      O65467   9.653   2.587   3.261
21742WAT     H165468   9.598   2.520   3.212
21742WAT     H265469   9.746   2.587   3.224
21743WAT      O65470   5.708   9.480   7.149
21743WAT     H165471   5.773   9.479   7.073
21743WAT     H265472   5.719   9.396   7.202
21744WAT      O65473   9.009   1.741   9.001
21744WAT     H165474   9.081   1.806   9.026
21744WAT     H265475   8.928   1.757   9.058
21745WAT      O65476   6.420   1.388   6.661
21745WAT     H165477   6.513   1.424   6.661
21745WAT     H265478   6.422   1.292   6.686
21746WAT      O65479   4.491   4.983   9.086
21746WAT     H165480   4.409   5.032   9.114
21746WAT     H265481   4.566   5.004   9.150
21747WAT      O65482   4.880   3.106   2.757
21747WAT     H165483   4.919   3.081   2.845
21747WAT     H265484   4.788   3.066   2.748
21748WAT      O65485   9.110   0.998   2.535
21748WAT     H165486   9.106   0.906   2.494
21748WAT     H265487   9.204   1.032   2.530
21749WAT      O65488   5.779   4.813   0.387
21749WAT     H165489   5.777   4.728   0.335
21749WAT     H265490   5.865   4.819   0.438
21750WAT      O65491   1.373   0.110   5.226
21750WAT     H165492   1.468   0.131   5.247
21750WAT     H265493   1.338   0.044   5.293
21751WAT      O65494   7.417   6.511   4.518
21751WAT     H165495   7.445   6.439   4.581
21751WAT     H265496   7.420   6.476   4.424
21752WAT      O65497   3.601   3.733   0.681
21752WAT     H165498   3.528   3.666   0.665
21752WAT     H265499   3.689   3.687   0.684
21753WAT      O65500   0.663   8.776   6.627
21753WAT     H165501   0.669   8.834   6.708
21753WAT     H265502   0.570   8.780   6.591
21754WAT      O65503   8.536   2.709   7.019
21754WAT     H165504   8.616   2.762   7.043
21754WAT     H265505   8.564   2.626   6.971
21755WAT      O65506   4.815   4.544   2.741
21755WAT     H165507   4.734   4.536   2.683
21755WAT     H265508   4.889   4.489   2.703
21756WAT      O65509   1.913   6.615   2.492
21756WAT     H165510   1.830   6.567   2.464
21756WAT     H265511   1.941   6.584   2.583
21757WAT      O65512   8.444   9.097   2.636
21757WAT     H165513   8.374   9.114   2.567
21757WAT     H265514   8.429   9.158   2.714
21758WAT      O65515   8.632   8.458   2.650
21758WAT     H165516   8.680   8.474   2.563
21758WAT     H265517   8.671   8.518   2.720
21759WAT      O65518   7.505   0.384   7.548
21759WAT     H165519   7.413   0.401   7.583
21759WAT     H265520   7.505   0.300   7.493
21760WAT      O65521   5.896   6.052   0.052
21760WAT     H165522   5.824   6.057  -0.018
21760WAT     H265523   5.919   5.956   0.068
21761WAT      O65524   4.342   0.767   6.220
21761WAT     H165525   4.397   0.845   6.190
21761WAT     H265526   4.252   0.772   6.177
21762WAT      O65527   8.384   7.075   4.040
21762WAT     H165528   8.413   7.165   4.070
21762WAT     H265529   8.429   7.005   4.095
21763WAT      O65530   3.738   1.705   6.898
21763WAT     H165531   3.786   1.778   6.945
21763WAT     H265532   3.704   1.639   6.965
21764WAT      O65533   8.208   2.216   4.941
21764WAT     H165534   8.277   2.157   4.984
21764WAT     H265535   8.193   2.186   4.847
21765WAT      O65536   5.836   8.699   7.139
21765WAT     H165537   5.856   8.702   7.237
21765WAT     H265538   5.800   8.788   7.110
21766WAT      O65539   5.824   9.001   0.961
21766WAT     H165540   5.908   8.971   0.914
21766WAT     H265541   5.801   8.935   1.033
21767WAT      O65542   9.782   1.846   3.114
21767WAT     H165543   9.802   1.838   3.017
21767WAT     H265544   9.867   1.849   3.167
21768WAT      O65545   5.261   7.481   8.916
21768WAT     H165546   5.282   7.552   8.983
21768WAT     H265547   5.323   7.489   8.838
21769WAT      O65548   2.850   3.928   8.308
21769WAT     H165549   2.839   4.028   8.310
21769WAT     H265550   2.873   3.896   8.400
21770WAT      O65551   6.921   4.581   8.487
21770WAT     H165552   6.937   4.675   8.456
21770WAT     H265553   6.824   4.571   8.511
21771WAT      O65554   8.033   1.919   9.387
21771WAT     H165555   7.971   1.902   9.311
21771WAT     H265556   8.083   1.835   9.409
21772WAT      O65557   5.343   2.128   6.363
21772WAT     H165558   5.398   2.139   6.445
21772WAT     H265559   5.316   2.219   6.328
21773WAT      O65560   6.234   0.954   0.585
21773WAT     H165561   6.248   1.030   0.649
21773WAT     H265562   6.237   0.987   0.491
21774WAT      O65563   1.182   0.023   4.394
21774WAT     H165564   1.140  -0.062   4.427
21774WAT     H265565   1.231   0.067   4.468
21775WAT      O65566   2.741   0.181   6.554
21775WAT     H165567   2.723   0.278   6.567
21775WAT     H265568   2.689   0.128   6.620
21776WAT      O65569   7.595   3.673   4.458
21776WAT     H165570   7.627   3.580   4.441
21776WAT     H265571   7.520   3.671   4.524
21777WAT      O65572   9.626   8.105   4.932
21777WAT     H165573   9.539   8.154   4.923
21777WAT     H265574   9.658   8.110   5.026
21778WAT      O65575   1.257   3.913   0.527
21778WAT     H165576   1.327   3.920   0.598
21778WAT     H265577   1.260   3.995   0.470
21779WAT      O65578   2.469   5.036   1.815
21779WAT     H165579   2.459   4.937   1.818
21779WAT     H265580   2.562   5.059   1.787
21780WAT      O65581   7.106   7.757   1.618
21780WAT     H165582   7.198   7.776   1.584
21780WAT     H265583   7.038   7.795   1.555
21781WAT      O65584   1.552   2.310   3.370
21781WAT     H165585   1.564   2.223   3.324
21781WAT     H265586   1.620   2.318   3.444
21782WAT      O65587   0.486   1.642   5.156
21782WAT     H165588   0.532   1.592   5.082
21782WAT     H265589   0.504   1.596   5.243
21783WAT      O65590   8.738   9.008   3.342
21783WAT     H165591   8.663   9.049   3.394
21783WAT     H265592   8.779   8.934   3.396
21784WAT      O65593   0.107   0.895   7.153
21784WAT     H165594   0.175   0.905   7.226
21784WAT     H265595   0.039   0.827   7.180
21785WAT      O65596   6.315   1.906   2.515
21785WAT     H165597   6.413   1.923   2.500
21785WAT     H265598   6.279   1.851   2.440
21786WAT      O65599   1.671   2.461   5.278
21786WAT     H165600   1.593   2.422   5.229
21786WAT     H265601   1.639   2.521   5.351
21787WAT      O65602   7.499   9.063   5.804
21787WAT     H165603   7.421   9.062   5.867
21787WAT     H265604   7.572   9.006   5.841
21788WAT      O65605   9.030   6.906   7.735
21788WAT     H165606   9.099   6.837   7.757
21788WAT     H265607   8.942   6.861   7.717
21789WAT      O65608   3.243   0.082   7.549
21789WAT     H165609   3.314   0.012   7.552
21789WAT     H265610   3.229   0.118   7.642
21790WAT      O65611   2.506   4.317   2.237
21790WAT     H165612   2.525   4.398   2.182
21790WAT     H265613   2.411   4.289   2.223
21791WAT      O65614   5.076   8.550   7.406
21791WAT     H165615   5.070   8.476   7.339
21791WAT     H265616   5.147   8.529   7.473
21792WAT      O65617   0.609   2.261   8.020
21792WAT     H165618   0.647   2.347   7.987
21792WAT     H265619   0.622   2.254   8.119
21793WAT      O65620   5.071   2.580   1.505
21793WAT     H165621   5.000   2.513   1.482
21793WAT     H265622   5.034   2.649   1.567
21794WAT      O65623   4.200   3.441   2.369
21794WAT     H165624   4.250   3.500   2.306
21794WAT     H265625   4.182   3.492   2.454
21795WAT      O65626   6.478   0.836   9.207
21795WAT     H165627   6.563   0.888   9.199
21795WAT     H265628   6.457   0.820   9.303
21796WAT      O65629   6.266   3.774   8.528
21796WAT     H165630   6.182   3.788   8.475
21796WAT     H265631   6.248   3.712   8.604
21797WAT      O65632   2.278   2.204   8.299
21797WAT     H165633   2.365   2.191   8.346
21797WAT     H265634   2.212   2.138   8.333
21798WAT      O65635   1.604   2.072   3.224
21798WAT     H165636   1.588   2.004   3.296
21798WAT     H265637   1.554   2.045   3.142
21799WAT      O65638   6.159   7.522   8.843
21799WAT     H165639   6.250   7.548   8.810
21799WAT     H265640   6.090   7.574   8.793
21800WAT      O65641   4.575   7.946   9.234
21800WAT     H165642   4.620   7.875   9.180
21800WAT     H265643   4.476   7.929   9.235
21801WAT      O65644   5.949   8.838   1.789
21801WAT     H165645   5.875   8.896   1.756
21801WAT     H265646   6.036   8.887   1.781
21802WAT      O65647   7.204   0.637   3.961
21802WAT     H165648   7.279   0.627   4.027
21802WAT     H265649   7.183   0.734   3.948
21803WAT      O65650   7.645   6.866   6.039
21803WAT     H165651   7.609   6.877   6.131
21803WAT     H265652   7.741   6.838   6.044
21804WAT      O65653   2.224   7.102   8.856
21804WAT     H165654   2.139   7.154   8.849
21804WAT     H265655   2.239   7.051   8.771
21805WAT      O65656   7.780   3.521   4.034
21805WAT     H165657   7.711   3.554   4.098
21805WAT     H265658   7.841   3.457   4.082
21806WAT      O65659   4.223   2.862   2.777
21806WAT     H165660   4.253   2.949   2.815
21806WAT     H265661   4.131   2.873   2.738
21807WAT      O65662   2.568   0.962   1.504
21807WAT     H165663   2.500   1.026   1.541
21807WAT     H265664   2.560   0.959   1.404
21808WAT      O65665   8.488   5.793   2.286
21808WAT     H165666   8.572   5.762   2.243
21808WAT     H265667   8.503   5.805   2.384
21809WAT      O65668   0.011   3.297   2.464
21809WAT     H165669  -0.057   3.366   2.438
21809WAT     H265670   0.061   3.269   2.382
21810WAT      O65671   1.000   0.114   7.446
21810WAT     H165672   1.089   0.080   7.476
21810WAT     H265673   0.928   0.056   7.482
21811WAT      O65674   4.212   3.180   4.046
21811WAT     H165675   4.169   3.263   4.012
21811WAT     H265676   4.166   3.100   4.007
21812WAT      O65677   3.311   7.650   8.580
21812WAT     H165678   3.369   7.726   8.610
21812WAT     H265679   3.363   7.565   8.586
21813WAT      O65680   3.912   1.214   5.558
21813WAT     H165681   3.846   1.266   5.503
21813WAT     H265682   3.863   1.170   5.633
21814WAT      O65683   7.297   7.887   4.705
21814WAT     H165684   7.253   7.971   4.734
21814WAT     H265685   7.229   7.824   4.668
21815WAT      O65686   1.754   8.607   0.642
21815WAT     H165687   1.711   8.525   0.606
21815WAT     H265688   1.768   8.596   0.741
21816WAT      O65689   0.834   8.370   2.219
21816WAT     H165690   0.753   8.311   2.218
21816WAT     H265691   0.880   8.362   2.307
21817WAT      O65692   9.121   4.783   0.048
21817WAT     H165693   9.219   4.761   0.043
21817WAT     H265694   9.073   4.709   0.094
21818WAT      O65695   4.634   8.249   4.034
21818WAT     H165696   4.540   8.245   4.000
21818WAT     H265697   4.676   8.335   4.006
21819WAT      O65698   0.324   3.653   0.476
21819WAT     H165699   0.322   3.732   0.537
21819WAT     H265700   0.384   3.672   0.399
21820WAT      O65701   9.826   8.142   3.738
21820WAT     H165702   9.733   8.150   3.702
21820WAT     H265703   9.878   8.223   3.713
21821WAT      O65704   3.177   6.316   8.916
21821WAT     H165705   3.098   6.268   8.954
21821WAT     H265706   3.208   6.386   8.980
21822WAT      O65707   8.943   2.244   5.314
21822WAT     H165708   8.883   2.166   5.297
21822WAT     H265709   9.008   2.252   5.239
21823WAT      O65710   1.081   3.724   0.208
21823WAT     H165711   1.115   3.697   0.298
21823WAT     H265712   1.154   3.717   0.141
21824WAT      O65713   7.857   6.658   7.689
21824WAT     H165714   7.922   6.614   7.627
21824WAT     H265715   7.771   6.606   7.690
21825WAT      O65716   7.716   7.347   1.446
21825WAT     H165717   7.727   7.360   1.544
21825WAT     H265718   7.751   7.426   1.397
21826WAT      O65719   8.408   4.731   7.358
21826WAT     H165720   8.473   4.776   7.297
21826WAT     H265721   8.318   4.774   7.347
21827WAT      O65722   3.711   7.659   5.720
21827WAT     H165723   3.777   7.589   5.690
21827WAT     H265724   3.742   7.749   5.690
21828WAT      O65725   4.256   0.105   9.416
21828WAT     H165726   4.176   0.145   9.461
21828WAT     H265727   4.244   0.005   9.411
21829WAT      O65728   8.351   8.889   6.606
21829WAT     H165729   8.407   8.950   6.663
21829WAT     H265730   8.340   8.930   6.516
21830WAT      O65731   4.891   0.629   5.438
21830WAT     H165732   4.960   0.676   5.494
21830WAT     H265733   4.823   0.696   5.407
21831WAT      O65734   9.232   5.363   2.275
21831WAT     H165735   9.143   5.380   2.316
21831WAT     H265736   9.224   5.291   2.206
21832WAT      O65737   2.918   0.812   7.047
21832WAT     H165738   2.954   0.734   7.099
21832WAT     H265739   2.990   0.847   6.986
21833WAT      O65740   8.828   4.334   8.732
21833WAT     H165741   8.767   4.311   8.657
21833WAT     H265742   8.894   4.402   8.702
21834WAT      O65743   6.504   5.687   4.069
21834WAT     H165744   6.465   5.662   4.157
21834WAT     H265745   6.430   5.712   4.005
21835WAT      O65746   3.454   3.529   4.164
21835WAT     H165747   3.478   3.463   4.236
21835WAT     H265748   3.531   3.591   4.150
21836WAT      O65749   1.381   0.769   4.605
21836WAT     H165750   1.408   0.681   4.644
21836WAT     H265751   1.341   0.755   4.514
21837WAT      O65752   4.189   9.334   9.293
21837WAT     H165753   4.183   9.283   9.379
21837WAT     H265754   4.253   9.410   9.303
21838WAT      O65755   0.659   5.223   6.881
21838WAT     H165756   0.605   5.145   6.849
21838WAT     H265757   0.642   5.238   6.978
21839WAT      O65758   4.893   7.684   5.477
21839WAT     H165759   4.801   7.649   5.461
21839WAT     H265760   4.891   7.754   5.548
21840WAT      O65761   5.095   2.553   4.238
21840WAT     H165762   5.111   2.566   4.336
21840WAT     H265763   5.136   2.467   4.209
21841WAT      O65764   6.693   1.166   6.562
21841WAT     H165765   6.736   1.102   6.625
21841WAT     H265766   6.704   1.260   6.596
21842WAT      O65767   1.182   1.279   5.569
21842WAT     H165768   1.152   1.328   5.488
21842WAT     H265769   1.264   1.226   5.548
21843WAT      O65770   8.742   0.673   7.922
21843WAT     H165771   8.830   0.720   7.918
21843WAT     H265772   8.668   0.741   7.925
21844WAT      O65773   2.182   4.236   5.747
21844WAT     H165774   2.212   4.177   5.673
21844WAT     H265775   2.084   4.254   5.740
21845WAT      O65776   1.372   4.831   2.642
21845WAT     H165777   1.296   4.765   2.636
21845WAT     H265778   1.337   4.920   2.670
21846WAT      O65779   3.331   9.194   9.598
21846WAT     H165780   3.310   9.122   9.533
21846WAT     H265781   3.358   9.154   9.685
21847WAT      O65782   4.686   9.072   4.760
21847WAT     H165783   4.606   9.015   4.742
21847WAT     H265784   4.751   9.020   4.816
21848WAT      O65785   7.252   2.008   3.108
21848WAT     H165786   7.259   1.973   3.201
21848WAT     H265787   7.229   2.105   3.110
21849WAT      O65788   9.632   1.500   5.835
21849WAT     H165789   9.691   1.523   5.912
21849WAT     H265790   9.547   1.553   5.841
21850WAT      O65791   7.716   1.584   4.852
21850WAT     H165792   7.649   1.510   4.859
21850WAT     H265793   7.670   1.671   4.868
21851WAT      O65794   3.765   2.760   2.073
21851WAT     H165795   3.827   2.835   2.052
21851WAT     H265796   3.741   2.712   1.989
21852WAT      O65797   8.284   7.168   5.988
21852WAT     H165798   8.342   7.219   6.051
21852WAT     H265799   8.244   7.231   5.921
21853WAT      O65800   4.530   2.437   5.630
21853WAT     H165801   4.608   2.478   5.678
21853WAT     H265802   4.546   2.338   5.619
21854WAT      O65803   5.212   7.215   1.440
21854WAT     H165804   5.195   7.298   1.493
21854WAT     H265805   5.124   7.176   1.411
21855WAT      O65806   2.376   9.723   5.495
21855WAT     H165807   2.386   9.813   5.538
21855WAT     H265808   2.294   9.678   5.531
21856WAT      O65809   0.243   7.940   1.555
21856WAT     H165810   0.149   7.914   1.536
21856WAT     H265811   0.262   8.030   1.515
21857WAT      O65812   4.017   2.897   9.104
21857WAT     H165813   4.049   2.955   9.029
21857WAT     H265814   3.917   2.900   9.108
21858WAT      O65815   9.494   7.079   0.978
21858WAT     H165816   9.544   7.028   0.908
21858WAT     H265817   9.559   7.129   1.035
21859WAT      O65818   4.520   1.775   4.353
21859WAT     H165819   4.489   1.855   4.404
21859WAT     H265820   4.587   1.802   4.284
21860WAT      O65821   1.701   8.470   9.291
21860WAT     H165822   1.732   8.445   9.383
21860WAT     H265823   1.780   8.501   9.238
21861WAT      O65824   8.487   0.615   6.196
21861WAT     H165825   8.566   0.621   6.136
21861WAT     H265826   8.517   0.611   6.291
21862WAT      O65827   6.557   0.342   8.008
21862WAT     H165828   6.633   0.318   7.949
21862WAT     H265829   6.508   0.260   8.036
21863WAT      O65830   2.542   6.924   7.642
21863WAT     H165831   2.532   7.024   7.640
21863WAT     H265832   2.550   6.890   7.549
21864WAT      O65833   4.540   7.665   8.263
21864WAT     H165834   4.632   7.628   8.262
21864WAT     H265835   4.517   7.701   8.172
21865WAT      O65836   1.476   4.419   1.670
21865WAT     H165837   1.409   4.344   1.668
21865WAT     H265838   1.551   4.394   1.732
21866WAT      O65839   2.090   9.756   6.786
21866WAT     H165840   2.072   9.855   6.786
21866WAT     H265841   2.040   9.714   6.710
21867WAT      O65842   5.292   0.561   0.498
21867WAT     H165843   5.336   0.650   0.511
21867WAT     H265844   5.344   0.508   0.431
21868WAT      O65845   6.605   8.298   2.039
21868WAT     H165846   6.665   8.326   2.114
21868WAT     H265847   6.565   8.209   2.060
21869WAT      O65848   1.504   8.950   1.970
21869WAT     H165849   1.435   9.023   1.968
21869WAT     H265850   1.490   8.888   1.894
21870WAT      O65851   1.970   2.484   6.316
21870WAT     H165852   2.004   2.471   6.409
21870WAT     H265853   2.011   2.415   6.256
21871WAT      O65854   3.304   8.783   3.971
21871WAT     H165855   3.319   8.690   4.004
21871WAT     H265856   3.208   8.795   3.947
21872WAT      O65857   1.469   2.357   5.152
21872WAT     H165858   1.421   2.367   5.064
21872WAT     H265859   1.411   2.304   5.214
21873WAT      O65860   0.411   3.773   7.194
21873WAT     H165861   0.484   3.746   7.256
21873WAT     H265862   0.451   3.809   7.109
21874WAT      O65863   4.874   1.708   8.419
21874WAT     H165864   4.781   1.697   8.384
21874WAT     H265865   4.910   1.620   8.448
21875WAT      O65866   3.978   5.193   4.668
21875WAT     H165867   3.998   5.284   4.631
21875WAT     H265868   4.054   5.131   4.647
21876WAT      O65869   7.035   3.241   4.647
21876WAT     H165870   7.092   3.160   4.661
21876WAT     H265871   6.950   3.231   4.698
21877WAT      O65872   2.627   6.594   7.959
21877WAT     H165873   2.601   6.499   7.975
21877WAT     H265874   2.684   6.599   7.878
21878WAT      O65875   0.966   7.187   6.244
21878WAT     H165876   1.057   7.227   6.250
21878WAT     H265877   0.974   7.090   6.220
21879WAT      O65878   7.877   1.432   9.243
21879WAT     H165879   7.825   1.516   9.227
21879WAT     H265880   7.832   1.356   9.196
21880WAT      O65881   2.001   6.933   8.373
21880WAT     H165882   2.011   7.007   8.305
21880WAT     H265883   1.905   6.920   8.394
21881WAT      O65884   8.430   3.538   8.931
21881WAT     H165885   8.523   3.504   8.938
21881WAT     H265886   8.367   3.473   8.974
21882WAT      O65887   7.260   4.056   6.520
21882WAT     H165888   7.192   4.129   6.523
21882WAT     H265889   7.343   4.086   6.567
21883WAT      O65890   9.723   4.975   2.354
21883WAT     H165891   9.647   4.909   2.358
21883WAT     H265892   9.789   4.945   2.285
21884WAT      O65893   6.653   4.249   4.176
21884WAT     H165894   6.560   4.268   4.208
21884WAT     H265895   6.649   4.205   4.087
21885WAT      O65896   7.374   0.735   5.172
21885WAT     H165897   7.384   0.638   5.147
21885WAT     H265898   7.429   0.754   5.254
21886WAT      O65899   4.016   1.539   7.062
21886WAT     H165900   4.000   1.561   6.966
21886WAT     H265901   4.008   1.441   7.076
21887WAT      O65902   4.566   8.598   4.189
21887WAT     H165903   4.569   8.517   4.248
21887WAT     H265904   4.658   8.636   4.181
21888WAT      O65905   3.686   6.186   6.645
21888WAT     H165906   3.666   6.088   6.652
21888WAT     H265907   3.752   6.212   6.717
21889WAT      O65908   8.221   7.421   2.642
21889WAT     H165909   8.303   7.460   2.683
21889WAT     H265910   8.211   7.454   2.549
21890WAT      O65911   5.324   3.677   1.029
21890WAT     H165912   5.251   3.738   1.058
21890WAT     H265913   5.357   3.705   0.939
21891WAT      O65914   5.861   5.687   1.692
21891WAT     H165915   5.912   5.606   1.661
21891WAT     H265916   5.791   5.658   1.757
21892WAT      O65917   4.722   2.963   3.038
21892WAT     H165918   4.645   2.940   2.978
21892WAT     H265919   4.740   2.886   3.099
21893WAT      O65920   1.139   6.381   0.804
21893WAT     H165921   1.208   6.352   0.871
21893WAT     H265922   1.049   6.379   0.846
21894WAT      O65923   0.394   4.633   5.341
21894WAT     H165924   0.468   4.695   5.368
21894WAT     H265925   0.431   4.542   5.325
21895WAT      O65926   6.977   3.056   9.783
21895WAT     H165927   6.932   3.090   9.865
21895WAT     H265928   6.922   2.983   9.743
21896WAT      O65929   2.681   2.195   1.889
21896WAT     H165930   2.733   2.268   1.843
21896WAT     H265931   2.726   2.171   1.975
21897WAT      O65932   6.201   2.030   8.237
21897WAT     H165933   6.188   1.949   8.294
21897WAT     H265934   6.113   2.059   8.200
21898WAT      O65935   4.538   7.075   9.301
21898WAT     H165936   4.502   7.131   9.225
21898WAT     H265937   4.470   7.071   9.374
21899WAT      O65938   8.429   2.301   6.844
21899WAT     H165939   8.405   2.294   6.747
21899WAT     H265940   8.349   2.278   6.900
21900WAT      O65941   2.120   9.694   2.561
21900WAT     H165942   2.182   9.625   2.599
21900WAT     H265943   2.155   9.785   2.582
21901WAT      O65944   6.125   0.607   4.678
21901WAT     H165945   6.129   0.629   4.775
21901WAT     H265946   6.208   0.559   4.651
21902WAT      O65947   1.026   8.964   8.806
21902WAT     H165948   1.020   8.870   8.771
21902WAT     H265949   1.119   8.982   8.838
21903WAT      O65950   2.837   7.008   5.771
21903WAT     H165951   2.896   6.952   5.714
21903WAT     H265952   2.892   7.052   5.843
21904WAT      O65953   5.054   6.049   0.656
21904WAT     H165954   5.149   6.077   0.674
21904WAT     H265955   4.992   6.111   0.703
21905WAT      O65956   2.964   8.225   4.386
21905WAT     H165957   2.874   8.242   4.427
21905WAT     H265958   3.032   8.286   4.427
21906WAT      O65959   4.833   8.505   5.743
21906WAT     H165960   4.876   8.594   5.755
21906WAT     H265961   4.865   8.464   5.657
21907WAT      O65962   7.234   2.032   7.118
21907WAT     H165963   7.175   2.109   7.144
21907WAT     H265964   7.326   2.067   7.097
21908WAT      O65965   2.575   5.482   9.694
21908WAT     H165966   2.641   5.557   9.689
21908WAT     H265967   2.517   5.494   9.775
21909WAT      O65968   0.301   1.254   7.052
21909WAT     H165969   0.318   1.332   6.992
21909WAT     H265970   0.373   1.186   7.039
21910WAT      O65971   4.617   2.361   1.168
21910WAT     H165972   4.670   2.289   1.213
21910WAT     H265973   4.673   2.403   1.096
21911WAT      O65974   0.841   3.836   3.823
21911WAT     H165975   0.751   3.879   3.827
21911WAT     H265976   0.839   3.749   3.871
21912WAT      O65977   4.672   1.603   2.453
21912WAT     H165978   4.695   1.688   2.407
21912WAT     H265979   4.740   1.584   2.525
21913WAT      O65980   5.805   2.988   3.014
21913WAT     H165981   5.885   3.046   2.995
21913WAT     H265982   5.726   3.024   2.966
21914WAT      O65983   6.934   3.348   8.662
21914WAT     H165984   6.878   3.429   8.680
21914WAT     H265985   6.982   3.321   8.745
21915WAT      O65986   5.826   6.455   6.195
21915WAT     H165987   5.859   6.392   6.125
21915WAT     H265988   5.903   6.483   6.253
21916WAT      O65989   9.468   9.299   3.905
21916WAT     H165990   9.560   9.275   3.874
21916WAT     H265991   9.439   9.233   3.975
21917WAT      O65992   9.535   1.935   5.148
21917WAT     H165993   9.498   1.998   5.216
21917WAT     H265994   9.609   1.980   5.097
21918WAT      O65995   1.152   8.699   4.673
21918WAT     H165996   1.150   8.785   4.621
21918WAT     H265997   1.066   8.650   4.660
21919WAT      O65998   4.846   4.374   8.168
21919WAT     H165999   4.914   4.385   8.241
21919WAT     H266000   4.866   4.293   8.114
21920WAT      O66001   2.015   8.551   0.309
21920WAT     H166002   2.057   8.630   0.263
21920WAT     H266003   2.035   8.555   0.407
21921WAT      O66004   1.716   4.517   5.618
21921WAT     H166005   1.795   4.529   5.557
21921WAT     H266006   1.638   4.567   5.580
21922WAT      O66007   7.010   9.461   6.720
21922WAT     H166008   6.929   9.431   6.770
21922WAT     H266009   7.091   9.417   6.758
21923WAT      O66010   0.079   0.296   1.712
21923WAT     H166011   0.012   0.282   1.785
21923WAT     H266012   0.141   0.217   1.708
21924WAT      O66013   6.219   9.215   2.772
21924WAT     H166014   6.308   9.227   2.816
21924WAT     H266015   6.230   9.218   2.673
21925WAT      O66016   6.997   1.436   8.546
21925WAT     H166017   7.033   1.345   8.566
21925WAT     H266018   6.985   1.486   8.632
21926WAT      O66019   0.254   5.044   2.548
21926WAT     H166020   0.320   5.068   2.619
21926WAT     H266021   0.167   5.089   2.566
21927WAT      O66022   3.807   2.580   6.297
21927WAT     H166023   3.720   2.590   6.345
21927WAT     H266024   3.881   2.572   6.364
21928WAT      O66025   7.964   3.018   4.380
21928WAT     H166026   8.047   3.072   4.365
21928WAT     H266027   7.941   3.018   4.477
21929WAT      O66028   7.790   2.428   2.692
21929WAT     H166029   7.799   2.508   2.632
21929WAT     H266030   7.699   2.425   2.732
21930WAT      O66031   3.987   3.825   1.801
21930WAT     H166032   3.902   3.841   1.851
21930WAT     H266033   4.061   3.807   1.866
21931WAT      O66034   1.457   5.023   4.225
21931WAT     H166035   1.423   5.029   4.131
21931WAT     H266036   1.472   5.115   4.261
21932WAT      O66037   6.531   1.647   3.350
21932WAT     H166038   6.539   1.636   3.449
21932WAT     H266039   6.522   1.744   3.328
21933WAT      O66040   0.125   7.922   1.139
21933WAT     H166041   0.103   7.890   1.047
21933WAT     H266042   0.207   7.875   1.172
21934WAT      O66043   6.708   1.019   8.951
21934WAT     H166044   6.805   1.037   8.933
21934WAT     H266045   6.695   0.998   9.048
21935WAT      O66046   1.219   7.440   6.508
21935WAT     H166047   1.126   7.403   6.518
21935WAT     H266048   1.267   7.434   6.596
21936WAT      O66049   6.972   7.501   7.477
21936WAT     H166050   7.070   7.519   7.492
21936WAT     H266051   6.926   7.586   7.451
21937WAT      O66052   4.334   0.819   1.166
21937WAT     H166053   4.395   0.767   1.105
21937WAT     H266054   4.326   0.771   1.253
21938WAT      O66055   1.488   7.985   6.675
21938WAT     H166056   1.561   7.919   6.684
21938WAT     H266057   1.401   7.938   6.664
21939WAT      O66058   0.569   3.320   3.711
21939WAT     H166059   0.528   3.260   3.642
21939WAT     H266060   0.513   3.402   3.721
21940WAT      O66061   1.759   0.439   2.522
21940WAT     H166062   1.791   0.361   2.468
21940WAT     H266063   1.659   0.438   2.527
21941WAT      O66064   9.030   1.677   6.820
21941WAT     H166065   8.983   1.665   6.733
21941WAT     H266066   8.968   1.717   6.887
21942WAT      O66067   0.370   5.771   8.921
21942WAT     H166068   0.435   5.695   8.919
21942WAT     H266069   0.337   5.785   9.014
21943WAT      O66070   6.783   2.261   5.448
21943WAT     H166071   6.856   2.329   5.439
21943WAT     H266072   6.767   2.218   5.359
21944WAT      O66073   2.083   9.198   2.622
21944WAT     H166074   2.136   9.139   2.562
21944WAT     H266075   2.118   9.191   2.715
21945WAT      O66076   7.869   1.595   0.091
21945WAT     H166077   7.859   1.664   0.019
21945WAT     H266078   7.896   1.508   0.050
21946WAT      O66079   4.384   4.382   2.894
21946WAT     H166080   4.423   4.458   2.842
21946WAT     H266081   4.299   4.411   2.938
21947WAT      O66082   5.313   2.391   6.276
21947WAT     H166083   5.250   2.413   6.350
21947WAT     H266084   5.275   2.421   6.189
21948WAT      O66085   5.379   4.949   7.719
21948WAT     H166086   5.284   4.917   7.717
21948WAT     H266087   5.410   4.953   7.814
21949WAT      O66088   5.825   9.016   1.592
21949WAT     H166089   5.738   8.966   1.594
21949WAT     H266090   5.874   8.994   1.508
21950WAT      O66091   8.568   8.672   2.045
21950WAT     H166092   8.664   8.686   2.071
21950WAT     H266093   8.550   8.574   2.035
21951WAT      O66094   0.522   0.176   1.454
21951WAT     H166095   0.443   0.123   1.424
21951WAT     H266096   0.573   0.123   1.522
21952WAT      O66097   4.670   8.991   1.181
21952WAT     H166098   4.676   8.942   1.268
21952WAT     H266099   4.594   9.056   1.185
21953WAT      O66100   3.852   1.667   1.694
21953WAT     H166101   3.939   1.690   1.650
21953WAT     H266102   3.833   1.569   1.682
21954WAT      O66103   7.051   1.369   8.262
21954WAT     H166104   7.082   1.276   8.241
21954WAT     H266105   7.006   1.369   8.351
21955WAT      O66106   7.474   0.122   8.731
21955WAT     H166107   7.454   0.078   8.818
21955WAT     H266108   7.505   0.053   8.665
21956WAT      O66109   2.197   8.435   1.775
21956WAT     H166110   2.170   8.519   1.728
21956WAT     H266111   2.120   8.401   1.829
21957WAT      O66112   5.368   1.439   6.850
21957WAT     H166113   5.384   1.349   6.889
21957WAT     H266114   5.418   1.508   6.903
21958WAT      O66115   3.729   4.186   1.197
21958WAT     H166116   3.660   4.253   1.225
21958WAT     H266117   3.693   4.129   1.124
21959WAT      O66118   5.246   7.889   5.270
21959WAT     H166119   5.294   7.809   5.236
21959WAT     H266120   5.312   7.957   5.302
21960WAT      O66121   2.418   8.613   7.022
21960WAT     H166122   2.390   8.553   6.946
21960WAT     H266123   2.336   8.647   7.069
21961WAT      O66124   3.549   0.893   7.959
21961WAT     H166125   3.557   0.801   7.999
21961WAT     H266126   3.480   0.891   7.887
21962WAT      O66127   7.880   1.320   9.506
21962WAT     H166128   7.965   1.322   9.559
21962WAT     H266129   7.891   1.376   9.424
21963WAT      O66130   7.954   7.152   7.650
21963WAT     H166131   7.956   7.179   7.746
21963WAT     H266132   7.860   7.138   7.621
21964WAT      O66133   3.119   7.038   6.879
21964WAT     H166134   3.133   7.111   6.946
21964WAT     H266135   3.208   7.007   6.844
21965WAT      O66136   4.924   6.044   8.330
21965WAT     H166137   4.925   5.969   8.264
21965WAT     H266138   4.929   6.007   8.422
21966WAT      O66139   6.189   2.648   4.043
21966WAT     H166140   6.225   2.712   4.110
21966WAT     H266141   6.239   2.657   3.957
21967WAT      O66142   8.878   1.410   5.271
21967WAT     H166143   8.893   1.322   5.226
21967WAT     H266144   8.949   1.474   5.242
21968WAT      O66145   0.445   0.838   8.302
21968WAT     H166146   0.430   0.739   8.308
21968WAT     H266147   0.501   0.868   8.379
21969WAT      O66148   6.147   4.240   5.420
21969WAT     H166149   6.137   4.147   5.387
21969WAT     H266150   6.163   4.302   5.343
21970WAT      O66151   9.353   5.872   7.115
21970WAT     H166152   9.441   5.825   7.106
21970WAT     H266153   9.349   5.919   7.203
21971WAT      O66154   0.541   3.197   0.228
21971WAT     H166155   0.472   3.175   0.159
21971WAT     H266156   0.566   3.294   0.221
21972WAT      O66157   7.035   8.241   6.739
21972WAT     H166158   6.967   8.291   6.685
21972WAT     H266159   7.011   8.244   6.836
21973WAT      O66160   1.118   3.582   3.528
21973WAT     H166161   1.022   3.587   3.501
21973WAT     H266162   1.163   3.509   3.476
21974WAT      O66163   5.298   5.780   4.441
21974WAT     H166164   5.327   5.836   4.518
21974WAT     H266165   5.221   5.723   4.468
21975WAT      O66166   8.680   1.780   9.562
21975WAT     H166167   8.679   1.732   9.475
21975WAT     H266168   8.609   1.851   9.562
21976WAT      O66169   6.264   8.547   4.714
21976WAT     H166170   6.299   8.566   4.622
21976WAT     H266171   6.254   8.449   4.727
21977WAT      O66172   8.458   8.363   4.089
21977WAT     H166173   8.383   8.380   4.025
21977WAT     H266174   8.421   8.346   4.180
21978WAT      O66175   8.651   5.532   5.015
21978WAT     H166176   8.673   5.539   5.112
21978WAT     H266177   8.724   5.574   4.961
21979WAT      O66178   3.475   2.655   7.031
21979WAT     H166179   3.465   2.596   6.951
21979WAT     H266180   3.517   2.742   7.003
21980WAT      O66181   3.291   8.520   1.223
21980WAT     H166182   3.289   8.542   1.126
21980WAT     H266183   3.370   8.565   1.266
21981WAT      O66184   4.531   5.386   0.392
21981WAT     H166185   4.592   5.456   0.430
21981WAT     H266186   4.505   5.322   0.464
21982WAT      O66187   2.112   7.023   3.155
21982WAT     H166188   2.084   6.977   3.239
21982WAT     H266189   2.113   7.122   3.169
21983WAT      O66190   7.706   9.306   8.356
21983WAT     H166191   7.634   9.247   8.320
21983WAT     H266192   7.664   9.390   8.392
21984WAT      O66193   3.878   8.381   4.956
21984WAT     H166194   3.841   8.299   4.999
21984WAT     H266195   3.951   8.418   5.012
21985WAT      O66196   9.607   9.512   7.245
21985WAT     H166197   9.570   9.567   7.320
21985WAT     H266198   9.648   9.572   7.177
21986WAT      O66199   3.816   8.463   2.787
21986WAT     H166200   3.825   8.405   2.868
21986WAT     H266201   3.904   8.470   2.741
21987WAT      O66202   8.003   1.795   2.959
21987WAT     H166203   7.969   1.703   2.976
21987WAT     H266204   7.939   1.862   2.996
21988WAT      O66205   8.454   7.415   1.510
21988WAT     H166206   8.396   7.495   1.525
21988WAT     H266207   8.507   7.427   1.427
21989WAT      O66208   6.662   0.605   1.986
21989WAT     H166209   6.660   0.527   1.923
21989WAT     H266210   6.746   0.603   2.039
21990WAT      O66211   3.530   5.474   4.168
21990WAT     H166212   3.491   5.561   4.198
21990WAT     H266213   3.630   5.480   4.168
21991WAT      O66214   6.148   9.228   3.273
21991WAT     H166215   6.104   9.208   3.185
21991WAT     H266216   6.200   9.313   3.265
21992WAT      O66217   8.452   9.662   2.511
21992WAT     H166218   8.367   9.701   2.546
21992WAT     H266219   8.520   9.657   2.584
21993WAT      O66220   9.850   0.064   7.623
21993WAT     H166221   9.922   0.052   7.555
21993WAT     H266222   9.889   0.053   7.715
21994WAT      O66223   6.540   7.573   8.037
21994WAT     H166224   6.595   7.594   8.118
21994WAT     H266225   6.553   7.477   8.012
21995WAT      O66226   4.057   2.535   9.721
21995WAT     H166227   4.039   2.477   9.641
21995WAT     H266228   4.153   2.562   9.721
21996WAT      O66229   3.848   1.139   4.866
21996WAT     H166230   3.888   1.221   4.827
21996WAT     H266231   3.919   1.087   4.914
21997WAT      O66232   2.135   1.470   8.615
21997WAT     H166233   2.071   1.544   8.591
21997WAT     H266234   2.189   1.446   8.535
21998WAT      O66235   2.984   7.189   9.517
21998WAT     H166236   2.994   7.209   9.420
21998WAT     H266237   3.063   7.137   9.549
21999WAT      O66238   3.915   6.509   0.103
21999WAT     H166239   3.853   6.581   0.072
21999WAT     H266240   3.881   6.420   0.072
22000WAT      O66241   0.614   6.257   6.650
22000WAT     H166242   0.711   6.247   6.673
22000WAT     H266243   0.598   6.345   6.605
22001WAT      O66244   2.008   9.766   0.591
22001WAT     H166245   2.099   9.787   0.556
22001WAT     H266246   1.979   9.840   0.652
22002WAT      O66247   2.443   4.553   0.118
22002WAT     H166248   2.516   4.486   0.134
22002WAT     H266249   2.408   4.543   0.025
22003WAT      O66250   9.714   8.614   6.211
22003WAT     H166251   9.762   8.649   6.131
22003WAT     H266252   9.674   8.690   6.262
22004WAT      O66253   0.726   8.255   7.945
22004WAT     H166254   0.713   8.273   7.848
22004WAT     H266255   0.648   8.289   7.997
22005WAT      O66256   3.910   2.969   6.857
22005WAT     H166257   3.878   3.030   6.930
22005WAT     H266258   3.869   2.879   6.869
22006WAT      O66259   2.511   3.966   2.773
22006WAT     H166260   2.585   3.899   2.779
22006WAT     H266261   2.498   3.992   2.678
22007WAT      O66262   4.569   7.635   7.569
22007WAT     H166263   4.485   7.600   7.610
22007WAT     H266264   4.588   7.727   7.603
22008WAT      O66265   5.149   2.979   0.143
22008WAT     H166266   5.199   2.992   0.228
22008WAT     H266267   5.183   2.898   0.095
22009WAT      O66268   7.094   4.482   6.980
22009WAT     H166269   7.008   4.430   6.986
22009WAT     H266270   7.136   4.466   6.891
22010WAT      O66271   1.952   0.172   0.746
22010WAT     H166272   1.885   0.229   0.698
22010WAT     H266273   1.936   0.178   0.844
22011WAT      O66274   5.090   6.186   6.376
22011WAT     H166275   5.149   6.200   6.455
22011WAT     H266276   4.999   6.159   6.408
22012WAT      O66277   0.065   4.799   3.130
22012WAT     H166278  -0.010   4.755   3.178
22012WAT     H266279   0.029   4.872   3.071
22013WAT      O66280   2.195   8.158   7.754
22013WAT     H166281   2.124   8.228   7.749
22013WAT     H266282   2.284   8.201   7.763
22014WAT      O66283   4.740   5.550   9.245
22014WAT     H166284   4.645   5.532   9.266
22014WAT     H266285   4.772   5.485   9.175
22015WAT      O66286   6.129   1.240   6.164
22015WAT     H166287   6.086   1.166   6.112
22015WAT     H266288   6.103   1.328   6.123
22016WAT      O66289   8.160   0.768   6.729
22016WAT     H166290   8.228   0.717   6.781
22016WAT     H266291   8.188   0.773   6.633
22017WAT      O66292   9.580   0.579   6.416
22017WAT     H166293   9.634   0.531   6.347
22017WAT     H266294   9.639   0.603   6.493
22018WAT      O66295   9.209   8.764   4.684
22018WAT     H166296   9.304   8.745   4.658
22018WAT     H266297   9.207   8.830   4.759
22019WAT      O66298   9.526   2.814   1.672
22019WAT     H166299   9.515   2.720   1.641
22019WAT     H266300   9.448   2.869   1.640
22020WAT      O66301   3.455   2.112   9.679
22020WAT     H166302   3.439   2.094   9.776
22020WAT     H266303   3.533   2.174   9.669
22021WAT      O66304   3.126   5.292   6.187
22021WAT     H166305   3.049   5.327   6.240
22021WAT     H266306   3.204   5.355   6.194
22022WAT      O66307   8.013   7.811   5.646
22022WAT     H166308   7.989   7.799   5.550
22022WAT     H266309   8.113   7.810   5.656
22023WAT      O66310   7.674   7.496   3.335
22023WAT     H166311   7.633   7.574   3.288
22023WAT     H266312   7.737   7.529   3.405
22024WAT      O66313   9.746   6.670   5.771
22024WAT     H166314   9.718   6.662   5.866
22024WAT     H266315   9.842   6.642   5.761
22025WAT      O66316   0.760   1.031   6.489
22025WAT     H166317   0.783   1.119   6.446
22025WAT     H266318   0.698   0.980   6.428
22026WAT      O66319   6.168   3.962   5.276
22026WAT     H166320   6.100   3.896   5.244
22026WAT     H266321   6.217   4.001   5.198
22027WAT      O66322   8.257   5.262   3.684
22027WAT     H166323   8.330   5.227   3.742
22027WAT     H266324   8.297   5.319   3.612
22028WAT      O66325   6.499   0.604   0.342
22028WAT     H166326   6.437   0.528   0.321
22028WAT     H266327   6.582   0.568   0.385
22029WAT      O66328   2.181   3.229   0.256
22029WAT     H166329   2.223   3.157   0.310
22029WAT     H266330   2.113   3.189   0.194
22030WAT      O66331   8.773   3.628   1.973
22030WAT     H166332   8.787   3.668   2.063
22030WAT     H266333   8.679   3.593   1.967
22031WAT      O66334   5.190   2.940   2.509
22031WAT     H166335   5.249   2.878   2.561
22031WAT     H266336   5.245   3.016   2.475
22032WAT      O66337   2.035   6.483   5.825
22032WAT     H166338   1.943   6.522   5.819
22032WAT     H266339   2.068   6.462   5.734
22033WAT      O66340   7.146   7.280   4.380
22033WAT     H166341   7.188   7.256   4.293
22033WAT     H266342   7.159   7.206   4.446
22034WAT      O66343   0.084   1.141   9.601
22034WAT     H166344   0.024   1.210   9.641
22034WAT     H266345   0.101   1.163   9.505
22035WAT      O66346   0.232   5.819   2.578
22035WAT     H166347   0.221   5.802   2.480
22035WAT     H266348   0.204   5.738   2.630
22036WAT      O66349   2.678   4.968   2.173
22036WAT     H166350   2.734   5.049   2.192
22036WAT     H266351   2.585   4.996   2.151
22037WAT      O66352   7.469   7.899   6.039
22037WAT     H166353   7.490   7.826   6.105
22037WAT     H266354   7.392   7.954   6.073
22038WAT      O66355   1.117   0.762   5.329
22038WAT     H166356   1.173   0.810   5.262
22038WAT     H266357   1.130   0.802   5.419
22039WAT      O66358   4.516   0.112   9.651
22039WAT     H166359   4.599   0.117   9.594
22039WAT     H266360   4.439   0.151   9.601
22040WAT      O66361   7.340   4.444   9.292
22040WAT     H166362   7.379   4.352   9.298
22040WAT     H266363   7.307   4.473   9.382
22041WAT      O66364   4.457   8.519   8.392
22041WAT     H166365   4.371   8.503   8.439
22041WAT     H266366   4.475   8.444   8.328
22042WAT      O66367   1.823   2.276   7.107
22042WAT     H166368   1.908   2.252   7.153
22042WAT     H266369   1.764   2.327   7.170
22043WAT      O66370   3.651   6.716   7.749
22043WAT     H166371   3.701   6.720   7.836
22043WAT     H266372   3.572   6.655   7.759
22044WAT      O66373   8.746   3.693   9.570
22044WAT     H166374   8.700   3.685   9.658
22044WAT     H266375   8.824   3.631   9.566
22045WAT      O66376   4.957   2.957   1.087
22045WAT     H166377   4.948   2.902   1.004
22045WAT     H266378   5.022   2.913   1.150
22046WAT      O66379   1.555   6.013   5.960
22046WAT     H166380   1.572   5.939   5.894
22046WAT     H266381   1.463   6.003   5.997
22047WAT      O66382   0.391   3.878   2.262
22047WAT     H166383   0.302   3.856   2.223
22047WAT     H266384   0.397   3.841   2.355
22048WAT      O66385   3.691   8.082   5.423
22048WAT     H166386   3.783   8.093   5.385
22048WAT     H266387   3.624   8.076   5.349
22049WAT      O66388   8.437   8.780   5.691
22049WAT     H166389   8.510   8.773   5.622
22049WAT     H266390   8.400   8.873   5.691
22050WAT      O66391   6.683   6.814   3.450
22050WAT     H166392   6.740   6.875   3.395
22050WAT     H266393   6.719   6.809   3.543
22051WAT      O66394   6.942   3.304   5.353
22051WAT     H166395   6.919   3.207   5.352
22051WAT     H266396   7.016   3.319   5.418
22052WAT      O66397   6.699   1.962   9.731
22052WAT     H166398   6.790   1.962   9.770
22052WAT     H266399   6.702   1.926   9.638
22053WAT      O66400   6.216   4.947   1.714
22053WAT     H166401   6.172   4.877   1.770
22053WAT     H266402   6.212   5.035   1.760
22054WAT      O66403   5.481   0.677   6.173
22054WAT     H166404   5.577   0.657   6.195
22054WAT     H266405   5.438   0.595   6.137
22055WAT      O66406   3.653   8.228   7.659
22055WAT     H166407   3.652   8.243   7.560
22055WAT     H266408   3.592   8.152   7.682
22056WAT      O66409   7.559   8.806   7.223
22056WAT     H166410   7.641   8.858   7.249
22056WAT     H266411   7.563   8.787   7.125
22057WAT      O66412   2.969   1.701   4.052
22057WAT     H166413   2.917   1.726   3.970
22057WAT     H266414   2.972   1.778   4.115
22058WAT      O66415   5.092   9.256   9.787
22058WAT     H166416   5.131   9.192   9.720
22058WAT     H266417   5.010   9.298   9.749
22059WAT      O66418   0.286   0.682   6.415
22059WAT     H166419   0.307   0.584   6.417
22059WAT     H266420   0.304   0.718   6.323
22060WAT      O66421   3.133   0.748   7.725
22060WAT     H166422   3.104   0.838   7.693
22060WAT     H266423   3.074   0.717   7.799
22061WAT      O66424   0.753   1.447   4.501
22061WAT     H166425   0.774   1.541   4.477
22061WAT     H266426   0.834   1.404   4.543
22062WAT      O66427   0.413   7.766   3.061
22062WAT     H166428   0.510   7.781   3.081
22062WAT     H266429   0.358   7.835   3.108
22063WAT      O66430   5.944   5.861   6.346
22063WAT     H166431   5.890   5.778   6.336
22063WAT     H266432   6.030   5.840   6.392
22064WAT      O66433   0.575   3.213   9.665
22064WAT     H166434   0.665   3.173   9.683
22064WAT     H266435   0.585   3.288   9.599
22065WAT      O66436   4.789   7.808   3.402
22065WAT     H166437   4.809   7.862   3.483
22065WAT     H266438   4.785   7.711   3.426
22066WAT      O66439   1.794   2.787   5.754
22066WAT     H166440   1.789   2.795   5.853
22066WAT     H266441   1.775   2.876   5.712
22067WAT      O66442   3.324   7.264   1.458
22067WAT     H166443   3.410   7.234   1.418
22067WAT     H266444   3.276   7.186   1.498
22068WAT      O66445   2.085   3.812   8.184
22068WAT     H166446   2.011   3.877   8.201
22068WAT     H266447   2.095   3.751   8.263
22069WAT      O66448   4.364   4.016   1.454
22069WAT     H166449   4.288   4.002   1.390
22069WAT     H266450   4.342   3.973   1.542
22070WAT      O66451   5.884   5.721   7.215
22070WAT     H166452   5.897   5.817   7.243
22070WAT     H266453   5.907   5.661   7.292
22071WAT      O66454   5.844   8.028   6.545
22071WAT     H166455   5.821   7.987   6.457
22071WAT     H266456   5.936   8.000   6.572
22072WAT      O66457   1.734   0.180   1.233
22072WAT     H166458   1.689   0.104   1.280
22072WAT     H266459   1.681   0.205   1.152
22073WAT      O66460   4.325   0.584   2.881
22073WAT     H166461   4.266   0.661   2.857
22073WAT     H266462   4.325   0.572   2.980
22074WAT      O66463   7.415   3.566   4.706
22074WAT     H166464   7.415   3.572   4.806
22074WAT     H266465   7.375   3.479   4.679
22075WAT      O66466   2.521   3.591   9.108
22075WAT     H166467   2.521   3.525   9.033
22075WAT     H266468   2.500   3.543   9.194
22076WAT      O66469   8.857   3.874   1.536
22076WAT     H166470   8.951   3.879   1.572
22076WAT     H266471   8.817   3.785   1.560
22077WAT      O66472   0.255   7.575   8.548
22077WAT     H166473   0.311   7.643   8.501
22077WAT     H266474   0.253   7.596   8.646
22078WAT      O66475   1.320   0.065   2.054
22078WAT     H166476   1.224   0.039   2.066
22078WAT     H266477   1.344   0.059   1.957
22079WAT      O66478   2.102   2.831   2.178
22079WAT     H166479   2.085   2.833   2.080
22079WAT     H266480   2.127   2.738   2.205
22080WAT      O66481   8.772   9.368   6.465
22080WAT     H166482   8.756   9.330   6.556
22080WAT     H266483   8.848   9.433   6.470
22081WAT      O66484   2.292   9.694   8.156
22081WAT     H166485   2.339   9.696   8.068
22081WAT     H266486   2.299   9.784   8.200
22082WAT      O66487   1.165   4.787   8.942
22082WAT     H166488   1.237   4.756   8.879
22082WAT     H266489   1.105   4.710   8.963
22083WAT      O66490   8.264   4.753   4.640
22083WAT     H166491   8.179   4.745   4.588
22083WAT     H266492   8.276   4.671   4.697
22084WAT      O66493   8.011   5.318   4.712
22084WAT     H166494   8.064   5.379   4.770
22084WAT     H266495   7.976   5.369   4.634
22085WAT      O66496   6.704   0.297   7.342
22085WAT     H166497   6.734   0.286   7.248
22085WAT     H266498   6.729   0.389   7.374
22086WAT      O66499   0.275   2.064   4.885
22086WAT     H166500   0.268   1.977   4.935
22086WAT     H266501   0.192   2.117   4.900
22087WAT      O66502   9.491   5.274   0.806
22087WAT     H166503   9.495   5.367   0.770
22087WAT     H266504   9.570   5.222   0.775
22088WAT      O66505   8.415   2.615   6.708
22088WAT     H166506   8.466   2.696   6.739
22088WAT     H266507   8.449   2.534   6.755
22089WAT      O66508   8.007   6.784   0.766
22089WAT     H166509   7.999   6.688   0.792
22089WAT     H266510   8.081   6.794   0.699
22090WAT      O66511   2.078   5.354   1.829
22090WAT     H166512   2.045   5.427   1.769
22090WAT     H266513   2.166   5.321   1.797
22091WAT      O66514   1.980   4.520   2.390
22091WAT     H166515   1.916   4.454   2.427
22091WAT     H266516   1.962   4.534   2.293
22092WAT      O66517   2.918   9.723   0.815
22092WAT     H166518   2.875   9.689   0.899
22092WAT     H266519   2.988   9.790   0.838
22093WAT      O66520   2.528   5.223   9.889
22093WAT     H166521   2.490   5.315   9.877
22093WAT     H266522   2.471   5.156   9.842
22094WAT      O66523   3.904   1.705   7.288
22094WAT     H166524   3.968   1.655   7.229
22094WAT     H266525   3.903   1.663   7.379
22095WAT      O66526   3.426   9.385   8.309
22095WAT     H166527   3.486   9.312   8.276
22095WAT     H266528   3.440   9.399   8.407
22096WAT      O66529   2.560   3.137   6.472
22096WAT     H166530   2.553   3.041   6.501
22096WAT     H266531   2.579   3.140   6.374
22097WAT      O66532   8.139   2.411   9.618
22097WAT     H166533   8.098   2.502   9.624
22097WAT     H266534   8.067   2.342   9.629
22098WAT      O66535   6.242   5.914   6.413
22098WAT     H166536   6.177   5.989   6.424
22098WAT     H266537   6.257   5.870   6.501
22099WAT      O66538   7.377   3.174   5.779
22099WAT     H166539   7.456   3.113   5.789
22099WAT     H266540   7.406   3.257   5.731
22100WAT      O66541   8.351   4.884   4.025
22100WAT     H166542   8.420   4.858   3.958
22100WAT     H266543   8.336   4.983   4.022
22101WAT      O66544   4.857   8.426   3.197
22101WAT     H166545   4.865   8.327   3.182
22101WAT     H266546   4.929   8.455   3.260
22102WAT      O66547   2.980   3.778   9.692
22102WAT     H166548   3.018   3.731   9.772
22102WAT     H266549   3.029   3.864   9.678
22103WAT      O66550   8.620   1.043   2.122
22103WAT     H166551   8.719   1.046   2.135
22103WAT     H266552   8.593   1.111   2.054
22104WAT      O66553   6.793   4.449   4.512
22104WAT     H166554   6.806   4.433   4.414
22104WAT     H266555   6.696   4.447   4.533
22105WAT      O66556   5.814   1.349   3.292
22105WAT     H166557   5.837   1.446   3.303
22105WAT     H266558   5.801   1.307   3.382
22106WAT      O66559   8.839   2.793   6.852
22106WAT     H166560   8.808   2.819   6.944
22106WAT     H266561   8.900   2.863   6.816
22107WAT      O66562   3.026   4.741   4.593
22107WAT     H166563   3.054   4.657   4.639
22107WAT     H266564   2.927   4.754   4.605
22108WAT      O66565   9.096   2.158   3.283
22108WAT     H166566   9.087   2.061   3.259
22108WAT     H266567   9.121   2.210   3.201
22109WAT      O66568   3.323   4.106   8.753
22109WAT     H166569   3.281   4.189   8.789
22109WAT     H266570   3.306   4.100   8.654
22110WAT      O66571   8.659   0.728   1.630
22110WAT     H166572   8.630   0.653   1.690
22110WAT     H266573   8.630   0.815   1.670
22111WAT      O66574   5.455   0.808   5.911
22111WAT     H166575   5.423   0.901   5.892
22111WAT     H266576   5.442   0.787   6.008
22112WAT      O66577   6.042   7.098   0.444
22112WAT     H166578   6.048   7.164   0.519
22112WAT     H266579   6.000   7.014   0.477
22113WAT      O66580   5.281   3.009   8.091
22113WAT     H166581   5.233   3.063   8.021
22113WAT     H266582   5.363   2.968   8.050
22114WAT      O66583   6.631   1.169   8.612
22114WAT     H166584   6.589   1.236   8.550
22114WAT     H266585   6.599   1.186   8.705
22115WAT      O66586   9.644   6.565   1.026
22115WAT     H166587   9.554   6.560   1.069
22115WAT     H266588   9.712   6.594   1.094
22116WAT      O66589   7.270   8.735   9.192
22116WAT     H166590   7.221   8.651   9.215
22116WAT     H266591   7.245   8.807   9.257
22117WAT      O66592   3.338   5.323   8.702
22117WAT     H166593   3.255   5.365   8.738
22117WAT     H266594   3.412   5.391   8.702
22118WAT      O66595   0.959   6.490   0.094
22118WAT     H166596   0.965   6.528   0.002
22118WAT     H266597   0.874   6.438   0.103
22119WAT      O66598   5.420   3.041   6.446
22119WAT     H166599   5.393   3.020   6.540
22119WAT     H266600   5.375   2.977   6.384
22120WAT      O66601   3.631   4.160   7.406
22120WAT     H166602   3.592   4.202   7.324
22120WAT     H266603   3.567   4.170   7.482
22121WAT      O66604   7.445   5.370   6.642
22121WAT     H166605   7.397   5.423   6.712
22121WAT     H266606   7.507   5.305   6.685
22122WAT      O66607   6.326   5.824   9.251
22122WAT     H166608   6.337   5.837   9.350
22122WAT     H266609   6.392   5.881   9.202
22123WAT      O66610   3.782   7.832   1.325
22123WAT     H166611   3.830   7.871   1.403
22123WAT     H266612   3.691   7.874   1.318
22124WAT      O66613   6.917   7.737   2.791
22124WAT     H166614   6.886   7.825   2.828
22124WAT     H266615   6.848   7.667   2.808
22125WAT      O66616   7.282   3.186   9.031
22125WAT     H166617   7.378   3.170   9.009
22125WAT     H266618   7.239   3.101   9.062
22126WAT      O66619   6.198   8.602   8.678
22126WAT     H166620   6.256   8.683   8.681
22126WAT     H266621   6.248   8.527   8.636
22127WAT      O66622   5.676   7.632   1.488
22127WAT     H166623   5.694   7.636   1.586
22127WAT     H266624   5.650   7.723   1.455
22128WAT      O66625   4.964   1.273   9.841
22128WAT     H166626   4.886   1.312   9.890
22128WAT     H266627   5.046   1.328   9.859
22129WAT      O66628   4.797   0.868   9.033
22129WAT     H166629   4.748   0.785   9.062
22129WAT     H266630   4.837   0.852   8.943
22130WAT      O66631   2.714   5.945   1.722
22130WAT     H166632   2.715   5.984   1.630
22130WAT     H266633   2.633   5.889   1.734
22131WAT      O66634   3.694   5.159   2.210
22131WAT     H166635   3.724   5.204   2.126
22131WAT     H266636   3.649   5.073   2.188
22132WAT      O66637   9.568   9.071   9.784
22132WAT     H166638   9.566   8.972   9.796
22132WAT     H266639   9.561   9.093   9.687
22133WAT      O66640   0.203   4.626   0.499
22133WAT     H166641   0.212   4.638   0.400
22133WAT     H266642   0.196   4.528   0.520
22134WAT      O66643   4.240   3.168   7.631
22134WAT     H166644   4.280   3.076   7.624
22134WAT     H266645   4.178   3.182   7.554
22135WAT      O66646   6.709   1.635   8.223
22135WAT     H166647   6.627   1.638   8.280
22135WAT     H266648   6.790   1.643   8.280
22136WAT      O66649   5.663   1.617   9.880
22136WAT     H166650   5.640   1.625   9.977
22136WAT     H266651   5.596   1.558   9.834
22137WAT      O66652   6.447   7.928   8.705
22137WAT     H166653   6.470   7.919   8.802
22137WAT     H266654   6.499   8.004   8.666
22138WAT      O66655   1.245   6.531   8.058
22138WAT     H166656   1.199   6.442   8.053
22138WAT     H266657   1.338   6.522   8.022
22139WAT      O66658   0.694   0.481   5.792
22139WAT     H166659   0.767   0.478   5.724
22139WAT     H266660   0.684   0.392   5.836
22140WAT      O66661   7.597   7.050   6.543
22140WAT     H166662   7.612   7.045   6.642
22140WAT     H266663   7.522   6.989   6.517
22141WAT      O66664   7.551   3.729   8.381
22141WAT     H166665   7.524   3.731   8.477
22141WAT     H266666   7.576   3.635   8.356
22142WAT      O66667   0.449   5.945   7.270
22142WAT     H166668   0.545   5.919   7.268
22142WAT     H266669   0.395   5.877   7.221
22143WAT      O66670   3.364   0.593   8.509
22143WAT     H166671   3.310   0.663   8.462
22143WAT     H266672   3.448   0.634   8.545
22144WAT      O66673   2.320   9.060   9.867
22144WAT     H166674   2.293   9.002   9.790
22144WAT     H266675   2.259   9.043   9.945
22145WAT      O66676   9.391   7.908   3.462
22145WAT     H166677   9.414   7.888   3.557
22145WAT     H266678   9.300   7.950   3.457
22146WAT      O66679   7.082   9.668   1.288
22146WAT     H166680   7.035   9.693   1.203
22146WAT     H266681   7.063   9.572   1.309
22147WAT      O66682   5.223   5.588   2.770
22147WAT     H166683   5.226   5.537   2.684
22147WAT     H266684   5.249   5.683   2.755
22148WAT      O66685   4.328   6.675   1.871
22148WAT     H166686   4.363   6.726   1.793
22148WAT     H266687   4.256   6.612   1.840
22149WAT      O66688   1.360   0.993   6.461
22149WAT     H166689   1.377   0.911   6.515
22149WAT     H266690   1.261   1.011   6.457
22150WAT      O66691   4.532   9.471   2.684
22150WAT     H166692   4.547   9.406   2.759
22150WAT     H266693   4.567   9.561   2.711
22151WAT      O66694   6.455   6.404   6.176
22151WAT     H166695   6.490   6.452   6.256
22151WAT     H266696   6.358   6.425   6.164
22152WAT      O66697   2.302   6.700   5.746
22152WAT     H166698   2.306   6.678   5.843
22152WAT     H266699   2.385   6.749   5.719
22153WAT      O66700   4.016   8.636   6.905
22153WAT     H166701   4.085   8.583   6.857
22153WAT     H266702   3.987   8.587   6.988
22154WAT      O66703   3.769   0.380   5.096
22154WAT     H166704   3.861   0.347   5.115
22154WAT     H266705   3.768   0.427   5.008
22155WAT      O66706   8.010   1.903   0.426
22155WAT     H166707   8.020   1.985   0.483
22155WAT     H266708   8.101   1.872   0.398
22156WAT      O66709   5.329   4.448   6.034
22156WAT     H166710   5.303   4.413   5.944
22156WAT     H266711   5.251   4.495   6.075
22157WAT      O66712   7.891   3.072   0.861
22157WAT     H166713   7.962   3.096   0.927
22157WAT     H266714   7.803   3.067   0.908
22158WAT      O66715   2.429   2.116   4.115
22158WAT     H166716   2.388   2.182   4.178
22158WAT     H266717   2.459   2.164   4.032
22159WAT      O66718   6.162   7.171   0.714
22159WAT     H166719   6.250   7.126   0.698
22159WAT     H266720   6.174   7.243   0.784
22160WAT      O66721   2.877   3.006   3.946
22160WAT     H166722   2.937   2.946   3.893
22160WAT     H266723   2.828   2.952   4.015
22161WAT      O66724   2.383   9.055   4.641
22161WAT     H166725   2.318   9.098   4.704
22161WAT     H266726   2.459   9.118   4.624
22162WAT      O66727   0.956   2.558   2.803
22162WAT     H166728   0.878   2.497   2.793
22162WAT     H266729   0.937   2.626   2.873
22163WAT      O66730   5.594   5.407   8.309
22163WAT     H166731   5.630   5.361   8.227
22163WAT     H266732   5.517   5.465   8.283
22164WAT      O66733   4.594   8.977   6.070
22164WAT     H166734   4.667   8.982   6.138
22164WAT     H266735   4.507   9.003   6.113
22165WAT      O66736   9.076   1.666   3.435
22165WAT     H166737   9.149   1.598   3.430
22165WAT     H266738   9.064   1.696   3.530
22166WAT      O66739   5.652   3.204   6.221
22166WAT     H166740   5.648   3.216   6.320
22166WAT     H266741   5.566   3.164   6.189
22167WAT      O66742   1.330   7.241   8.374
22167WAT     H166743   1.313   7.143   8.366
22167WAT     H266744   1.400   7.268   8.308
22168WAT      O66745   2.039   8.193   8.915
22168WAT     H166746   1.996   8.104   8.898
22168WAT     H266747   1.973   8.266   8.900
22169WAT      O66748   0.512   4.754   2.863
22169WAT     H166749   0.588   4.736   2.801
22169WAT     H266750   0.545   4.755   2.957
22170WAT      O66751   0.640   6.994   1.219
22170WAT     H166752   0.592   7.010   1.132
22170WAT     H266753   0.597   7.047   1.291
22171WAT      O66754   7.341   1.168   6.636
22171WAT     H166755   7.404   1.163   6.713
22171WAT     H266756   7.372   1.240   6.573
22172WAT      O66757   7.051   7.417   0.886
22172WAT     H166758   7.101   7.356   0.825
22172WAT     H266759   7.029   7.502   0.838
22173WAT      O66760   6.250   6.908   6.889
22173WAT     H166761   6.347   6.930   6.902
22173WAT     H266762   6.201   6.989   6.857
22174WAT      O66763   6.883   0.049   3.798
22174WAT     H166764   6.948   0.125   3.802
22174WAT     H266765   6.827   0.057   3.716
22175WAT      O66766   1.165   1.596   7.223
22175WAT     H166767   1.108   1.560   7.297
22175WAT     H266768   1.130   1.564   7.135
22176WAT      O66769   5.455   4.252   1.228
22176WAT     H166770   5.414   4.171   1.271
22176WAT     H266771   5.413   4.334   1.266
22177WAT      O66772   3.228   7.952   4.158
22177WAT     H166773   3.318   7.945   4.202
22177WAT     H266774   3.231   8.024   4.089
22178WAT      O66775   6.446   0.146   9.293
22178WAT     H166776   6.473   0.089   9.371
22178WAT     H266777   6.515   0.216   9.277
22179WAT      O66778   8.833   8.483   9.348
22179WAT     H166779   8.761   8.542   9.383
22179WAT     H266780   8.922   8.517   9.377
22180WAT      O66781   8.728   9.195   1.220
22180WAT     H166782   8.658   9.159   1.159
22180WAT     H266783   8.784   9.262   1.171
22181WAT      O66784   1.015   8.430   8.687
22181WAT     H166785   0.963   8.344   8.686
22181WAT     H266786   1.065   8.439   8.601
22182WAT      O66787   2.474   5.541   1.394
22182WAT     H166788   2.523   5.615   1.439
22182WAT     H266789   2.526   5.509   1.315
22183WAT      O66790   8.210   3.316   2.281
22183WAT     H166791   8.229   3.275   2.193
22183WAT     H266792   8.287   3.303   2.343
22184WAT      O66793   1.896   6.495   0.891
22184WAT     H166794   1.972   6.433   0.874
22184WAT     H266795   1.868   6.488   0.987
22185WAT      O66796   5.290   9.835   5.362
22185WAT     H166797   5.252   9.911   5.309
22185WAT     H266798   5.382   9.857   5.392
22186WAT      O66799   1.371   1.450   4.255
22186WAT     H166800   1.280   1.425   4.289
22186WAT     H266801   1.378   1.549   4.246
22187WAT      O66802   1.128   9.355   2.109
22187WAT     H166803   1.053   9.410   2.072
22187WAT     H266804   1.137   9.373   2.207
22188WAT      O66805   1.813   5.098   3.736
22188WAT     H166806   1.825   5.197   3.725
22188WAT     H266807   1.838   5.053   3.650
22189WAT      O66808   4.539   5.128   1.169
22189WAT     H166809   4.533   5.174   1.080
22189WAT     H266810   4.501   5.187   1.240
22190WAT      O66811   5.062   5.733   6.508
22190WAT     H166812   5.055   5.641   6.469
22190WAT     H266813   4.980   5.751   6.564
22191WAT      O66814   4.019   8.102   8.209
22191WAT     H166815   4.027   8.199   8.185
22191WAT     H266816   4.102   8.054   8.182
22192WAT      O66817   4.698   5.593   7.776
22192WAT     H166818   4.734   5.535   7.703
22192WAT     H266819   4.598   5.589   7.775
22193WAT      O66820   3.618   3.963   4.676
22193WAT     H166821   3.623   3.863   4.678
22193WAT     H266822   3.625   3.998   4.769
22194WAT      O66823   7.399   1.199   8.991
22194WAT     H166824   7.375   1.292   9.019
22194WAT     H266825   7.378   1.135   9.066
22195WAT      O66826   0.456   4.054   6.996
22195WAT     H166827   0.383   4.038   7.062
22195WAT     H266828   0.472   4.153   6.987
22196WAT      O66829   4.634   7.465   9.364
22196WAT     H166830   4.573   7.469   9.285
22196WAT     H266831   4.644   7.557   9.403
22197WAT      O66832   8.110   8.212   2.240
22197WAT     H166833   8.092   8.297   2.289
22197WAT     H266834   8.029   8.188   2.185
22198WAT      O66835   0.528   5.178   3.505
22198WAT     H166836   0.498   5.272   3.518
22198WAT     H266837   0.624   5.169   3.529
22199WAT      O66838   2.902   7.188   2.372
22199WAT     H166839   2.816   7.204   2.421
22199WAT     H266840   2.978   7.221   2.426
22200WAT      O66841   7.564   2.042   1.332
22200WAT     H166842   7.572   2.012   1.427
22200WAT     H266843   7.543   2.140   1.329
22201WAT      O66844   1.648   2.834   7.622
22201WAT     H166845   1.660   2.767   7.549
22201WAT     H266846   1.714   2.815   7.695
22202WAT      O66847   0.242   8.076   2.269
22202WAT     H166848   0.153   8.056   2.227
22202WAT     H266849   0.313   8.020   2.226
22203WAT      O66850   6.420   6.122   2.702
22203WAT     H166851   6.401   6.046   2.639
22203WAT     H266852   6.366   6.110   2.786
22204WAT      O66853   6.957   5.098   4.456
22204WAT     H166854   7.041   5.043   4.450
22204WAT     H266855   6.976   5.181   4.509
22205WAT      O66856   3.508   1.496   5.946
22205WAT     H166857   3.528   1.586   5.907
22205WAT     H266858   3.443   1.506   6.022
22206WAT      O66859   6.036   0.567   9.618
22206WAT     H166860   6.081   0.589   9.531
22206WAT     H266861   6.017   0.651   9.668
22207WAT      O66862   6.515   3.699   1.530
22207WAT     H166863   6.598   3.654   1.497
22207WAT     H266864   6.496   3.780   1.475
22208WAT      O66865   1.149   4.489   7.573
22208WAT     H166866   1.076   4.497   7.641
22208WAT     H266867   1.113   4.513   7.483
22209WAT      O66868   6.903   2.315   1.592
22209WAT     H166869   6.953   2.230   1.581
22209WAT     H266870   6.946   2.370   1.663
22210WAT      O66871   5.010   8.154   2.296
22210WAT     H166872   4.965   8.221   2.236
22210WAT     H266873   4.966   8.065   2.284
22211WAT      O66874   1.329   1.455   5.772
22211WAT     H166875   1.278   1.405   5.702
22211WAT     H266876   1.399   1.396   5.811
22212WAT      O66877   3.101   5.345   3.417
22212WAT     H166878   3.193   5.372   3.447
22212WAT     H266879   3.068   5.270   3.475
22213WAT      O66880   5.257   8.370   1.179
22213WAT     H166881   5.349   8.356   1.217
22213WAT     H266882   5.217   8.453   1.218
22214WAT      O66883   9.078   1.425   8.959
22214WAT     H166884   9.074   1.514   9.005
22214WAT     H266885   9.173   1.402   8.939
22215WAT      O66886   1.735   5.095   4.539
22215WAT     H166887   1.662   5.145   4.587
22215WAT     H266888   1.768   5.150   4.463
22216WAT      O66889   9.642   5.043   3.084
22216WAT     H166890   9.549   5.010   3.071
22216WAT     H266891   9.651   5.135   3.045
22217WAT      O66892   5.489   4.163   6.590
22217WAT     H166893   5.453   4.211   6.670
22217WAT     H266894   5.413   4.120   6.540
22218WAT      O66895   6.158   6.779   6.683
22218WAT     H166896   6.112   6.695   6.714
22218WAT     H266897   6.197   6.826   6.762
22219WAT      O66898   7.371   6.228   1.635
22219WAT     H166899   7.296   6.245   1.698
22219WAT     H266900   7.458   6.247   1.679
22220WAT      O66901   5.216   9.374   2.482
22220WAT     H166902   5.259   9.303   2.426
22220WAT     H266903   5.183   9.334   2.568
22221WAT      O66904   1.808   3.291   1.516
22221WAT     H166905   1.813   3.384   1.551
22221WAT     H266906   1.791   3.292   1.417
22222WAT      O66907   5.370   1.411   4.475
22222WAT     H166908   5.356   1.477   4.402
22222WAT     H266909   5.466   1.411   4.502
22223WAT      O66910   8.067   0.658   3.342
22223WAT     H166911   8.158   0.618   3.354
22223WAT     H266912   8.037   0.699   3.429
22224WAT      O66913   4.095   9.457   8.283
22224WAT     H166914   4.126   9.387   8.219
22224WAT     H266915   4.142   9.446   8.370
22225WAT      O66916   1.341   0.379   9.440
22225WAT     H166917   1.403   0.422   9.506
22225WAT     H266918   1.303   0.295   9.478
22226WAT      O66919   9.678   2.154   6.298
22226WAT     H166920   9.703   2.251   6.295
22226WAT     H266921   9.580   2.145   6.277
22227WAT      O66922   0.857   7.548   3.078
22227WAT     H166923   0.941   7.561   3.027
22227WAT     H266924   0.854   7.455   3.116
22228WAT      O66925   2.435   9.357   4.992
22228WAT     H166926   2.411   9.387   5.084
22228WAT     H266927   2.353   9.322   4.946
22229WAT      O66928   8.317   3.391   6.295
22229WAT     H166929   8.413   3.388   6.325
22229WAT     H266930   8.263   3.328   6.351
22230WAT      O66931   7.900   3.335   4.199
22230WAT     H166932   7.995   3.305   4.200
22230WAT     H266933   7.840   3.254   4.195
22231WAT      O66934   6.787   1.561   3.310
22231WAT     H166935   6.761   1.469   3.339
22231WAT     H266936   6.706   1.619   3.310
22232WAT      O66937   8.539   7.126   1.142
22232WAT     H166938   8.565   7.094   1.233
22232WAT     H266939   8.606   7.093   1.075
22233WAT      O66940   2.284   7.597   7.744
22233WAT     H166941   2.374   7.603   7.788
22233WAT     H266942   2.236   7.684   7.756
22234WAT      O66943   0.396   6.008   2.642
22234WAT     H166944   0.368   6.087   2.588
22234WAT     H266945   0.355   5.926   2.605
22235WAT      O66946   7.564   0.121   6.317
22235WAT     H166947   7.507   0.106   6.398
22235WAT     H266948   7.533   0.202   6.268
22236WAT      O66949   7.554   0.109   9.464
22236WAT     H166950   7.622   0.035   9.464
22236WAT     H266951   7.532   0.135   9.558
22237WAT      O66952   8.654   4.852   0.797
22237WAT     H166953   8.752   4.835   0.808
22237WAT     H266954   8.639   4.950   0.785
22238WAT      O66955   0.181   0.165   4.801
22238WAT     H166956   0.270   0.183   4.761
22238WAT     H266957   0.128   0.250   4.805
22239WAT      O66958   2.985   9.007   1.687
22239WAT     H166959   3.000   8.994   1.589
22239WAT     H266960   3.065   9.051   1.727
22240WAT      O66961   1.914   4.943   2.283
22240WAT     H166962   1.924   4.877   2.208
22240WAT     H266963   1.950   4.903   2.367
22241WAT      O66964   0.074   3.685   8.941
22241WAT     H166965   0.083   3.588   8.964
22241WAT     H266966   0.149   3.736   8.983
22242WAT      O66967   2.659   4.489   6.734
22242WAT     H166968   2.692   4.479   6.828
22242WAT     H266969   2.606   4.409   6.708
22243WAT      O66970   0.461   7.650   8.155
22243WAT     H166971   0.535   7.583   8.146
22243WAT     H266972   0.392   7.633   8.085
22244WAT      O66973   2.817   6.650   5.842
22244WAT     H166974   2.860   6.564   5.817
22244WAT     H266975   2.739   6.667   5.782
22245WAT      O66976   8.638   1.503   8.366
22245WAT     H166977   8.563   1.532   8.427
22245WAT     H266978   8.714   1.566   8.376
22246WAT      O66979   0.005   0.806   0.513
22246WAT     H166980  -0.054   0.855   0.448
22246WAT     H266981   0.063   0.742   0.463
22247WAT      O66982   8.895   0.212   3.343
22247WAT     H166983   8.834   0.147   3.389
22247WAT     H266984   8.990   0.180   3.351
22248WAT      O66985   2.794   1.003   8.673
22248WAT     H166986   2.849   1.086   8.669
22248WAT     H266987   2.830   0.942   8.744
22249WAT      O66988   9.232   5.864   4.994
22249WAT     H166989   9.284   5.908   5.067
22249WAT     H266990   9.294   5.807   4.939
22250WAT      O66991   0.154   4.770   6.338
22250WAT     H166992   0.193   4.770   6.245
22250WAT     H266993   0.227   4.774   6.405
22251WAT      O66994   5.147   8.913   3.365
22251WAT     H166995   5.242   8.909   3.335
22251WAT     H266996   5.093   8.964   3.298
22252WAT      O66997   0.816   2.760   1.343
22252WAT     H166998   0.908   2.797   1.336
22252WAT     H266999   0.756   2.825   1.390
22253WAT      O67000   4.799   0.591   1.590
22253WAT     H167001   4.842   0.622   1.505
22253WAT     H267002   4.863   0.601   1.666
22254WAT      O67003   5.322   9.679   6.756
22254WAT     H167004   5.402   9.645   6.707
22254WAT     H267005   5.292   9.765   6.714
22255WAT      O67006   8.995   4.364   7.303
22255WAT     H167007   9.006   4.303   7.382
22255WAT     H267008   8.979   4.310   7.221
22256WAT      O67009   8.693   2.155   4.273
22256WAT     H167010   8.742   2.242   4.275
22256WAT     H267011   8.607   2.165   4.224
22257WAT      O67012   1.579   3.012   2.989
22257WAT     H167013   1.549   3.101   2.954
22257WAT     H267014   1.587   3.016   3.088
22258WAT      O67015   9.570   9.160   9.517
22258WAT     H167016   9.489   9.160   9.459
22258WAT     H267017   9.652   9.166   9.461
22259WAT      O67018   7.563   1.051   0.996
22259WAT     H167019   7.567   1.150   1.011
22259WAT     H267020   7.627   1.026   0.924
22260WAT      O67021   9.388   8.589   6.374
22260WAT     H167022   9.301   8.610   6.419
22260WAT     H267023   9.385   8.620   6.279
22261WAT      O67024   2.186   1.528   0.592
22261WAT     H167025   2.157   1.606   0.536
22261WAT     H267026   2.272   1.551   0.639
22262WAT      O67027   3.892   8.557   9.376
22262WAT     H167028   3.940   8.489   9.322
22262WAT     H267029   3.824   8.513   9.435
22263WAT      O67030   9.544   2.512   6.053
22263WAT     H167031   9.519   2.604   6.020
22263WAT     H267032   9.636   2.489   6.021
22264WAT      O67033   3.013   6.647   2.345
22264WAT     H167034   3.063   6.734   2.345
22264WAT     H267035   2.916   6.664   2.329
22265WAT      O67036   5.926   1.672   5.113
22265WAT     H167037   5.910   1.639   5.020
22265WAT     H267038   5.839   1.699   5.155
22266WAT      O67039   2.558   2.106   9.071
22266WAT     H167040   2.518   2.024   9.113
22266WAT     H267041   2.654   2.089   9.050
22267WAT      O67042   3.576   4.975   6.469
22267WAT     H167043   3.571   5.070   6.497
22267WAT     H267044   3.508   4.957   6.398
22268WAT      O67045   9.839   4.360   5.361
22268WAT     H167046   9.888   4.444   5.385
22268WAT     H267047   9.906   4.290   5.334
22269WAT      O67048   5.546   5.297   0.673
22269WAT     H167049   5.626   5.281   0.732
22269WAT     H267050   5.557   5.244   0.589
22270WAT      O67051   5.486   0.854   5.444
22270WAT     H167052   5.538   0.915   5.504
22270WAT     H267053   5.482   0.763   5.486
22271WAT      O67054   3.407   2.600   5.913
22271WAT     H167055   3.322   2.586   5.862
22271WAT     H267056   3.386   2.640   6.002
22272WAT      O67057   3.669   4.003   0.751
22272WAT     H167058   3.680   3.904   0.742
22272WAT     H267059   3.684   4.047   0.663
22273WAT      O67060   1.741   7.073   7.734
22273WAT     H167061   1.784   6.988   7.764
22273WAT     H267062   1.715   7.064   7.637
22274WAT      O67063   4.084   7.618   4.525
22274WAT     H167064   3.995   7.586   4.556
22274WAT     H267065   4.080   7.637   4.427
22275WAT      O67066   8.468   5.070   8.417
22275WAT     H167067   8.492   5.040   8.510
22275WAT     H267068   8.551   5.073   8.361
22276WAT      O67069   4.879   6.660   2.052
22276WAT     H167070   4.867   6.717   2.133
22276WAT     H267071   4.969   6.677   2.013
22277WAT      O67072   0.089   4.272   4.650
22277WAT     H167073   0.009   4.233   4.695
22277WAT     H267074   0.091   4.242   4.554
22278WAT      O67075   6.400   9.723   4.562
22278WAT     H167076   6.334   9.792   4.531
22278WAT     H267077   6.431   9.746   4.654
22279WAT      O67078   0.736   6.608   4.234
22279WAT     H167079   0.712   6.704   4.220
22279WAT     H267080   0.711   6.581   4.327
22280WAT      O67081   0.418   3.712   4.723
22280WAT     H167082   0.393   3.696   4.818
22280WAT     H267083   0.379   3.798   4.692
22281WAT      O67084   9.615   7.247   4.940
22281WAT     H167085   9.710   7.218   4.953
22281WAT     H267086   9.555   7.167   4.948
22282WAT      O67087   4.176   8.766   7.476
22282WAT     H167088   4.255   8.827   7.477
22282WAT     H267089   4.138   8.760   7.569
22283WAT      O67090   8.983   5.628   9.062
22283WAT     H167091   9.008   5.535   9.091
22283WAT     H267092   8.894   5.625   9.015
22284WAT      O67093   4.525   6.187   5.840
22284WAT     H167094   4.551   6.147   5.752
22284WAT     H267095   4.428   6.212   5.838
22285WAT      O67096   5.568   8.844   1.643
22285WAT     H167097   5.563   8.849   1.743
22285WAT     H267098   5.568   8.748   1.615
22286WAT      O67099   2.495   9.493   2.193
22286WAT     H167100   2.562   9.427   2.227
22286WAT     H267101   2.410   9.485   2.247
22287WAT      O67102   1.933   9.249   6.902
22287WAT     H167103   1.920   9.347   6.918
22287WAT     H267104   1.845   9.207   6.881
22288WAT      O67105   2.835   2.399   1.735
22288WAT     H167106   2.928   2.414   1.768
22288WAT     H267107   2.800   2.484   1.693
22289WAT      O67108   6.177   9.839   8.136
22289WAT     H167109   6.110   9.808   8.068
22289WAT     H267110   6.137   9.835   8.227
22290WAT      O67111   8.424   9.160   0.361
22290WAT     H167112   8.353   9.090   0.350
22290WAT     H267113   8.514   9.117   0.364
22291WAT      O67114   2.925   0.706   9.845
22291WAT     H167115   2.853   0.744   9.903
22291WAT     H267116   2.983   0.780   9.811
22292WAT      O67117   6.589   7.270   3.321
22292WAT     H167118   6.665   7.275   3.257
22292WAT     H267119   6.554   7.362   3.340
22293WAT      O67120   8.137   7.652   7.679
22293WAT     H167121   8.066   7.627   7.613
22293WAT     H267122   8.106   7.731   7.732
22294WAT      O67123   1.444   1.016   5.222
22294WAT     H167124   1.497   0.989   5.142
22294WAT     H267125   1.462   1.112   5.242
22295WAT      O67126   2.667   9.212   3.751
22295WAT     H167127   2.583   9.263   3.733
22295WAT     H267128   2.738   9.275   3.783
22296WAT      O67129   1.185   2.904   5.998
22296WAT     H167130   1.208   2.868   6.088
22296WAT     H267131   1.269   2.932   5.950
22297WAT      O67132   4.810   2.401   7.324
22297WAT     H167133   4.870   2.331   7.284
22297WAT     H267134   4.847   2.430   7.412
22298WAT      O67135   3.527   5.389   0.434
22298WAT     H167136   3.473   5.405   0.351
22298WAT     H267137   3.557   5.477   0.471
22299WAT      O67138   1.481   8.228   9.844
22299WAT     H167139   1.567   8.269   9.874
22299WAT     H267140   1.500   8.141   9.798
22300WAT      O67141   7.177   3.581   6.885
22300WAT     H167142   7.263   3.560   6.840
22300WAT     H267143   7.101   3.541   6.833
22301WAT      O67144   8.323   2.629   2.579
22301WAT     H167145   8.310   2.709   2.522
22301WAT     H267146   8.421   2.615   2.596
22302WAT      O67147   7.260   8.138   7.451
22302WAT     H167148   7.177   8.085   7.469
22302WAT     H267149   7.338   8.076   7.442
22303WAT      O67150   6.923   1.570   1.354
22303WAT     H167151   6.999   1.598   1.295
22303WAT     H267152   6.954   1.501   1.418
22304WAT      O67153   2.668   9.627   0.368
22304WAT     H167154   2.711   9.561   0.306
22304WAT     H267155   2.723   9.635   0.451
22305WAT      O67156   8.547   5.972   0.649
22305WAT     H167157   8.499   5.889   0.619
22305WAT     H267158   8.645   5.959   0.639
22306WAT      O67159   7.806   5.146   9.250
22306WAT     H167160   7.787   5.161   9.153
22306WAT     H267161   7.736   5.192   9.305
22307WAT      O67162   5.398   8.377   5.489
22307WAT     H167163   5.349   8.465   5.486
22307WAT     H267164   5.496   8.393   5.486
22308WAT      O67165   6.990   4.593   8.896
22308WAT     H167166   6.892   4.594   8.913
22308WAT     H267167   7.035   4.534   8.965
22309WAT      O67168   2.461   3.242   0.813
22309WAT     H167169   2.421   3.197   0.733
22309WAT     H267170   2.426   3.335   0.820
22310WAT      O67171   4.952   5.854   4.242
22310WAT     H167172   4.888   5.859   4.165
22310WAT     H267173   4.912   5.797   4.315
22311WAT      O67174   5.526   3.004   1.314
22311WAT     H167175   5.482   3.066   1.249
22311WAT     H267176   5.562   3.056   1.391
22312WAT      O67177   5.836   7.394   9.325
22312WAT     H167178   5.869   7.488   9.316
22312WAT     H267179   5.859   7.360   9.416
22313WAT      O67180   9.612   3.638   0.446
22313WAT     H167181   9.650   3.550   0.472
22313WAT     H267182   9.514   3.628   0.426
22314WAT      O67183   9.765   9.027   6.141
22314WAT     H167184   9.708   8.974   6.204
22314WAT     H267185   9.708   9.061   6.066
22315WAT      O67186   1.101   8.194   0.815
22315WAT     H167187   1.146   8.160   0.733
22315WAT     H267188   1.160   8.259   0.861
22316WAT      O67189   6.827   5.607   8.833
22316WAT     H167190   6.760   5.595   8.760
22316WAT     H267191   6.841   5.521   8.881
22317WAT      O67192   6.748   2.374   9.878
22317WAT     H167193   6.786   2.314   9.808
22317WAT     H267194   6.771   2.338   9.969
22318WAT      O67195   4.431   4.135   6.949
22318WAT     H167196   4.370   4.097   7.018
22318WAT     H267197   4.484   4.210   6.988
22319WAT      O67198   6.162   1.596   3.255
22319WAT     H167199   6.246   1.603   3.201
22319WAT     H267200   6.102   1.528   3.214
22320WAT      O67201   4.939   8.092   5.993
22320WAT     H167202   5.023   8.134   5.958
22320WAT     H267203   4.962   8.031   6.068
22321WAT      O67204   2.491   3.465   4.950
22321WAT     H167205   2.580   3.442   4.910
22321WAT     H267206   2.456   3.387   5.002
22322WAT      O67207   4.947   6.474   9.502
22322WAT     H167208   4.913   6.462   9.408
22322WAT     H267209   4.973   6.569   9.516
22323WAT      O67210   6.092   1.975   1.830
22323WAT     H167211   6.167   2.039   1.845
22323WAT     H267212   6.011   2.026   1.801
22324WAT      O67213   0.081   9.521   3.603
22324WAT     H167214   0.178   9.539   3.587
22324WAT     H267215   0.071   9.442   3.664
22325WAT      O67216   8.538   6.618   7.141
22325WAT     H167217   8.519   6.574   7.052
22325WAT     H267218   8.556   6.548   7.209
22326WAT      O67219   2.083   3.547   8.336
22326WAT     H167220   2.109   3.513   8.427
22326WAT     H267221   2.013   3.488   8.297
22327WAT      O67222   9.562   3.132   1.407
22327WAT     H167223   9.603   3.201   1.346
22327WAT     H267224   9.527   3.057   1.352
22328WAT      O67225   2.885   3.720   2.599
22328WAT     H167226   2.797   3.703   2.644
22328WAT     H267227   2.892   3.664   2.517
22329WAT      O67228   1.513   1.333   4.601
22329WAT     H167229   1.559   1.248   4.576
22329WAT     H267230   1.575   1.410   4.586
22330WAT      O67231   8.527   5.352   7.384
22330WAT     H167232   8.531   5.256   7.410
22330WAT     H267233   8.464   5.364   7.307
22331WAT      O67234   7.549   6.977   2.503
22331WAT     H167235   7.607   7.048   2.543
22331WAT     H267236   7.587   6.950   2.414
22332WAT      O67237   7.988   5.207   3.456
22332WAT     H167238   8.063   5.145   3.482
22332WAT     H267239   7.921   5.211   3.531
22333WAT      O67240   0.993   1.926   8.209
22333WAT     H167241   1.033   1.998   8.265
22333WAT     H267242   1.051   1.908   8.130
22334WAT      O67243   2.148   8.381   0.130
22334WAT     H167244   2.090   8.445   0.180
22334WAT     H267245   2.097   8.344   0.052
22335WAT      O67246   7.541   1.271   1.523
22335WAT     H167247   7.512   1.180   1.493
22335WAT     H267248   7.610   1.307   1.460
22336WAT      O67249   6.622   5.230   6.288
22336WAT     H167250   6.530   5.213   6.323
22336WAT     H267251   6.653   5.151   6.234
22337WAT      O67252   2.774   1.800   6.995
22337WAT     H167253   2.755   1.892   7.030
22337WAT     H267254   2.841   1.756   7.054
22338WAT      O67255   2.473   9.760   5.247
22338WAT     H167256   2.515   9.851   5.242
22338WAT     H267257   2.463   9.734   5.343
22339WAT      O67258   8.449   5.534   6.124
22339WAT     H167259   8.486   5.615   6.169
22339WAT     H267260   8.525   5.478   6.089
22340WAT      O67261   8.480   0.031   6.277
22340WAT     H167262   8.414   0.026   6.352
22340WAT     H267263   8.447   0.095   6.207
22341WAT      O67264   6.193   7.757   0.769
22341WAT     H167265   6.213   7.668   0.730
22341WAT     H267266   6.279   7.807   0.784
22342WAT      O67267   3.791   5.194   9.749
22342WAT     H167268   3.839   5.234   9.671
22342WAT     H267269   3.758   5.267   9.809
22343WAT      O67270   4.027   0.314   7.263
22343WAT     H167271   3.953   0.266   7.217
22343WAT     H267272   4.012   0.313   7.362
22344WAT      O67273   7.501   4.953   4.585
22344WAT     H167274   7.456   4.864   4.586
22344WAT     H267275   7.454   5.016   4.647
22345WAT      O67276   3.999   6.948   7.162
22345WAT     H167277   3.987   6.850   7.147
22345WAT     H267278   3.978   6.998   7.078
22346WAT      O67279   2.228   0.990   4.310
22346WAT     H167280   2.263   1.011   4.401
22346WAT     H267281   2.147   1.046   4.292
22347WAT      O67282   7.357   5.519   8.678
22347WAT     H167283   7.312   5.489   8.762
22347WAT     H267284   7.288   5.544   8.610
22348WAT      O67285   8.161   9.635   0.383
22348WAT     H167286   8.100   9.589   0.318
22348WAT     H267287   8.239   9.673   0.335
22349WAT      O67288   2.898   4.791   2.674
22349WAT     H167289   2.880   4.850   2.753
22349WAT     H267290   2.854   4.829   2.593
22350WAT      O67291   6.923   9.579   3.675
22350WAT     H167292   6.864   9.658   3.654
22350WAT     H267293   6.872   9.514   3.731
22351WAT      O67294   6.387   5.227   7.472
22351WAT     H167295   6.482   5.256   7.465
22351WAT     H267296   6.383   5.127   7.470
22352WAT      O67297   6.785   9.750   1.179
22352WAT     H167298   6.775   9.684   1.105
22352WAT     H267299   6.763   9.705   1.266
22353WAT      O67300   7.022   1.214   1.398
22353WAT     H167301   7.106   1.235   1.349
22353WAT     H267302   6.960   1.164   1.337
22354WAT      O67303   4.252   5.168   9.357
22354WAT     H167304   4.334   5.153   9.411
22354WAT     H267305   4.258   5.115   9.272
22355WAT      O67306   4.922   8.156   3.203
22355WAT     H167307   4.906   8.058   3.195
22355WAT     H267308   5.001   8.181   3.146
22356WAT      O67309   9.437   4.662   1.227
22356WAT     H167310   9.390   4.602   1.162
22356WAT     H267311   9.372   4.690   1.298
22357WAT      O67312   3.740   1.581   4.002
22357WAT     H167313   3.770   1.496   4.044
22357WAT     H267314   3.667   1.562   3.936
22358WAT      O67315   6.828   8.349   3.320
22358WAT     H167316   6.793   8.372   3.411
22358WAT     H267317   6.800   8.420   3.255
22359WAT      O67318   3.969   0.142   2.958
22359WAT     H167319   3.923   0.217   3.004
22359WAT     H267320   4.060   0.171   2.928
22360WAT      O67321   6.674   2.274   8.228
22360WAT     H167322   6.630   2.362   8.246
22360WAT     H267323   6.604   2.206   8.206
22361WAT      O67324   5.449   2.462   3.339
22361WAT     H167325   5.415   2.555   3.326
22361WAT     H267326   5.548   2.460   3.325
22362WAT      O67327   3.323   5.766   2.807
22362WAT     H167328   3.390   5.755   2.734
22362WAT     H267329   3.356   5.834   2.873
22363WAT      O67330   7.644   1.108   8.930
22363WAT     H167331   7.553   1.146   8.943
22363WAT     H267332   7.677   1.132   8.839
22364WAT      O67333   8.780   8.201   7.861
22364WAT     H167334   8.747   8.124   7.806
22364WAT     H267335   8.803   8.277   7.801
22365WAT      O67336   6.410   5.812   1.969
22365WAT     H167337   6.332   5.749   1.975
22365WAT     H267338   6.408   5.876   2.046
22366WAT      O67339   9.438   1.445   0.474
22366WAT     H167340   9.521   1.422   0.423
22366WAT     H267341   9.358   1.431   0.416
22367WAT      O67342   3.353   1.362   4.912
22367WAT     H167343   3.329   1.295   4.983
22367WAT     H267344   3.429   1.419   4.945
22368WAT      O67345   6.937   4.153   1.085
22368WAT     H167346   6.907   4.173   1.178
22368WAT     H267347   6.868   4.184   1.020
22369WAT      O67348   7.354   9.350   0.977
22369WAT     H167349   7.346   9.441   0.937
22369WAT     H267350   7.394   9.356   1.068
22370WAT      O67351   3.447   6.313   9.332
22370WAT     H167352   3.360   6.277   9.364
22370WAT     H267353   3.514   6.310   9.406
22371WAT      O67354   7.578   6.549   7.846
22371WAT     H167355   7.483   6.516   7.844
22371WAT     H267356   7.580   6.646   7.822
22372WAT      O67357   4.766   7.603   0.987
22372WAT     H167358   4.713   7.537   0.934
22372WAT     H267359   4.828   7.652   0.925
22373WAT      O67360   1.447   5.305   9.176
22373WAT     H167361   1.433   5.289   9.078
22373WAT     H267362   1.428   5.221   9.227
22374WAT      O67363   9.354   7.690   4.081
22374WAT     H167364   9.326   7.775   4.126
22374WAT     H267365   9.438   7.656   4.124
22375WAT      O67366   8.416   9.817   7.007
22375WAT     H167367   8.459   9.907   7.007
22375WAT     H267368   8.384   9.795   7.099
22376WAT      O67369   3.681   1.276   1.879
22376WAT     H167370   3.597   1.315   1.842
22376WAT     H267371   3.682   1.177   1.863
22377WAT      O67372   7.778   6.384   7.767
22377WAT     H167373   7.762   6.386   7.668
22377WAT     H267374   7.708   6.439   7.813
22378WAT      O67375   4.067   5.955   5.567
22378WAT     H167376   4.142   5.951   5.633
22378WAT     H267377   4.083   5.889   5.493
22379WAT      O67378   0.264   8.400   3.044
22379WAT     H167379   0.320   8.483   3.038
22379WAT     H267380   0.180   8.420   3.094
22380WAT      O67381   7.351   0.771   7.298
22380WAT     H167382   7.445   0.738   7.307
22380WAT     H267383   7.295   0.701   7.255
22381WAT      O67384   9.845   0.189   5.149
22381WAT     H167385   9.762   0.135   5.166
22381WAT     H267386   9.866   0.187   5.051
22382WAT      O67387   3.873   1.407   4.822
22382WAT     H167388   3.781   1.386   4.788
22382WAT     H267389   3.877   1.503   4.849
22383WAT      O67390   0.968   9.600   8.982
22383WAT     H167391   0.946   9.697   8.992
22383WAT     H267392   0.886   9.550   8.954
22384WAT      O67393   9.213   9.199   5.852
22384WAT     H167394   9.265   9.243   5.779
22384WAT     H267395   9.147   9.264   5.889
22385WAT      O67396   7.806   0.881   9.550
22385WAT     H167397   7.783   0.798   9.499
22385WAT     H267398   7.808   0.959   9.488
22386WAT      O67399   0.470   4.564   2.390
22386WAT     H167400   0.391   4.514   2.424
22386WAT     H267401   0.450   4.601   2.300
22387WAT      O67402   4.437   1.069   3.029
22387WAT     H167403   4.512   1.123   3.067
22387WAT     H267404   4.350   1.100   3.069
22388WAT      O67405   4.641   4.359   8.713
22388WAT     H167406   4.666   4.359   8.616
22388WAT     H267407   4.564   4.421   8.728
22389WAT      O67408   4.665   6.832   4.586
22389WAT     H167409   4.665   6.911   4.525
22389WAT     H267410   4.604   6.761   4.549
22390WAT      O67411   4.667   6.768   7.597
22390WAT     H167412   4.616   6.824   7.662
22390WAT     H267413   4.632   6.674   7.600
22391WAT      O67414   7.763   8.912   6.766
22391WAT     H167415   7.833   8.843   6.747
22391WAT     H267416   7.805   9.002   6.772
22392WAT      O67417   0.768   4.950   3.377
22392WAT     H167418   0.818   4.868   3.402
22392WAT     H267419   0.744   5.002   3.459
22393WAT      O67420   2.668   0.025   0.231
22393WAT     H167421   2.615   0.061   0.308
22393WAT     H267422   2.692  -0.071   0.249
22394WAT      O67423   8.685   6.112   2.104
22394WAT     H167424   8.628   6.184   2.143
22394WAT     H267425   8.778   6.120   2.139
22395WAT      O67426   7.794   5.846   5.105
22395WAT     H167427   7.808   5.930   5.053
22395WAT     H267428   7.779   5.868   5.201
22396WAT      O67429   7.044   1.890   3.450
22396WAT     H167430   7.011   1.796   3.439
22396WAT     H267431   7.036   1.918   3.546
22397WAT      O67432   2.709   4.742   1.624
22397WAT     H167433   2.654   4.817   1.588
22397WAT     H267434   2.676   4.655   1.587
22398WAT      O67435   6.945   5.787   7.603
22398WAT     H167436   6.970   5.838   7.521
22398WAT     H267437   6.978   5.693   7.595
22399WAT      O67438   2.278   0.931   8.151
22399WAT     H167439   2.362   0.886   8.119
22399WAT     H267440   2.238   0.983   8.076
22400WAT      O67441   5.496   4.949   1.088
22400WAT     H167442   5.580   4.924   1.135
22400WAT     H267443   5.518   4.981   0.995
22401WAT      O67444   4.820   0.947   0.166
22401WAT     H167445   4.911   0.916   0.138
22401WAT     H267446   4.758   0.868   0.169
22402WAT      O67447   3.447   1.240   3.592
22402WAT     H167448   3.542   1.223   3.565
22402WAT     H267449   3.427   1.337   3.584
22403WAT      O67450   2.152   4.217   9.352
22403WAT     H167451   2.214   4.154   9.399
22403WAT     H267452   2.186   4.234   9.259
22404WAT      O67453   6.306   1.945   9.366
22404WAT     H167454   6.339   2.013   9.432
22404WAT     H267455   6.212   1.966   9.341
22405WAT      O67456   0.022   8.191   8.864
22405WAT     H167457   0.039   8.182   8.766
22405WAT     H267458  -0.046   8.263   8.879
22406WAT      O67459   3.749   7.323   0.998
22406WAT     H167460   3.825   7.270   1.036
22406WAT     H267461   3.670   7.263   0.987
22407WAT      O67462   3.179   8.880   6.439
22407WAT     H167463   3.277   8.888   6.423
22407WAT     H267464   3.159   8.902   6.534
22408WAT      O67465   2.517   8.741   8.667
22408WAT     H167466   2.600   8.686   8.659
22408WAT     H267467   2.541   8.838   8.669
22409WAT      O67468   3.404   5.337   8.185
22409WAT     H167469   3.396   5.387   8.271
22409WAT     H267470   3.374   5.395   8.109
22410WAT      O67471   3.962   0.385   0.095
22410WAT     H167472   3.984   0.403  -0.001
22410WAT     H267473   4.034   0.425   0.153
22411WAT      O67474   5.925   8.822   3.079
22411WAT     H167475   5.829   8.804   3.100
22411WAT     H267476   5.950   8.775   2.994
22412WAT      O67477   1.792   5.671   0.358
22412WAT     H167478   1.696   5.682   0.335
22412WAT     H267479   1.819   5.576   0.348
22413WAT      O67480   1.944   0.053   9.593
22413WAT     H167481   1.935   0.047   9.693
22413WAT     H267482   1.954  -0.039   9.555
22414WAT      O67483   6.142   4.289   1.956
22414WAT     H167484   6.069   4.271   2.022
22414WAT     H267485   6.218   4.334   2.002
22415WAT      O67486   5.800   3.609   2.935
22415WAT     H167487   5.884   3.629   2.985
22415WAT     H267488   5.814   3.629   2.838
22416WAT      O67489   9.190   2.548   6.724
22416WAT     H167490   9.106   2.508   6.685
22416WAT     H267491   9.211   2.633   6.677
22417WAT      O67492   2.470   8.357   0.406
22417WAT     H167493   2.495   8.374   0.502
22417WAT     H267494   2.508   8.269   0.377
22418WAT      O67495   9.456   5.514   5.008
22418WAT     H167496   9.397   5.592   4.985
22418WAT     H267497   9.548   5.530   4.972
22419WAT      O67498   2.644   9.161   6.437
22419WAT     H167499   2.569   9.189   6.377
22419WAT     H267500   2.690   9.082   6.399
22420WAT      O67501   1.735   2.655   7.434
22420WAT     H167502   1.724   2.679   7.337
22420WAT     H267503   1.673   2.580   7.457
22421WAT      O67504   3.181   8.725   8.903
22421WAT     H167505   3.217   8.777   8.980
22421WAT     H267506   3.203   8.772   8.818
22422WAT      O67507   2.803   4.565   3.742
22422WAT     H167508   2.777   4.589   3.648
22422WAT     H267509   2.766   4.474   3.764
22423WAT      O67510   6.609   8.881   8.823
22423WAT     H167511   6.643   8.917   8.736
22423WAT     H267512   6.681   8.828   8.868
22424WAT      O67513   3.729   9.478   5.948
22424WAT     H167514   3.734   9.384   5.917
22424WAT     H267515   3.800   9.494   6.017
22425WAT      O67516   2.308   3.744   9.051
22425WAT     H167517   2.371   3.666   9.047
22425WAT     H267518   2.316   3.789   9.140
22426WAT      O67519   7.699   0.752   0.351
22426WAT     H167520   7.604   0.727   0.330
22426WAT     H267521   7.717   0.846   0.321
22427WAT      O67522   3.238   5.679   2.263
22427WAT     H167523   3.253   5.602   2.326
22427WAT     H267524   3.309   5.679   2.193
22428WAT      O67525   7.544   6.704   4.663
22428WAT     H167526   7.528   6.677   4.758
22428WAT     H267527   7.516   6.630   4.602
22429WAT      O67528   3.150   9.734   3.110
22429WAT     H167529   3.087   9.748   3.186
22429WAT     H267530   3.101   9.747   3.024
22430WAT      O67531   4.467   1.520   1.943
22430WAT     H167532   4.469   1.440   1.883
22430WAT     H267533   4.372   1.546   1.961
22431WAT      O67534   6.608   7.083   5.402
22431WAT     H167535   6.612   6.989   5.367
22431WAT     H267536   6.699   7.125   5.397
22432WAT      O67537   7.903   7.282   0.115
22432WAT     H167538   7.985   7.237   0.080
22432WAT     H267539   7.837   7.213   0.144
22433WAT      O67540   4.054   0.464   9.714
22433WAT     H167541   4.146   0.426   9.702
22433WAT     H267542   4.033   0.525   9.638
22434WAT      O67543   6.583   9.770   4.930
22434WAT     H167544   6.512   9.804   4.868
22434WAT     H267545   6.541   9.707   4.996
22435WAT      O67546   9.076   0.650   7.594
22435WAT     H167547   9.071   0.744   7.559
22435WAT     H267548   9.063   0.586   7.519
22436WAT      O67549   5.964   9.385   5.669
22436WAT     H167550   5.977   9.307   5.729
22436WAT     H267551   5.910   9.455   5.716
22437WAT      O67552   1.462   0.478   5.635
22437WAT     H167553   1.404   0.411   5.683
22437WAT     H267554   1.411   0.563   5.622
22438WAT      O67555   1.095   2.545   3.288
22438WAT     H167556   1.081   2.639   3.258
22438WAT     H267557   1.189   2.518   3.272
22439WAT      O67558   4.286   6.421   2.821
22439WAT     H167559   4.376   6.431   2.865
22439WAT     H267560   4.253   6.511   2.793
22440WAT      O67561   1.366   2.016   8.497
22440WAT     H167562   1.458   2.047   8.519
22440WAT     H267563   1.299   2.083   8.529
22441WAT      O67564   0.483   3.800   4.090
22441WAT     H167565   0.561   3.749   4.126
22441WAT     H267566   0.407   3.795   4.154
22442WAT      O67567   5.200   7.280   9.492
22442WAT     H167568   5.142   7.256   9.570
22442WAT     H267569   5.147   7.336   9.427
22443WAT      O67570   1.596   7.315   7.050
22443WAT     H167571   1.523   7.381   7.030
22443WAT     H267572   1.556   7.233   7.090
22444WAT      O67573   8.770   3.251   3.853
22444WAT     H167574   8.777   3.321   3.782
22444WAT     H267575   8.747   3.163   3.811
22445WAT      O67576   0.898   3.628   4.007
22445WAT     H167577   0.802   3.600   4.003
22445WAT     H267578   0.956   3.546   4.007
22446WAT      O67579   1.627   3.100   1.247
22446WAT     H167580   1.657   3.013   1.286
22446WAT     H267581   1.663   3.110   1.154
22447WAT      O67582   8.705   4.037   5.151
22447WAT     H167583   8.682   3.964   5.087
22447WAT     H267584   8.774   4.005   5.215
22448WAT      O67585   4.659   5.022   0.796
22448WAT     H167586   4.565   4.993   0.782
22448WAT     H267587   4.661   5.099   0.860
22449WAT      O67588   5.940   7.142   7.767
22449WAT     H167589   5.864   7.088   7.732
22449WAT     H267590   6.024   7.087   7.763
22450WAT      O67591   4.641   8.263   8.552
22450WAT     H167592   4.642   8.263   8.452
22450WAT     H267593   4.650   8.169   8.586
22451WAT      O67594   2.449   8.273   7.781
22451WAT     H167595   2.460   8.204   7.710
22451WAT     H267596   2.464   8.232   7.871
22452WAT      O67597   7.633   3.417   9.000
22452WAT     H167598   7.724   3.460   8.996
22452WAT     H267599   7.599   3.420   9.094
22453WAT      O67600   4.909   9.807   8.425
22453WAT     H167601   4.955   9.765   8.347
22453WAT     H267602   4.942   9.766   8.510
22454WAT      O67603   4.429   7.071   6.008
22454WAT     H167604   4.487   7.021   6.072
22454WAT     H267605   4.439   7.169   6.023
22455WAT      O67606   9.154   9.350   4.391
22455WAT     H167607   9.062   9.347   4.354
22455WAT     H267608   9.155   9.408   4.473
22456WAT      O67609   5.057   1.795   2.450
22456WAT     H167610   5.122   1.774   2.377
22456WAT     H267611   5.089   1.753   2.535
22457WAT      O67612   3.806   9.581   3.319
22457WAT     H167613   3.780   9.550   3.411
22457WAT     H267614   3.885   9.527   3.287
22458WAT      O67615   9.380   1.275   7.964
22458WAT     H167616   9.442   1.260   7.887
22458WAT     H267617   9.324   1.355   7.945
22459WAT      O67618   8.577   5.912   6.957
22459WAT     H167619   8.627   5.995   6.981
22459WAT     H267620   8.610   5.878   6.868
22460WAT      O67621   5.344   2.329   2.826
22460WAT     H167622   5.380   2.368   2.912
22460WAT     H267623   5.420   2.289   2.774
22461WAT      O67624   0.315   1.350   2.140
22461WAT     H167625   0.362   1.261   2.144
22461WAT     H267626   0.273   1.362   2.050
22462WAT      O67627   5.895   5.009   5.738
22462WAT     H167628   5.920   5.067   5.660
22462WAT     H267629   5.798   4.986   5.732
22463WAT      O67630   5.584   4.105   9.774
22463WAT     H167631   5.569   4.171   9.701
22463WAT     H267632   5.666   4.131   9.825
22464WAT      O67633   9.775   5.395   8.420
22464WAT     H167634   9.796   5.493   8.424
22464WAT     H267635   9.772   5.358   8.513
22465WAT      O67636   3.971   7.147   3.599
22465WAT     H167637   3.925   7.074   3.549
22465WAT     H267638   3.993   7.221   3.537
22466WAT      O67639   8.780   5.022   1.509
22466WAT     H167640   8.695   4.982   1.473
22466WAT     H267641   8.772   5.033   1.608
22467WAT      O67642   5.208   4.299   7.204
22467WAT     H167643   5.114   4.331   7.219
22467WAT     H267644   5.220   4.275   7.108
22468WAT      O67645   1.048   0.575   2.067
22468WAT     H167646   1.047   0.594   1.969
22468WAT     H267647   1.102   0.492   2.084
22469WAT      O67648   6.334   3.255   5.487
22469WAT     H167649   6.313   3.224   5.394
22469WAT     H267650   6.338   3.354   5.489
22470WAT      O67651   5.395   3.432   4.095
22470WAT     H167652   5.423   3.336   4.095
22470WAT     H267653   5.470   3.488   4.061
22471WAT      O67654   3.273   2.671   3.089
22471WAT     H167655   3.256   2.576   3.061
22471WAT     H267656   3.194   2.727   3.064
22472WAT      O67657   7.521   0.285   9.681
22472WAT     H167658   7.548   0.381   9.679
22472WAT     H267659   7.502   0.258   9.776
22473WAT      O67660   9.853   4.079   2.964
22473WAT     H167661   9.876   4.157   3.022
22473WAT     H267662   9.902   3.998   2.997
22474WAT      O67663   4.766   7.549   3.484
22474WAT     H167664   4.765   7.449   3.487
22474WAT     H267665   4.792   7.584   3.574
22475WAT      O67666   7.073   5.423   5.752
22475WAT     H167667   7.023   5.346   5.712
22475WAT     H267668   7.150   5.389   5.805
22476WAT      O67669   3.974   0.631   8.555
22476WAT     H167670   4.022   0.544   8.543
22476WAT     H267671   3.895   0.634   8.493
22477WAT      O67672   9.378   8.318   6.433
22477WAT     H167673   9.375   8.411   6.396
22477WAT     H267674   9.338   8.317   6.524
22478WAT      O67675   0.752   4.588   7.224
22478WAT     H167676   0.759   4.523   7.148
22478WAT     H267677   0.777   4.679   7.192
22479WAT      O67678   3.025   5.223   3.976
22479WAT     H167679   3.073   5.308   3.958
22479WAT     H267680   3.029   5.203   4.074
22480WAT      O67681   8.759   2.255   2.108
22480WAT     H167682   8.710   2.222   2.027
22480WAT     H267683   8.783   2.351   2.096
22481WAT      O67684   0.762   1.291   6.394
22481WAT     H167685   0.841   1.276   6.334
22481WAT     H267686   0.753   1.388   6.413
22482WAT      O67687   6.757   0.337   6.749
22482WAT     H167688   6.789   0.430   6.733
22482WAT     H267689   6.789   0.277   6.676
22483WAT      O67690   7.827   3.499   2.046
22483WAT     H167691   7.804   3.414   2.094
22483WAT     H267692   7.818   3.576   2.110
22484WAT      O67693   9.558   9.771   6.767
22484WAT     H167694   9.485   9.785   6.700
22484WAT     H267695   9.622   9.849   6.764
22485WAT      O67696   0.220   7.123   3.311
22485WAT     H167697   0.260   7.119   3.219
22485WAT     H267698   0.129   7.082   3.309
22486WAT      O67699   6.769   4.092   9.038
22486WAT     H167700   6.744   4.078   8.942
22486WAT     H267701   6.696   4.058   9.097
22487WAT      O67702   7.566   7.510   2.590
22487WAT     H167703   7.490   7.542   2.646
22487WAT     H267704   7.536   7.433   2.534
22488WAT      O67705   7.901   6.327   8.896
22488WAT     H167706   7.889   6.228   8.889
22488WAT     H267707   7.820   6.367   8.940
22489WAT      O67708   7.323   5.368   9.602
22489WAT     H167709   7.316   5.411   9.692
22489WAT     H267710   7.410   5.394   9.560
22490WAT      O67711   6.890   1.391   3.097
22490WAT     H167712   6.909   1.431   3.007
22490WAT     H267713   6.833   1.454   3.150
22491WAT      O67714   7.312   4.013   5.387
22491WAT     H167715   7.297   3.936   5.326
22491WAT     H267716   7.280   4.097   5.343
22492WAT      O67717   5.175   9.020   7.700
22492WAT     H167718   5.153   8.926   7.723
22492WAT     H267719   5.171   9.077   7.783
22493WAT      O67720   3.559   4.500   7.257
22493WAT     H167721   3.523   4.407   7.253
22493WAT     H267722   3.483   4.565   7.270
22494WAT      O67723   5.717   9.367   5.932
22494WAT     H167724   5.742   9.420   6.013
22494WAT     H267725   5.730   9.270   5.950
22495WAT      O67726   2.571   9.010   8.682
22495WAT     H167727   2.517   9.064   8.747
22495WAT     H267728   2.610   9.070   8.612
22496WAT      O67729   6.129   1.727   7.325
22496WAT     H167730   6.218   1.681   7.326
22496WAT     H267731   6.121   1.786   7.406
22497WAT      O67732   0.417   5.264   6.511
22497WAT     H167733   0.458   5.279   6.421
22497WAT     H267734   0.331   5.214   6.501
22498WAT      O67735   2.362   0.933   5.355
22498WAT     H167736   2.309   0.920   5.272
22498WAT     H267737   2.347   1.025   5.391
22499WAT      O67738   3.081   3.615   5.280
22499WAT     H167739   2.983   3.606   5.258
22499WAT     H267740   3.114   3.703   5.246
22500WAT      O67741   0.374   4.920   4.575
22500WAT     H167742   0.390   4.829   4.614
22500WAT     H267743   0.434   4.987   4.619
22501WAT      O67744   1.823   2.365   3.844
22501WAT     H167745   1.867   2.360   3.933
22501WAT     H267746   1.815   2.461   3.816
22502WAT      O67747   1.305   8.915   6.207
22502WAT     H167748   1.364   8.835   6.203
22502WAT     H267749   1.329   8.971   6.286
22503WAT      O67750   2.363   0.097   8.283
22503WAT     H167751   2.324   0.186   8.259
22503WAT     H267752   2.446   0.082   8.230
22504WAT      O67753   9.427   2.657   0.667
22504WAT     H167754   9.495   2.688   0.734
22504WAT     H267755   9.342   2.634   0.714
22505WAT      O67756   4.324   6.349   5.701
22505WAT     H167757   4.289   6.357   5.608
22505WAT     H267758   4.400   6.413   5.713
22506WAT      O67759   0.825   2.956   3.386
22506WAT     H167760   0.911   2.904   3.391
22506WAT     H267761   0.845   3.051   3.362
22507WAT      O67762   8.643   6.376   2.874
22507WAT     H167763   8.707   6.358   2.949
22507WAT     H267764   8.554   6.403   2.912
22508WAT      O67765   6.257   8.370   6.042
22508WAT     H167766   6.212   8.324   5.965
22508WAT     H267767   6.286   8.302   6.109
22509WAT      O67768   1.383   1.534   6.922
22509WAT     H167769   1.456   1.483   6.875
22509WAT     H267770   1.423   1.585   6.998
22510WAT      O67771   8.220   7.793   7.282
22510WAT     H167772   8.302   7.849   7.272
22510WAT     H267773   8.237   7.720   7.349
22511WAT      O67774   0.913   8.530   4.019
22511WAT     H167775   0.976   8.603   3.993
22511WAT     H267776   0.820   8.566   4.025
22512WAT      O67777   0.369   5.843   4.291
22512WAT     H167778   0.429   5.765   4.277
22512WAT     H267779   0.274   5.812   4.293
22513WAT      O67780   1.179   0.908   3.736
22513WAT     H167781   1.098   0.912   3.795
22513WAT     H267782   1.158   0.854   3.655
22514WAT      O67783   6.677   2.652   0.048
22514WAT     H167784   6.656   2.617   0.139
22514WAT     H267785   6.694   2.576  -0.014
22515WAT      O67786   2.104   8.974   1.148
22515WAT     H167787   2.086   9.041   1.219
22515WAT     H267788   2.018   8.929   1.121
22516WAT      O67789   8.917   3.014   7.217
22516WAT     H167790   9.008   2.976   7.205
22516WAT     H267791   8.893   3.013   7.315
22517WAT      O67792   9.682   5.477   2.557
22517WAT     H167793   9.689   5.404   2.489
22517WAT     H267794   9.609   5.456   2.622
22518WAT      O67795   2.582   0.784   1.777
22518WAT     H167796   2.664   0.839   1.762
22518WAT     H267797   2.505   0.844   1.801
22519WAT      O67798   6.333   3.015   4.166
22519WAT     H167799   6.400   2.999   4.239
22519WAT     H267800   6.246   3.043   4.206
22520WAT      O67801   1.951   6.911   9.019
22520WAT     H167802   2.048   6.920   9.039
22520WAT     H267803   1.909   7.002   9.018
22521WAT      O67804   6.705   5.842   5.388
22521WAT     H167805   6.746   5.920   5.434
22521WAT     H267806   6.724   5.848   5.289
22522WAT      O67807   5.267   1.003   1.545
22522WAT     H167808   5.338   0.936   1.566
22522WAT     H267809   5.260   1.068   1.621
22523WAT      O67810   4.784   2.243   8.833
22523WAT     H167811   4.733   2.328   8.818
22523WAT     H267812   4.879   2.255   8.805
22524WAT      O67813   8.616   8.251   9.674
22524WAT     H167814   8.706   8.254   9.630
22524WAT     H267815   8.619   8.189   9.752
22525WAT      O67816   4.661   0.796   5.404
22525WAT     H167817   4.614   0.721   5.450
22525WAT     H267818   4.616   0.815   5.317
22526WAT      O67819   2.042   7.234   3.792
22526WAT     H167820   2.089   7.226   3.704
22526WAT     H267821   2.108   7.251   3.865
22527WAT      O67822   9.152   9.506   5.649
22527WAT     H167823   9.215   9.428   5.641
22527WAT     H267824   9.067   9.485   5.602
22528WAT      O67825   1.625   0.511   3.778
22528WAT     H167826   1.616   0.423   3.826
22528WAT     H267827   1.642   0.493   3.681
22529WAT      O67828   6.080   7.554   9.333
22529WAT     H167829   6.079   7.495   9.253
22529WAT     H267830   6.061   7.648   9.306
22530WAT      O67831   8.365   6.806   0.643
22530WAT     H167832   8.412   6.892   0.664
22530WAT     H267833   8.294   6.823   0.575
22531WAT      O67834   8.267   3.119   6.794
22531WAT     H167835   8.228   3.203   6.831
22531WAT     H267836   8.346   3.092   6.848
22532WAT      O67837   5.005   9.159   4.335
22532WAT     H167838   4.973   9.079   4.384
22532WAT     H267839   5.025   9.135   4.240
22533WAT      O67840   8.317   5.437   4.509
22533WAT     H167841   8.351   5.385   4.587
22533WAT     H267842   8.371   5.520   4.498
22534WAT      O67843   8.179   2.134   6.095
22534WAT     H167844   8.238   2.182   6.030
22534WAT     H267845   8.083   2.149   6.070
22535WAT      O67846   4.230   6.429   7.937
22535WAT     H167847   4.328   6.425   7.956
22535WAT     H267848   4.197   6.337   7.913
22536WAT      O67849   4.869   6.029   1.353
22536WAT     H167850   4.968   6.040   1.353
22536WAT     H267851   4.828   6.095   1.417
22537WAT      O67852   8.002   3.715   2.980
22537WAT     H167853   8.085   3.723   2.923
22537WAT     H267854   7.928   3.766   2.938
22538WAT      O67855   9.091   5.711   7.052
22538WAT     H167856   9.033   5.778   7.007
22538WAT     H267857   9.156   5.758   7.113
22539WAT      O67858   7.212   3.465   3.534
22539WAT     H167859   7.147   3.491   3.605
22539WAT     H267860   7.285   3.409   3.574
22540WAT      O67861   5.537   0.181   6.719
22540WAT     H167862   5.600   0.174   6.641
22540WAT     H267863   5.453   0.131   6.697
22541WAT      O67864   8.311   9.843   3.130
22541WAT     H167865   8.278   9.905   3.058
22541WAT     H267866   8.308   9.749   3.097
22542WAT      O67867   0.644   2.327   6.757
22542WAT     H167868   0.579   2.365   6.692
22542WAT     H267869   0.602   2.251   6.807
22543WAT      O67870   5.408   7.309   6.314
22543WAT     H167871   5.322   7.293   6.264
22543WAT     H267872   5.485   7.276   6.260
22544WAT      O67873   5.162   7.077   6.901
22544WAT     H167874   5.164   7.161   6.956
22544WAT     H267875   5.092   7.085   6.831
22545WAT      O67876   8.591   1.301   7.789
22545WAT     H167877   8.686   1.302   7.819
22545WAT     H267878   8.572   1.385   7.737
22546WAT      O67879   3.661   0.552   4.458
22546WAT     H167880   3.719   0.559   4.377
22546WAT     H267881   3.639   0.643   4.491
22547WAT      O67882   8.760   4.582   3.605
22547WAT     H167883   8.666   4.612   3.617
22547WAT     H267884   8.817   4.620   3.678
22548WAT      O67885   6.975   7.046   7.442
22548WAT     H167886   6.878   7.063   7.458
22548WAT     H267887   6.992   7.042   7.343
22549WAT      O67888   8.375   9.274   2.847
22549WAT     H167889   8.388   9.315   2.937
22549WAT     H267890   8.315   9.333   2.792
22550WAT      O67891   7.726   1.069   1.959
22550WAT     H167892   7.741   1.022   2.046
22550WAT     H267893   7.630   1.062   1.933
22551WAT      O67894   2.156   7.274   3.267
22551WAT     H167895   2.064   7.303   3.291
22551WAT     H267896   2.222   7.317   3.328
22552WAT      O67897   9.230   6.720   8.695
22552WAT     H167898   9.312   6.690   8.647
22552WAT     H267899   9.248   6.808   8.739
22553WAT      O67900   9.247   8.207   9.640
22553WAT     H167901   9.218   8.228   9.547
22553WAT     H267902   9.327   8.147   9.636
22554WAT      O67903   7.498   8.645   1.511
22554WAT     H167904   7.596   8.654   1.529
22554WAT     H267905   7.455   8.591   1.583
22555WAT      O67906   7.870   9.582   8.258
22555WAT     H167907   7.959   9.627   8.263
22555WAT     H267908   7.878   9.488   8.292
22556WAT      O67909   8.289   6.292   2.459
22556WAT     H167910   8.357   6.225   2.488
22556WAT     H267911   8.290   6.370   2.521
22557WAT      O67912   5.659   2.625   7.758
22557WAT     H167913   5.590   2.554   7.744
22557WAT     H267914   5.696   2.654   7.669
22558WAT      O67915   3.623   5.162   6.852
22558WAT     H167916   3.647   5.146   6.756
22558WAT     H267917   3.626   5.076   6.902
22559WAT      O67918   6.523   7.241   4.473
22559WAT     H167919   6.557   7.334   4.485
22559WAT     H267920   6.552   7.206   4.383
22560WAT      O67921   1.438   6.933   7.850
22560WAT     H167922   1.399   7.022   7.828
22560WAT     H267923   1.369   6.877   7.896
22561WAT      O67924   4.512   5.475   5.961
22561WAT     H167925   4.523   5.451   6.057
22561WAT     H267926   4.463   5.562   5.953
22562WAT      O67927   8.041   1.648   6.464
22562WAT     H167928   7.948   1.646   6.429
22562WAT     H267929   8.049   1.586   6.542
22563WAT      O67930   4.280   7.782   1.407
22563WAT     H167931   4.266   7.870   1.452
22563WAT     H267932   4.208   7.768   1.339
22564WAT      O67933   7.283   7.583   3.828
22564WAT     H167934   7.214   7.557   3.896
22564WAT     H267935   7.374   7.567   3.865
22565WAT      O67936   9.678   4.154   1.026
22565WAT     H167937   9.719   4.245   1.015
22565WAT     H267938   9.674   4.108   0.938
22566WAT      O67939   5.869   4.798   8.787
22566WAT     H167940   5.950   4.844   8.751
22566WAT     H267941   5.805   4.866   8.822
22567WAT      O67942   8.411   5.486   0.954
22567WAT     H167943   8.363   5.564   0.996
22567WAT     H267944   8.508   5.491   0.976
22568WAT      O67945   2.741   2.602   0.409
22568WAT     H167946   2.752   2.655   0.493
22568WAT     H267947   2.659   2.631   0.361
22569WAT      O67948   1.109   5.227   4.941
22569WAT     H167949   1.072   5.247   5.032
22569WAT     H267950   1.145   5.134   4.939
22570WAT      O67951   4.685   9.708   6.690
22570WAT     H167952   4.716   9.783   6.748
22570WAT     H267953   4.586   9.712   6.681
22571WAT      O67954   9.742   5.728   9.099
22571WAT     H167955   9.749   5.662   9.173
22571WAT     H267956   9.749   5.821   9.136
22572WAT      O67957   3.685   8.039   2.152
22572WAT     H167958   3.608   8.019   2.092
22572WAT     H267959   3.766   8.058   2.097
22573WAT      O67960   3.581   4.714   2.991
22573WAT     H167961   3.519   4.789   3.011
22573WAT     H267962   3.572   4.687   2.895
22574WAT      O67963   4.968   3.993   1.476
22574WAT     H167964   5.014   4.070   1.519
22574WAT     H267965   4.934   4.020   1.387
22575WAT      O67966   2.975   4.698   0.653
22575WAT     H167967   2.885   4.733   0.628
22575WAT     H267968   2.972   4.598   0.657
22576WAT      O67969   6.829   9.057   1.360
22576WAT     H167970   6.899   9.036   1.292
22576WAT     H267971   6.842   9.150   1.393
22577WAT      O67972   1.674   2.902   2.593
22577WAT     H167973   1.665   2.829   2.525
22577WAT     H267974   1.585   2.946   2.606
22578WAT      O67975   0.962   2.484   2.231
22578WAT     H167976   0.911   2.563   2.200
22578WAT     H267977   0.998   2.500   2.323
22579WAT      O67978   8.263   5.852   6.337
22579WAT     H167979   8.301   5.805   6.417
22579WAT     H267980   8.262   5.950   6.354
22580WAT      O67981   1.854   7.192   1.918
22580WAT     H167982   1.914   7.269   1.897
22580WAT     H267983   1.889   7.144   1.999
22581WAT      O67984   3.000   9.039   8.312
22581WAT     H167985   3.076   9.095   8.279
22581WAT     H267986   2.921   9.052   8.252
22582WAT      O67987   2.514   5.522   6.234
22582WAT     H167988   2.424   5.479   6.243
22582WAT     H267989   2.584   5.463   6.273
22583WAT      O67990   8.552   4.598   6.876
22583WAT     H167991   8.494   4.634   6.949
22583WAT     H267992   8.591   4.674   6.824
22584WAT      O67993   4.925   9.179   0.729
22584WAT     H167994   4.994   9.122   0.683
22584WAT     H267995   4.964   9.219   0.812
22585WAT      O67996   5.799   1.510   7.144
22585WAT     H167997   5.700   1.506   7.161
22585WAT     H267998   5.816   1.517   7.046
22586WAT      O67999   9.121   1.348   1.202
22586WAT     H168000   9.211   1.325   1.166
22586WAT     H268001   9.053   1.343   1.129
22587WAT      O68002   4.159   2.231   9.854
22587WAT     H168003   4.155   2.242   9.755
22587WAT     H268004   4.071   2.256   9.894
22588WAT      O68005   0.142   2.405   9.108
22588WAT     H168006   0.145   2.312   9.071
22588WAT     H268007   0.049   2.426   9.138
22589WAT      O68008   5.522   8.015   3.447
22589WAT     H168009   5.497   8.095   3.393
22589WAT     H268010   5.617   8.024   3.477
22590WAT      O68011   6.096   0.721   6.673
22590WAT     H168012   6.090   0.757   6.766
22590WAT     H268013   6.106   0.797   6.608
22591WAT      O68014   1.619   5.769   1.203
22591WAT     H168015   1.532   5.752   1.155
22591WAT     H268016   1.601   5.778   1.301
22592WAT      O68017   1.252   3.114   0.350
22592WAT     H168018   1.154   3.095   0.340
22592WAT     H268019   1.267   3.213   0.352
22593WAT      O68020   9.611   1.791   5.552
22593WAT     H168021   9.627   1.764   5.458
22593WAT     H268022   9.668   1.736   5.613
22594WAT      O68023   7.695   8.979   7.983
22594WAT     H168024   7.665   9.068   8.017
22594WAT     H268025   7.758   8.938   8.050
22595WAT      O68026   3.054   0.041   1.329
22595WAT     H168027   3.121   0.116   1.323
22595WAT     H268028   3.083  -0.034   1.271
22596WAT      O68029   2.663   4.388   6.978
22596WAT     H168030   2.573   4.349   6.993
22596WAT     H268031   2.701   4.420   7.065
22597WAT      O68032   4.980   1.251   2.659
22597WAT     H168033   5.023   1.205   2.737
22597WAT     H268034   4.899   1.201   2.630
22598WAT      O68035   5.371   7.512   1.162
22598WAT     H168036   5.336   7.502   1.069
22598WAT     H268037   5.409   7.425   1.193
22599WAT      O68038   2.849   2.400   0.248
22599WAT     H168039   2.808   2.481   0.291
22599WAT     H268040   2.940   2.385   0.287
22600WAT      O68041   0.702   3.551   8.052
22600WAT     H168042   0.745   3.641   8.062
22600WAT     H268043   0.648   3.531   8.134
22601WAT      O68044   8.891   4.578   6.340
22601WAT     H168045   8.949   4.576   6.258
22601WAT     H268046   8.812   4.519   6.326
22602WAT      O68047   4.310   8.248   5.100
22602WAT     H168048   4.332   8.333   5.052
22602WAT     H268049   4.262   8.270   5.185
22603WAT      O68050   7.442   3.832   3.417
22603WAT     H168051   7.502   3.910   3.436
22603WAT     H268052   7.475   3.752   3.467
22604WAT      O68053   2.860   2.171   9.759
22604WAT     H168054   2.883   2.104   9.688
22604WAT     H268055   2.925   2.247   9.756
22605WAT      O68056   9.777   6.734   3.955
22605WAT     H168057   9.840   6.808   3.975
22605WAT     H268058   9.740   6.697   4.040
22606WAT      O68059   8.710   3.792   3.491
22606WAT     H168060   8.644   3.841   3.432
22606WAT     H268061   8.777   3.858   3.527
22607WAT      O68062   7.807   4.044   1.325
22607WAT     H168063   7.851   3.982   1.260
22607WAT     H268064   7.824   4.011   1.418
22608WAT      O68065   5.996   0.232   7.164
22608WAT     H168066   6.067   0.302   7.168
22608WAT     H268067   6.038   0.142   7.172
22609WAT      O68068   4.833   2.145   0.585
22609WAT     H168069   4.744   2.191   0.594
22609WAT     H268070   4.904   2.213   0.564
22610WAT      O68071   4.813   8.187   5.042
22610WAT     H168072   4.832   8.261   5.107
22610WAT     H268073   4.895   8.132   5.029
22611WAT      O68074   1.887   8.084   7.132
22611WAT     H168075   1.907   8.082   7.034
22611WAT     H268076   1.972   8.100   7.182
22612WAT      O68077   9.233   8.812   2.804
22612WAT     H168078   9.142   8.791   2.769
22612WAT     H268079   9.242   8.910   2.820
22613WAT      O68080   3.888   1.743   3.740
22613WAT     H168081   3.895   1.750   3.640
22613WAT     H268082   3.796   1.711   3.764
22614WAT      O68083   1.269   5.249   3.264
22614WAT     H168084   1.214   5.178   3.310
22614WAT     H268085   1.283   5.326   3.326
22615WAT      O68086   9.435   6.278   9.411
22615WAT     H168087   9.505   6.334   9.366
22615WAT     H268088   9.473   6.238   9.495
22616WAT      O68089   2.698   3.835   4.182
22616WAT     H168090   2.714   3.819   4.085
22616WAT     H268091   2.668   3.750   4.226
22617WAT      O68092   7.729   0.899   6.720
22617WAT     H168093   7.812   0.923   6.669
22617WAT     H268094   7.672   0.839   6.664
22618WAT      O68095   7.737   2.609   0.849
22618WAT     H168096   7.764   2.682   0.787
22618WAT     H268097   7.638   2.610   0.861
22619WAT      O68098   7.167   7.159   1.241
22619WAT     H168099   7.199   7.225   1.308
22619WAT     H268100   7.137   7.076   1.288
22620WAT      O68101   8.458   3.104   6.633
22620WAT     H168102   8.445   3.104   6.534
22620WAT     H268103   8.370   3.120   6.678
22621WAT      O68104   8.029   3.217   0.056
22621WAT     H168105   8.011   3.130   0.010
22621WAT     H268106   8.023   3.292  -0.009
22622WAT      O68107   1.994   1.230   9.603
22622WAT     H168108   1.992   1.266   9.510
22622WAT     H268109   2.034   1.299   9.664
22623WAT      O68110   9.245   5.558   8.990
22623WAT     H168111   9.323   5.586   9.046
22623WAT     H268112   9.163   5.606   9.021
22624WAT      O68113   6.365   9.073   3.122
22624WAT     H168114   6.315   8.986   3.130
22624WAT     H268115   6.338   9.133   3.198
22625WAT      O68116   4.767   8.536   2.041
22625WAT     H168117   4.678   8.512   2.081
22625WAT     H268118   4.791   8.630   2.066
22626WAT      O68119   3.078   8.446   6.616
22626WAT     H168120   3.156   8.389   6.588
22626WAT     H268121   3.013   8.390   6.667
22627WAT      O68122   4.627   5.667   2.982
22627WAT     H168123   4.562   5.732   3.022
22627WAT     H268124   4.619   5.668   2.883
22628WAT      O68125   2.288   0.725   2.277
22628WAT     H168126   2.258   0.808   2.325
22628WAT     H268127   2.313   0.655   2.344
22629WAT      O68128   0.013   0.639   2.451
22629WAT     H168129  -0.051   0.698   2.402
22629WAT     H268130   0.098   0.688   2.468
22630WAT      O68131   8.633   9.649   0.213
22630WAT     H168132   8.625   9.668   0.311
22630WAT     H268133   8.644   9.551   0.199
22631WAT      O68134   8.131   1.178   3.460
22631WAT     H168135   8.181   1.121   3.394
22631WAT     H268136   8.186   1.189   3.543
22632WAT      O68137   3.333   6.825   5.743
22632WAT     H168138   3.235   6.842   5.744
22632WAT     H268139   3.350   6.727   5.729
22633WAT      O68140   0.415   8.238   2.591
22633WAT     H168141   0.336   8.195   2.634
22633WAT     H268142   0.386   8.285   2.508
22634WAT      O68143   8.577   5.678   1.169
22634WAT     H168144   8.620   5.735   1.240
22634WAT     H268145   8.485   5.652   1.199
22635WAT      O68146   5.049   1.625   9.620
22635WAT     H168147   5.055   1.667   9.711
22635WAT     H268148   5.112   1.672   9.558
22636WAT      O68149   0.589   6.154   8.526
22636WAT     H168150   0.494   6.182   8.535
22636WAT     H268151   0.593   6.058   8.496
22637WAT      O68152   3.016   0.831   2.069
22637WAT     H168153   3.022   0.786   1.980
22637WAT     H268154   2.930   0.882   2.075
22638WAT      O68155   9.735   2.440   6.283
22638WAT     H168156   9.706   2.480   6.196
22638WAT     H268157   9.831   2.413   6.276
22639WAT      O68158   7.637   9.826   0.402
22639WAT     H168159   7.686   9.833   0.315
22639WAT     H268160   7.624   9.918   0.439
22640WAT      O68161   7.427   6.835   8.632
22640WAT     H168162   7.435   6.774   8.553
22640WAT     H268163   7.441   6.783   8.716
22641WAT      O68164   8.722   9.440   2.187
22641WAT     H168165   8.689   9.533   2.206
22641WAT     H268166   8.818   9.445   2.160
22642WAT      O68167   1.280   3.653   8.772
22642WAT     H168168   1.289   3.572   8.829
22642WAT     H268169   1.351   3.719   8.796
22643WAT      O68170   5.796   1.404   5.509
22643WAT     H168171   5.754   1.411   5.418
22643WAT     H268172   5.864   1.477   5.519
22644WAT      O68173   7.982   3.342   7.153
22644WAT     H168174   7.883   3.328   7.152
22644WAT     H268175   8.004   3.420   7.210
22645WAT      O68176   9.047   7.475   9.734
22645WAT     H168177   9.034   7.384   9.772
22645WAT     H268178   8.958   7.521   9.727
22646WAT      O68179   3.156   4.662   6.250
22646WAT     H168180   3.123   4.742   6.300
22646WAT     H268181   3.079   4.603   6.228
22647WAT      O68182   2.724   3.921   5.848
22647WAT     H168183   2.757   3.827   5.861
22647WAT     H268184   2.625   3.923   5.860
22648WAT      O68185   6.265   0.486   6.036
22648WAT     H168186   6.172   0.491   5.999
22648WAT     H268187   6.270   0.536   6.122
22649WAT      O68188   5.318   9.357   5.510
22649WAT     H168189   5.360   9.429   5.565
22649WAT     H268190   5.377   9.334   5.433
22650WAT      O68191   0.729   2.829   7.856
22650WAT     H168192   0.775   2.755   7.806
22650WAT     H268193   0.668   2.878   7.794
22651WAT      O68194   9.444   4.006   1.340
22651WAT     H168195   9.530   3.960   1.322
22651WAT     H268196   9.459   4.105   1.347
22652WAT      O68197   0.614   7.632   7.414
22652WAT     H168198   0.580   7.625   7.320
22652WAT     H268199   0.571   7.560   7.470
22653WAT      O68200   5.058   6.446   1.506
22653WAT     H168201   4.987   6.389   1.463
22653WAT     H268202   5.090   6.514   1.439
22654WAT      O68203   3.239   6.522   6.410
22654WAT     H168204   3.200   6.610   6.435
22654WAT     H268205   3.338   6.523   6.428
22655WAT      O68206   9.454   0.079   0.901
22655WAT     H168207   9.478   0.004   0.962
22655WAT     H268208   9.361   0.066   0.868
22656WAT      O68209   0.359   6.264   8.584
22656WAT     H168210   0.300   6.257   8.665
22656WAT     H268211   0.328   6.341   8.528
22657WAT      O68212   1.612   1.103   4.523
22657WAT     H168213   1.577   1.117   4.430
22657WAT     H268214   1.710   1.084   4.520
22658WAT      O68215   1.157   8.591   6.856
22658WAT     H168216   1.165   8.530   6.935
22658WAT     H268217   1.072   8.643   6.862
22659WAT      O68218   0.955   1.842   4.660
22659WAT     H168219   0.918   1.785   4.587
22659WAT     H268220   1.034   1.892   4.625
22660WAT      O68221   2.810   0.607   2.238
22660WAT     H168222   2.826   0.515   2.204
22660WAT     H268223   2.857   0.673   2.180
22661WAT      O68224   3.976   8.872   3.357
22661WAT     H168225   3.888   8.889   3.312
22661WAT     H268226   3.969   8.897   3.454
22662WAT      O68227   3.431   5.698   6.395
22662WAT     H168228   3.433   5.796   6.373
22662WAT     H268229   3.442   5.686   6.494
22663WAT      O68230   8.319   4.620   4.124
22663WAT     H168231   8.319   4.713   4.088
22663WAT     H268232   8.394   4.609   4.189
22664WAT      O68233   8.413   6.811   0.133
22664WAT     H168234   8.474   6.780   0.207
22664WAT     H268235   8.411   6.742   0.061
22665WAT      O68236   4.236   8.940   4.752
22665WAT     H168237   4.213   8.984   4.838
22665WAT     H268238   4.169   8.869   4.732
22666WAT      O68239   3.698   8.884   5.308
22666WAT     H168240   3.722   8.859   5.214
22666WAT     H268241   3.649   8.808   5.351
22667WAT      O68242   6.373   6.112   9.144
22667WAT     H168243   6.313   6.119   9.224
22667WAT     H268244   6.444   6.181   9.149
22668WAT      O68245   5.704   8.521   9.370
22668WAT     H168246   5.782   8.493   9.314
22668WAT     H268247   5.732   8.522   9.466
22669WAT      O68248   8.127   7.275   7.077
22669WAT     H168249   8.142   7.269   6.978
22669WAT     H268250   8.090   7.365   7.100
22670WAT      O68251   7.216   3.264   2.676
22670WAT     H168252   7.229   3.356   2.640
22670WAT     H268253   7.132   3.225   2.637
22671WAT      O68254   0.353   2.006   2.709
22671WAT     H168255   0.331   1.998   2.612
22671WAT     H268256   0.438   1.957   2.727
22672WAT      O68257   5.941   2.841   3.663
22672WAT     H168258   5.846   2.866   3.683
22672WAT     H268259   5.997   2.860   3.744
22673WAT      O68260   8.384   1.516   5.276
22673WAT     H168261   8.431   1.476   5.355
22673WAT     H268262   8.310   1.456   5.247
22674WAT      O68263   2.923   9.759   9.080
22674WAT     H168264   2.860   9.682   9.093
22674WAT     H268265   2.975   9.774   9.164
22675WAT      O68266   1.409   0.996   4.056
22675WAT     H168267   1.436   1.073   4.113
22675WAT     H268268   1.420   1.019   3.960
22676WAT      O68269   0.810   5.339   8.474
22676WAT     H168270   0.735   5.281   8.506
22676WAT     H268271   0.841   5.308   8.384
22677WAT      O68272   7.316   7.392   9.271
22677WAT     H168273   7.312   7.361   9.366
22677WAT     H268274   7.260   7.474   9.260
22678WAT      O68275   8.882   2.639   1.193
22678WAT     H168276   8.803   2.682   1.151
22678WAT     H268277   8.908   2.558   1.141
22679WAT      O68278   6.698   4.600   2.985
22679WAT     H168279   6.665   4.506   2.989
22679WAT     H268280   6.798   4.600   2.982
22680WAT      O68281   2.078   2.174   7.214
22680WAT     H168282   2.160   2.202   7.264
22680WAT     H268283   2.065   2.075   7.225
22681WAT      O68284   0.648   8.648   4.027
22681WAT     H168285   0.583   8.601   4.087
22681WAT     H268286   0.598   8.698   3.956
22682WAT      O68287   1.774   5.590   2.183
22682WAT     H168288   1.778   5.688   2.163
22682WAT     H268289   1.701   5.548   2.130
22683WAT      O68290   8.606   1.925   9.287
22683WAT     H168291   8.622   2.024   9.287
22683WAT     H268292   8.663   1.883   9.216
22684WAT      O68293   2.431   4.491   9.434
22684WAT     H168294   2.351   4.452   9.480
22684WAT     H268295   2.457   4.577   9.479
22685WAT      O68296   2.578   2.354   4.996
22685WAT     H168297   2.567   2.435   4.938
22685WAT     H268298   2.497   2.296   4.987
22686WAT      O68299   8.658   7.991   8.829
22686WAT     H168300   8.621   7.995   8.736
22686WAT     H268301   8.756   7.968   8.825
22687WAT      O68302   4.027   3.763   1.224
22687WAT     H168303   3.935   3.791   1.196
22687WAT     H268304   4.080   3.843   1.252
22688WAT      O68305   2.830   8.328   7.456
22688WAT     H168306   2.911   8.381   7.432
22688WAT     H268307   2.805   8.346   7.551
22689WAT      O68308   3.280   3.170   1.556
22689WAT     H168309   3.315   3.122   1.637
22689WAT     H268310   3.221   3.108   1.504
22690WAT      O68311   8.949   5.461   8.376
22690WAT     H168312   9.002   5.391   8.327
22690WAT     H268313   8.909   5.525   8.310
22691WAT      O68314   1.277   2.389   4.115
22691WAT     H168315   1.308   2.394   4.210
22691WAT     H268316   1.226   2.304   4.101
22692WAT      O68317   8.628   2.171   1.887
22692WAT     H168318   8.558   2.108   1.852
22692WAT     H268319   8.594   2.265   1.881
22693WAT      O68320   8.365   1.815   9.418
22693WAT     H168321   8.448   1.846   9.370
22693WAT     H268322   8.363   1.854   9.510
22694WAT      O68323   4.307   3.681   9.727
22694WAT     H168324   4.306   3.731   9.814
22694WAT     H268325   4.257   3.734   9.658
22695WAT      O68326   9.482   1.900   0.741
22695WAT     H168327   9.485   1.879   0.643
22695WAT     H268328   9.569   1.942   0.768
22696WAT      O68329   4.864   1.518   0.692
22696WAT     H168330   4.893   1.434   0.647
22696WAT     H268331   4.767   1.511   0.718
22697WAT      O68332   4.055   9.203   1.663
22697WAT     H168333   4.109   9.165   1.588
22697WAT     H268334   4.044   9.134   1.735
22698WAT      O68335   0.124   4.991   7.677
22698WAT     H168336   0.194   4.921   7.662
22698WAT     H268337   0.052   4.980   7.608
22699WAT      O68338   7.359   5.120   5.664
22699WAT     H168339   7.308   5.090   5.583
22699WAT     H268340   7.425   5.050   5.689
22700WAT      O68341   0.792   6.515   7.787
22700WAT     H168342   0.761   6.593   7.842
22700WAT     H268343   0.872   6.543   7.733
22701WAT      O68344   2.989   5.411   6.973
22701WAT     H168345   2.914   5.373   6.918
22701WAT     H268346   3.005   5.353   7.053
22702WAT      O68347   9.731   2.841   8.200
22702WAT     H168348   9.804   2.893   8.244
22702WAT     H268349   9.705   2.885   8.114
22703WAT      O68350   2.230   4.603   8.296
22703WAT     H168351   2.186   4.690   8.270
22703WAT     H268352   2.166   4.550   8.351
22704WAT      O68353   9.803   3.655   3.080
22704WAT     H168354   9.845   3.610   3.001
22704WAT     H268355   9.854   3.738   3.103
22705WAT      O68356   9.732   8.235   8.062
22705WAT     H168357   9.673   8.315   8.051
22705WAT     H268358   9.680   8.161   8.105
22706WAT      O68359   3.628   4.401   4.923
22706WAT     H168360   3.712   4.383   4.973
22706WAT     H268361   3.640   4.376   4.827
22707WAT      O68362   5.159   5.662   1.856
22707WAT     H168363   5.173   5.565   1.840
22707WAT     H268364   5.196   5.715   1.779
22708WAT      O68365   9.673   3.869   0.591
22708WAT     H168366   9.647   3.791   0.534
22708WAT     H268367   9.609   3.876   0.668
22709WAT      O68368   5.192   2.014   7.021
22709WAT     H168369   5.098   2.034   6.994
22709WAT     H268370   5.250   2.008   6.939
22710WAT      O68371   4.306   7.958   0.077
22710WAT     H168372   4.379   8.026   0.084
22710WAT     H268373   4.308   7.916  -0.014
22711WAT      O68374   9.566   7.156   3.321
22711WAT     H168375   9.630   7.212   3.375
22711WAT     H268376   9.609   7.069   3.297
22712WAT      O68377   2.114   3.984   1.842
22712WAT     H168378   2.061   3.908   1.880
22712WAT     H268379   2.062   4.027   1.768
22713WAT      O68380   8.236   7.722   8.371
22713WAT     H168381   8.178   7.643   8.352
22713WAT     H268382   8.220   7.793   8.302
22714WAT      O68383   0.974   0.714   7.550
22714WAT     H168384   0.963   0.621   7.516
22714WAT     H268385   1.046   0.760   7.498
22715WAT      O68386   0.318   2.139   9.116
22715WAT     H168387   0.234   2.122   9.065
22715WAT     H268388   0.390   2.168   9.053
22716WAT      O68389   9.640   3.578   6.197
22716WAT     H168390   9.612   3.559   6.291
22716WAT     H268391   9.658   3.492   6.150
22717WAT      O68392   4.274   2.464   4.465
22717WAT     H168393   4.253   2.381   4.517
22717WAT     H268394   4.357   2.505   4.501
22718WAT      O68395   7.496   2.385   8.923
22718WAT     H168396   7.588   2.381   8.960
22718WAT     H268397   7.499   2.418   8.829
22719WAT      O68398   7.216   9.031   5.355
22719WAT     H168399   7.228   8.963   5.428
22719WAT     H268400   7.196   9.120   5.396
22720WAT      O68401   9.134   7.816   9.482
22720WAT     H168402   9.119   7.720   9.459
22720WAT     H268403   9.188   7.822   9.566
22721WAT      O68404   4.088   6.419   5.096
22721WAT     H168405   4.149   6.342   5.075
22721WAT     H268406   4.050   6.456   5.011
22722WAT      O68407   8.043   0.512   6.719
22722WAT     H168408   7.958   0.505   6.771
22722WAT     H268409   8.074   0.607   6.718
22723WAT      O68410   5.444   2.866   7.864
22723WAT     H168411   5.532   2.895   7.828
22723WAT     H268412   5.375   2.936   7.845
22724WAT      O68413   1.231   9.064   4.843
22724WAT     H168414   1.247   8.969   4.870
22724WAT     H268415   1.271   9.079   4.753
22725WAT      O68416   4.813   6.577   0.006
22725WAT     H168417   4.793   6.512   0.080
22725WAT     H268418   4.780   6.540  -0.080
22726WAT      O68419   8.112   7.064   9.676
22726WAT     H168420   8.202   7.102   9.652
22726WAT     H268421   8.116   6.964   9.672
22727WAT      O68422   9.596   1.321   1.310
22727WAT     H168423   9.522   1.352   1.250
22727WAT     H268424   9.642   1.243   1.268
22728WAT      O68425   2.062   4.359   3.869
22728WAT     H168426   2.098   4.280   3.917
22728WAT     H268427   2.012   4.328   3.787
22729WAT      O68428   1.785   3.145   2.688
22729WAT     H168429   1.829   3.192   2.612
22729WAT     H268430   1.731   3.068   2.654
22730WAT      O68431   3.668   0.760   0.550
22730WAT     H168432   3.607   0.826   0.596
22730WAT     H268433   3.638   0.748   0.456
22731WAT      O68434   8.091   8.709   2.298
22731WAT     H168435   8.183   8.742   2.277
22731WAT     H268436   8.044   8.685   2.213
22732WAT      O68437   1.627   7.532   3.018
22732WAT     H168438   1.549   7.555   2.961
22732WAT     H268439   1.700   7.599   3.005
22733WAT      O68440   6.667   8.478   9.444
22733WAT     H168441   6.623   8.520   9.365
22733WAT     H268442   6.692   8.383   9.422
22734WAT      O68443   8.275   9.359   1.600
22734WAT     H168444   8.341   9.431   1.577
22734WAT     H268445   8.277   9.343   1.698
22735WAT      O68446   0.983   0.460   7.144
22735WAT     H168447   1.012   0.364   7.143
22735WAT     H268448   0.893   0.467   7.102
22736WAT      O68449   3.612   8.853   9.138
22736WAT     H168450   3.704   8.889   9.123
22736WAT     H268451   3.611   8.754   9.120
22737WAT      O68452   3.478   3.611   4.514
22737WAT     H168453   3.536   3.610   4.432
22737WAT     H268454   3.533   3.637   4.593
22738WAT      O68455   6.270   5.372   4.975
22738WAT     H168456   6.172   5.389   4.981
22738WAT     H268457   6.320   5.450   5.011
22739WAT      O68458   2.847   6.578   1.155
22739WAT     H168459   2.759   6.579   1.202
22739WAT     H268460   2.873   6.483   1.135
22740WAT      O68461   9.418   5.804   3.535
22740WAT     H168462   9.325   5.839   3.550
22740WAT     H268463   9.475   5.826   3.614
22741WAT      O68464   9.188   7.898   3.198
22741WAT     H168465   9.104   7.860   3.237
22741WAT     H268466   9.190   7.997   3.212
22742WAT      O68467   5.067   9.001   6.023
22742WAT     H168468   5.158   9.042   6.033
22742WAT     H268469   4.998   9.073   6.015
22743WAT      O68470   4.703   0.588   5.900
22743WAT     H168471   4.772   0.655   5.873
22743WAT     H268472   4.662   0.615   5.987
22744WAT      O68473   2.188   5.762   9.640
22744WAT     H168474   2.096   5.794   9.620
22744WAT     H268475   2.206   5.771   9.738
22745WAT      O68476   3.637   2.475   7.954
22745WAT     H168477   3.617   2.494   7.858
22745WAT     H268478   3.733   2.498   7.973
22746WAT      O68479   4.559   6.096   6.476
22746WAT     H168480   4.505   6.172   6.512
22746WAT     H268481   4.513   6.057   6.397
22747WAT      O68482   8.369   8.602   8.017
22747WAT     H168483   8.423   8.540   7.961
22747WAT     H268484   8.394   8.592   8.113
22748WAT      O68485   2.416   3.525   0.807
22748WAT     H168486   2.405   3.593   0.733
22748WAT     H268487   2.344   3.538   0.875
22749WAT      O68488   4.416   7.732   7.103
22749WAT     H168489   4.330   7.752   7.152
22749WAT     H268490   4.482   7.693   7.167
22750WAT      O68491   6.354   4.597   5.094
22750WAT     H168492   6.332   4.657   5.017
22750WAT     H268493   6.341   4.647   5.180
22751WAT      O68494   1.588   0.204   0.663
22751WAT     H168495   1.590   0.135   0.591
22751WAT     H268496   1.637   0.286   0.634
22752WAT      O68497   1.707   6.469   6.452
22752WAT     H168498   1.722   6.389   6.510
22752WAT     H268499   1.612   6.499   6.460
22753WAT      O68500   2.942   2.535   5.669
22753WAT     H168501   2.891   2.619   5.690
22753WAT     H268502   2.897   2.457   5.713
22754WAT      O68503   5.424   8.920   8.505
22754WAT     H168504   5.337   8.874   8.523
22754WAT     H268505   5.489   8.854   8.466
22755WAT      O68506   9.022   3.238   4.896
22755WAT     H168507   8.950   3.276   4.839
22755WAT     H268508   9.060   3.310   4.954
22756WAT      O68509   1.322   7.469   3.990
22756WAT     H168510   1.279   7.417   4.064
22756WAT     H268511   1.347   7.407   3.916
22757WAT      O68512   0.897   1.180   8.906
22757WAT     H168513   0.799   1.161   8.910
22757WAT     H268514   0.945   1.122   8.971
22758WAT      O68515   0.607   8.603   0.331
22758WAT     H168516   0.511   8.586   0.306
22758WAT     H268517   0.614   8.695   0.369
22759WAT      O68518   8.899   2.935   8.492
22759WAT     H168519   8.963   3.010   8.506
22759WAT     H268520   8.814   2.953   8.542
22760WAT      O68521   9.675   4.325   5.009
22760WAT     H168522   9.651   4.370   4.923
22760WAT     H268523   9.622   4.366   5.084
22761WAT      O68524   7.791   1.735   1.344
22761WAT     H168525   7.833   1.825   1.341
22761WAT     H268526   7.832   1.677   1.273
22762WAT      O68527   0.055   8.077   8.062
22762WAT     H168528  -0.003   8.159   8.056
22762WAT     H268529   0.054   8.043   8.156
22763WAT      O68530   7.208   2.553   0.649
22763WAT     H168531   7.198   2.516   0.741
22763WAT     H268532   7.299   2.528   0.613
22764WAT      O68533   7.415   0.633   2.967
22764WAT     H168534   7.480   0.558   2.957
22764WAT     H268535   7.464   0.718   2.983
22765WAT      O68536   7.785   2.417   7.514
22765WAT     H168537   7.755   2.447   7.423
22765WAT     H268538   7.871   2.461   7.537
22766WAT      O68539   8.232   0.792   8.520
22766WAT     H168540   8.307   0.849   8.486
22766WAT     H268541   8.163   0.851   8.563
22767WAT      O68542   3.647   9.251   2.083
22767WAT     H168543   3.645   9.350   2.072
22767WAT     H268544   3.701   9.227   2.164
22768WAT      O68545   8.541   5.007   0.294
22768WAT     H168546   8.451   4.981   0.331
22768WAT     H268547   8.563   5.100   0.323
22769WAT      O68548   8.709   9.825   9.700
22769WAT     H168549   8.749   9.820   9.608
22769WAT     H268550   8.625   9.772   9.703
22770WAT      O68551   4.991   3.339   2.661
22770WAT     H168552   4.928   3.271   2.699
22770WAT     H268553   5.082   3.298   2.654
22771WAT      O68554   7.210   7.402   2.682
22771WAT     H168555   7.289   7.360   2.726
22771WAT     H268556   7.199   7.495   2.716
22772WAT      O68557   1.784   3.627   2.832
22772WAT     H168558   1.751   3.556   2.770
22772WAT     H268559   1.761   3.602   2.926
22773WAT      O68560   3.767   7.228   5.065
22773WAT     H168561   3.667   7.227   5.061
22773WAT     H268562   3.800   7.139   5.096
22774WAT      O68563   2.552   8.467   8.887
22774WAT     H168564   2.610   8.490   8.809
22774WAT     H268565   2.589   8.387   8.934
22775WAT      O68566   5.483   8.118   8.688
22775WAT     H168567   5.487   8.210   8.650
22775WAT     H268568   5.461   8.123   8.786
22776WAT      O68569   9.055   8.933   6.722
22776WAT     H168570   8.980   8.887   6.674
22776WAT     H268571   9.123   8.864   6.750
22777WAT      O68572   5.793   7.958   4.729
22777WAT     H168573   5.833   7.868   4.713
22777WAT     H268574   5.828   8.022   4.661
22778WAT      O68575   6.730   1.458   2.297
22778WAT     H168576   6.766   1.429   2.386
22778WAT     H268577   6.708   1.555   2.300
22779WAT      O68578   5.322   7.966   6.983
22779WAT     H168579   5.252   7.969   7.054
22779WAT     H268580   5.378   7.884   6.995
22780WAT      O68581   5.415   4.356   4.263
22780WAT     H168582   5.370   4.311   4.186
22780WAT     H268583   5.456   4.442   4.233
22781WAT      O68584   0.400   4.402   4.350
22781WAT     H168585   0.354   4.372   4.266
22781WAT     H268586   0.494   4.370   4.349
22782WAT      O68587   2.854   6.337   1.595
22782WAT     H168588   2.759   6.335   1.626
22782WAT     H268589   2.915   6.328   1.674
22783WAT      O68590   7.798   7.330   3.852
22783WAT     H168591   7.819   7.394   3.926
22783WAT     H268592   7.818   7.237   3.883
22784WAT      O68593   9.161   1.925   9.109
22784WAT     H168594   9.254   1.888   9.104
22784WAT     H268595   9.135   1.937   9.205
22785WAT      O68596   5.399   1.313   6.351
22785WAT     H168597   5.320   1.345   6.403
22785WAT     H268598   5.372   1.236   6.293
22786WAT      O68599   5.395   5.626   0.626
22786WAT     H168600   5.304   5.592   0.604
22786WAT     H268601   5.425   5.588   0.713
22787WAT      O68602   4.703   5.372   3.279
22787WAT     H168603   4.629   5.375   3.345
22787WAT     H268604   4.721   5.464   3.244
22788WAT      O68605   0.750   1.135   4.078
22788WAT     H168606   0.685   1.197   4.035
22788WAT     H268607   0.743   1.044   4.037
22789WAT      O68608   2.102   6.481   0.336
22789WAT     H168609   2.151   6.467   0.422
22789WAT     H268610   2.151   6.435   0.262
22790WAT      O68611   7.603   1.111   4.071
22790WAT     H168612   7.549   1.188   4.105
22790WAT     H268613   7.667   1.081   4.141
22791WAT      O68614   0.193   5.725   6.595
22791WAT     H168615   0.221   5.782   6.517
22791WAT     H268616   0.224   5.767   6.680
22792WAT      O68617   2.682   1.796   8.917
22792WAT     H168618   2.662   1.797   8.819
22792WAT     H268619   2.728   1.881   8.942
22793WAT      O68620   2.355   4.118   4.461
22793WAT     H168621   2.429   4.091   4.400
22793WAT     H268622   2.327   4.212   4.439
22794WAT      O68623   8.010   0.737   5.636
22794WAT     H168624   8.101   0.710   5.666
22794WAT     H268625   8.018   0.810   5.567
22795WAT      O68626   9.044   7.603   7.219
22795WAT     H168627   9.091   7.515   7.222
22795WAT     H268628   9.007   7.619   7.128
22796WAT      O68629   0.016   5.102   8.153
22796WAT     H168630   0.045   5.053   8.071
22796WAT     H268631   0.058   5.061   8.233
22797WAT      O68632   2.953   3.479   0.417
22797WAT     H168633   2.919   3.573   0.409
22797WAT     H268634   3.052   3.482   0.434
22798WAT      O68635   0.358   4.000   5.896
22798WAT     H168636   0.440   3.944   5.888
22798WAT     H268637   0.278   3.947   5.868
22799WAT      O68638   6.801   4.601   5.196
22799WAT     H168639   6.708   4.564   5.200
22799WAT     H268640   6.796   4.699   5.177
22800WAT      O68641   2.117   9.223   2.218
22800WAT     H168642   2.021   9.198   2.228
22800WAT     H268643   2.124   9.323   2.213
22801WAT      O68644   2.058   3.853   4.075
22801WAT     H168645   2.019   3.782   4.015
22801WAT     H268646   2.146   3.822   4.111
22802WAT      O68647   9.777   4.338   8.895
22802WAT     H168648   9.687   4.332   8.937
22802WAT     H268649   9.832   4.259   8.923
22803WAT      O68650   9.399   1.983   4.502
22803WAT     H168651   9.481   2.029   4.466
22803WAT     H268652   9.361   2.037   4.577
22804WAT      O68653   3.114   7.736   2.338
22804WAT     H168654   3.092   7.797   2.414
22804WAT     H268655   3.190   7.774   2.286
22805WAT      O68656   0.642   3.780   7.358
22805WAT     H168657   0.704   3.807   7.284
22805WAT     H268658   0.647   3.848   7.432
22806WAT      O68659   7.773   1.500   7.061
22806WAT     H168660   7.737   1.444   7.136
22806WAT     H268661   7.706   1.501   6.986
22807WAT      O68662   9.707   9.716   2.900
22807WAT     H168663   9.705   9.685   2.995
22807WAT     H268664   9.664   9.806   2.894
22808WAT      O68665   1.773   1.588   0.569
22808WAT     H168666   1.685   1.552   0.535
22808WAT     H268667   1.847   1.534   0.530
22809WAT      O68668   0.900   7.038   1.282
22809WAT     H168669   0.951   7.054   1.197
22809WAT     H268670   0.802   7.043   1.263
22810WAT      O68671   7.383   6.641   8.440
22810WAT     H168672   7.434   6.566   8.399
22810WAT     H268673   7.327   6.607   8.515
22811WAT      O68674   8.222   2.031   2.555
22811WAT     H168675   8.253   2.114   2.601
22811WAT     H268676   8.149   1.989   2.609
22812WAT      O68677   6.059   9.569   1.645
22812WAT     H168678   6.010   9.506   1.705
22812WAT     H268679   6.090   9.648   1.698
22813WAT      O68680   3.289   1.734   1.750
22813WAT     H168681   3.333   1.691   1.672
22813WAT     H268682   3.336   1.707   1.834
22814WAT      O68683   5.421   5.416   7.894
22814WAT     H168684   5.377   5.351   7.833
22814WAT     H268685   5.486   5.369   7.953
22815WAT      O68686   0.751   5.777   6.279
22815WAT     H168687   0.698   5.700   6.314
22815WAT     H268688   0.712   5.862   6.312
22816WAT      O68689   8.602   5.935   0.211
22816WAT     H168690   8.509   5.902   0.228
22816WAT     H268691   8.623   6.009   0.275
22817WAT      O68692   4.035   9.378   4.039
22817WAT     H168693   3.942   9.411   4.023
22817WAT     H268694   4.057   9.306   3.974
22818WAT      O68695   1.542   9.779   5.636
22818WAT     H168696   1.545   9.688   5.678
22818WAT     H268697   1.615   9.787   5.568
22819WAT      O68698   1.717   0.913   8.354
22819WAT     H168699   1.804   0.912   8.402
22819WAT     H268700   1.645   0.882   8.417
22820WAT      O68701   5.801   9.284   6.766
22820WAT     H168702   5.821   9.274   6.668
22820WAT     H268703   5.806   9.195   6.810
22821WAT      O68704   5.583   0.106   9.378
22821WAT     H168705   5.499   0.070   9.419
22821WAT     H268706   5.633   0.033   9.334
22822WAT      O68707   3.752   9.158   1.847
22822WAT     H168708   3.755   9.246   1.800
22822WAT     H268709   3.709   9.169   1.937
22823WAT      O68710   7.126   0.545   2.347
22823WAT     H168711   7.183   0.466   2.324
22823WAT     H268712   7.181   0.628   2.344
22824WAT      O68713   0.717   2.614   5.997
22824WAT     H168714   0.792   2.678   5.979
22824WAT     H268715   0.749   2.542   6.059
22825WAT      O68716   6.888   2.470   1.354
22825WAT     H168717   6.897   2.427   1.444
22825WAT     H268718   6.922   2.564   1.360
22826WAT      O68719   2.637   6.651   6.087
22826WAT     H168720   2.712   6.667   6.023
22826WAT     H268721   2.563   6.717   6.069
22827WAT      O68722   8.858   5.969   8.024
22827WAT     H168723   8.891   5.917   7.945
22827WAT     H268724   8.768   5.934   8.052
22828WAT      O68725   2.596   4.579   8.009
22828WAT     H168726   2.657   4.503   8.032
22828WAT     H268727   2.633   4.664   8.046
22829WAT      O68728   0.272   6.714   5.233
22829WAT     H168729   0.212   6.733   5.311
22829WAT     H268730   0.217   6.683   5.156
22830WAT      O68731   9.231   8.510   0.261
22830WAT     H168732   9.206   8.606   0.253
22830WAT     H268733   9.237   8.469   0.170
22831WAT      O68734   8.766   2.474   9.328
22831WAT     H168735   8.674   2.493   9.295
22831WAT     H268736   8.808   2.402   9.273
22832WAT      O68737   4.317   9.687   7.166
22832WAT     H168738   4.371   9.602   7.170
22832WAT     H268739   4.308   9.717   7.071
22833WAT      O68740   2.705   5.962   7.279
22833WAT     H168741   2.757   5.878   7.264
22833WAT     H268742   2.758   6.024   7.336
22834WAT      O68743   7.832   7.850   7.405
22834WAT     H168744   7.889   7.885   7.330
22834WAT     H268745   7.809   7.925   7.467
22835WAT      O68746   3.184   7.439   7.848
22835WAT     H168747   3.186   7.535   7.819
22835WAT     H268748   3.252   7.387   7.796
22836WAT      O68749   2.096   3.130   3.707
22836WAT     H168750   2.181   3.082   3.727
22836WAT     H268751   2.053   3.159   3.793
22837WAT      O68752   1.369   6.730   1.313
22837WAT     H168753   1.305   6.799   1.279
22837WAT     H268754   1.359   6.722   1.412
22838WAT      O68755   0.433   8.180   3.079
22838WAT     H168756   0.393   8.271   3.065
22838WAT     H268757   0.360   8.113   3.090
22839WAT      O68758   2.844   1.576   8.570
22839WAT     H168759   2.773   1.547   8.505
22839WAT     H268760   2.809   1.653   8.624
22840WAT      O68761   7.536   4.928   5.734
22840WAT     H168762   7.546   4.890   5.826
22840WAT     H268763   7.574   4.864   5.668
22841WAT      O68764   1.764   1.701   8.994
22841WAT     H168765   1.753   1.797   8.970
22841WAT     H268766   1.763   1.645   8.911
22842WAT      O68767   6.369   3.879   6.882
22842WAT     H168768   6.399   3.952   6.821
22842WAT     H268769   6.414   3.889   6.971
22843WAT      O68770   7.150   4.494   2.388
22843WAT     H168771   7.144   4.396   2.405
22843WAT     H268772   7.245   4.522   2.384
22844WAT      O68773   4.791   5.649   8.331
22844WAT     H168774   4.777   5.563   8.282
22844WAT     H268775   4.706   5.703   8.328
22845WAT      O68776   5.161   2.828   5.718
22845WAT     H168777   5.247   2.787   5.746
22845WAT     H268778   5.148   2.815   5.620
22846WAT      O68779   0.469   7.320   7.202
22846WAT     H168780   0.374   7.339   7.227
22846WAT     H268781   0.475   7.304   7.104
22847WAT      O68782   1.377   2.441   6.810
22847WAT     H168783   1.456   2.463   6.867
22847WAT     H268784   1.407   2.384   6.732
22848WAT      O68785   8.886   5.209   8.941
22848WAT     H168786   8.873   5.130   9.000
22848WAT     H268787   8.803   5.226   8.888
22849WAT      O68788   4.254   3.298   4.306
22849WAT     H168789   4.239   3.279   4.209
22849WAT     H268790   4.183   3.359   4.340
22850WAT      O68791   0.497   1.314   4.828
22850WAT     H168792   0.544   1.229   4.806
22850WAT     H268793   0.482   1.367   4.744
22851WAT      O68794   2.315   8.512   6.784
22851WAT     H168795   2.249   8.575   6.743
22851WAT     H268796   2.405   8.529   6.745
22852WAT      O68797   4.709   7.366   8.095
22852WAT     H168798   4.644   7.404   8.030
22852WAT     H268799   4.737   7.274   8.064
22853WAT      O68800   7.457   6.750   1.183
22853WAT     H168801   7.414   6.666   1.150
22853WAT     H268802   7.403   6.829   1.153
22854WAT      O68803   7.624   6.218   2.530
22854WAT     H168804   7.556   6.229   2.603
22854WAT     H268805   7.673   6.305   2.517
22855WAT      O68806   1.369   3.980   1.517
22855WAT     H168807   1.466   4.002   1.514
22855WAT     H268808   1.354   3.906   1.582
22856WAT      O68809   2.068   7.055   6.702
22856WAT     H168810   2.143   7.001   6.665
22856WAT     H268811   1.990   7.050   6.641
22857WAT      O68812   1.063   1.955   0.896
22857WAT     H168813   1.130   1.964   0.822
22857WAT     H268814   1.111   1.947   0.983
22858WAT      O68815   3.155   1.136   6.727
22858WAT     H168816   3.111   1.216   6.686
22858WAT     H268817   3.245   1.162   6.763
22859WAT      O68818   2.783   4.027   7.276
22859WAT     H168819   2.705   3.976   7.311
22859WAT     H268820   2.850   3.964   7.238
22860WAT      O68821   9.100   1.988   1.916
22860WAT     H168822   9.188   2.016   1.954
22860WAT     H268823   9.064   1.911   1.969
22861WAT      O68824   6.129   8.590   8.285
22861WAT     H168825   6.052   8.616   8.343
22861WAT     H268826   6.203   8.552   8.341
22862WAT      O68827   6.056   1.214   3.446
22862WAT     H168828   5.968   1.246   3.483
22862WAT     H268829   6.065   1.246   3.352
22863WAT      O68830   6.227   1.285   5.616
22863WAT     H168831   6.251   1.302   5.520
22863WAT     H268832   6.130   1.260   5.622
22864WAT      O68833   5.748   3.621   8.008
22864WAT     H168834   5.686   3.656   7.938
22864WAT     H268835   5.703   3.625   8.097
22865WAT      O68836   2.743   4.380   1.160
22865WAT     H168837   2.793   4.448   1.213
22865WAT     H268838   2.658   4.421   1.125
22866WAT      O68839   8.537   9.765   2.864
22866WAT     H168840   8.607   9.723   2.806
22866WAT     H268841   8.485   9.694   2.911
22867WAT      O68842   6.596   1.864   3.160
22867WAT     H168843   6.651   1.864   3.077
22867WAT     H268844   6.622   1.941   3.218
22868WAT      O68845   6.451   8.768   2.311
22868WAT     H168846   6.375   8.810   2.363
22868WAT     H268847   6.441   8.790   2.214
22869WAT      O68848   5.523   5.581   7.544
22869WAT     H168849   5.601   5.595   7.605
22869WAT     H268850   5.555   5.545   7.456
22870WAT      O68851   6.093   3.040   0.394
22870WAT     H168852   6.137   2.956   0.425
22870WAT     H268853   6.127   3.065   0.303
22871WAT      O68854   8.267   9.094   4.431
22871WAT     H168855   8.306   9.003   4.413
22871WAT     H268856   8.302   9.129   4.518
22872WAT      O68857   4.216   0.189   6.395
22872WAT     H168858   4.185   0.267   6.341
22872WAT     H268859   4.142   0.123   6.403
22873WAT      O68860   8.662   1.305   3.797
22873WAT     H168861   8.634   1.214   3.769
22873WAT     H268862   8.723   1.299   3.876
22874WAT      O68863   0.066   5.864   1.836
22874WAT     H168864  -0.029   5.865   1.868
22874WAT     H268865   0.077   5.793   1.767
22875WAT      O68866   8.664   6.636   0.823
22875WAT     H168867   8.592   6.696   0.858
22875WAT     H268868   8.720   6.604   0.900
22876WAT      O68869   8.986   0.556   9.794
22876WAT     H168870   9.017   0.511   9.878
22876WAT     H268871   8.962   0.651   9.814
22877WAT      O68872   3.314   8.382   5.137
22877WAT     H168873   3.374   8.453   5.173
22877WAT     H268874   3.234   8.373   5.196
22878WAT      O68875   1.603   5.908   8.463
22878WAT     H168876   1.690   5.886   8.507
22878WAT     H268877   1.620   5.948   8.373
22879WAT      O68878   3.285   1.254   5.342
22879WAT     H168879   3.375   1.230   5.305
22879WAT     H268880   3.221   1.179   5.323
22880WAT      O68881   9.776   8.018   5.890
22880WAT     H168882   9.759   8.114   5.912
22880WAT     H268883   9.693   7.965   5.908
22881WAT      O68884   6.617   6.829   9.108
22881WAT     H168885   6.697   6.875   9.068
22881WAT     H268886   6.534   6.865   9.066
22882WAT      O68887   0.391   7.926   2.106
22882WAT     H168888   0.359   7.859   2.039
22882WAT     H268889   0.427   8.006   2.058
22883WAT      O68890   0.172   3.774   6.770
22883WAT     H168891   0.112   3.820   6.836
22883WAT     H268892   0.128   3.690   6.739
22884WAT      O68893   2.089   4.290   5.336
22884WAT     H168894   2.076   4.307   5.238
22884WAT     H268895   2.187   4.284   5.356
22885WAT      O68896   0.627   3.269   8.786
22885WAT     H168897   0.711   3.317   8.762
22885WAT     H268898   0.562   3.276   8.710
22886WAT      O68899   8.434   4.481   8.810
22886WAT     H168900   8.397   4.467   8.719
22886WAT     H268901   8.533   4.498   8.804
22887WAT      O68902   5.545   6.566   6.969
22887WAT     H168903   5.505   6.626   7.038
22887WAT     H268904   5.549   6.472   7.004
22888WAT      O68905   7.622   3.334   6.094
22888WAT     H168906   7.674   3.298   6.017
22888WAT     H268907   7.527   3.304   6.088
22889WAT      O68908   4.053   1.237   4.469
22889WAT     H168909   4.127   1.289   4.425
22889WAT     H268910   4.052   1.257   4.567
22890WAT      O68911   8.555   6.941   4.341
22890WAT     H168912   8.653   6.932   4.357
22890WAT     H268913   8.531   6.894   4.256
22891WAT      O68914   1.352   1.970   4.153
22891WAT     H168915   1.267   2.015   4.125
22891WAT     H268916   1.400   1.936   4.071
22892WAT      O68917   4.378   1.212   5.513
22892WAT     H168918   4.430   1.277   5.569
22892WAT     H268919   4.280   1.233   5.520
22893WAT      O68920   2.092   6.150   2.504
22893WAT     H168921   2.081   6.094   2.421
22893WAT     H268922   2.183   6.136   2.542
22894WAT      O68923   9.242   6.759   3.905
22894WAT     H168924   9.318   6.700   3.931
22894WAT     H268925   9.274   6.826   3.837
22895WAT      O68926   5.776   4.645   5.012
22895WAT     H168927   5.867   4.642   5.053
22895WAT     H268928   5.768   4.571   4.945
22896WAT      O68929   2.463   1.497   3.969
22896WAT     H168930   2.542   1.511   3.909
22896WAT     H268931   2.401   1.575   3.961
22897WAT      O68932   9.054   6.221   2.918
22897WAT     H168933   9.090   6.174   2.837
22897WAT     H268934   9.129   6.269   2.964
22898WAT      O68935   4.525   8.621   1.208
22898WAT     H168936   4.486   8.619   1.300
22898WAT     H268937   4.621   8.593   1.212
22899WAT      O68938   1.054   5.941   8.284
22899WAT     H168939   1.135   5.924   8.227
22899WAT     H268940   1.009   6.025   8.254
22900WAT      O68941   0.585   5.182   7.723
22900WAT     H168942   0.607   5.265   7.672
22900WAT     H268943   0.538   5.206   7.808
22901WAT      O68944   5.524   7.669   2.855
22901WAT     H168945   5.433   7.712   2.859
22901WAT     H268946   5.540   7.636   2.762
22902WAT      O68947   6.018   6.979   0.872
22902WAT     H168948   5.956   7.016   0.942
22902WAT     H268949   6.057   7.054   0.819
22903WAT      O68950   1.444   5.061   7.296
22903WAT     H168951   1.414   5.102   7.210
22903WAT     H268952   1.464   4.964   7.280
22904WAT      O68953   8.544   1.429   3.018
22904WAT     H168954   8.461   1.484   3.009
22904WAT     H268955   8.552   1.394   3.112
22905WAT      O68956   5.099   9.502   5.776
22905WAT     H168957   5.100   9.405   5.750
22905WAT     H268958   5.046   9.515   5.859
22906WAT      O68959   2.226   7.773   0.850
22906WAT     H168960   2.288   7.774   0.928
22906WAT     H268961   2.250   7.847   0.787
22907WAT      O68962   8.398   4.981   6.349
22907WAT     H168963   8.319   5.023   6.393
22907WAT     H268964   8.385   4.983   6.250
22908WAT      O68965   0.732   3.198   1.277
22908WAT     H168966   0.791   3.182   1.356
22908WAT     H268967   0.771   3.152   1.197
22909WAT      O68968   8.986   1.065   7.311
22909WAT     H168969   8.933   1.011   7.245
22909WAT     H268970   9.025   1.145   7.266
22910WAT      O68971   0.258   6.945   7.901
22910WAT     H168972   0.214   6.992   7.825
22910WAT     H268973   0.303   6.862   7.867
22911WAT      O68974   1.119   4.749   7.794
22911WAT     H168975   1.065   4.816   7.744
22911WAT     H268976   1.070   4.662   7.796
22912WAT      O68977   3.217   0.982   5.284
22912WAT     H168978   3.230   0.911   5.215
22912WAT     H268979   3.271   0.960   5.365
22913WAT      O68980   0.019   6.958   4.048
22913WAT     H168981  -0.001   7.041   4.099
22913WAT     H268982   0.116   6.937   4.054
22914WAT      O68983   0.149   5.129   5.978
22914WAT     H168984   0.200   5.085   5.904
22914WAT     H268985   0.177   5.224   5.986
22915WAT      O68986   5.072   9.255   6.929
22915WAT     H168987   4.990   9.241   6.873
22915WAT     H268988   5.045   9.284   7.021
22916WAT      O68989   5.183   9.432   5.283
22916WAT     H168990   5.211   9.391   5.370
22916WAT     H268991   5.140   9.520   5.300
22917WAT      O68992   9.701   4.533   0.379
22917WAT     H168993   9.685   4.519   0.477
22917WAT     H268994   9.636   4.477   0.327
22918WAT      O68995   7.727   0.210   6.780
22918WAT     H168996   7.675   0.284   6.738
22918WAT     H268997   7.748   0.140   6.712
22919WAT      O68998   1.867   1.722   6.964
22919WAT     H168999   1.818   1.806   6.987
22919WAT     H269000   1.860   1.706   6.866
22920WAT      O69001   2.029   4.050   1.587
22920WAT     H169002   1.985   4.137   1.565
22920WAT     H269003   1.983   3.976   1.536
22921WAT      O69004   0.526   7.027   7.593
22921WAT     H169005   0.563   7.085   7.520
22921WAT     H269006   0.545   6.931   7.572
22922WAT      O69007   9.812   4.375   1.254
22922WAT     H169008   9.910   4.357   1.261
22922WAT     H269009   9.786   4.446   1.319
22923WAT      O69010   7.041   2.460   6.436
22923WAT     H169011   7.075   2.550   6.461
22923WAT     H269012   7.110   2.412   6.383
22924WAT      O69013   8.394   0.357   6.526
22924WAT     H169014   8.413   0.453   6.507
22924WAT     H269015   8.366   0.311   6.442
22925WAT      O69016   3.975   9.816   4.664
22925WAT     H169017   4.028   9.755   4.606
22925WAT     H269018   3.953   9.899   4.613
22926WAT      O69019   5.409   8.461   0.898
22926WAT     H169020   5.369   8.553   0.894
22926WAT     H269021   5.336   8.393   0.898
22927WAT      O69022   2.512   8.646   5.003
22927WAT     H169023   2.579   8.643   5.078
22927WAT     H269024   2.432   8.593   5.028
22928WAT      O69025   4.310   8.126   2.152
22928WAT     H169026   4.374   8.078   2.093
22928WAT     H269027   4.272   8.063   2.219
22929WAT      O69028   7.378   5.441   0.191
22929WAT     H169029   7.309   5.398   0.249
22929WAT     H269030   7.465   5.392   0.201
22930WAT      O69031   4.732   3.691   5.785
22930WAT     H169032   4.738   3.659   5.690
22930WAT     H269033   4.751   3.789   5.788
22931WAT      O69034   2.964   6.890   0.261
22931WAT     H169035   2.961   6.936   0.173
22931WAT     H269036   2.949   6.792   0.248
22932WAT      O69037   6.268   3.624   2.600
22932WAT     H169038   6.280   3.550   2.665
22932WAT     H269039   6.171   3.637   2.581
22933WAT      O69040   6.014   3.289   2.854
22933WAT     H169041   5.941   3.327   2.797
22933WAT     H269042   6.039   3.198   2.820
22934WAT      O69043   8.073   1.153   9.657
22934WAT     H169044   8.097   1.078   9.718
22934WAT     H269045   8.044   1.116   9.568
22935WAT      O69046   8.563   6.466   5.414
22935WAT     H169047   8.604   6.554   5.393
22935WAT     H269048   8.632   6.406   5.454
22936WAT      O69049   5.157   0.881   6.982
22936WAT     H169050   5.174   0.876   7.081
22936WAT     H269051   5.211   0.813   6.935
22937WAT      O69052   6.798   6.937   3.210
22937WAT     H169053   6.781   6.843   3.180
22937WAT     H269054   6.827   6.993   3.133
22938WAT      O69055   2.122   2.137   9.246
22938WAT     H169056   2.156   2.047   9.218
22938WAT     H269057   2.076   2.129   9.334
22939WAT      O69058   0.491   7.714   5.071
22939WAT     H169059   0.450   7.741   5.159
22939WAT     H269060   0.482   7.615   5.059
22940WAT      O69061   7.252   5.177   2.021
22940WAT     H169062   7.296   5.234   1.952
22940WAT     H269063   7.192   5.233   2.077
22941WAT      O69064   1.393   5.934   0.147
22941WAT     H169065   1.318   5.876   0.180
22941WAT     H269066   1.446   5.966   0.226
22942WAT      O69067   5.520   3.925   6.849
22942WAT     H169068   5.619   3.920   6.853
22942WAT     H269069   5.490   3.921   6.753
22943WAT      O69070   5.540   7.663   3.320
22943WAT     H169071   5.583   7.732   3.261
22943WAT     H269072   5.503   7.589   3.264
22944WAT      O69073   3.448   3.370   8.987
22944WAT     H169074   3.519   3.420   8.937
22944WAT     H269075   3.367   3.428   8.996
22945WAT      O69076   8.290   7.949   6.361
22945WAT     H169077   8.201   7.912   6.389
22945WAT     H269078   8.354   7.944   6.438
22946WAT      O69079   2.475   5.085   1.256
22946WAT     H169080   2.464   5.156   1.326
22946WAT     H269081   2.385   5.060   1.220
22947WAT      O69082   3.273   2.000   0.385
22947WAT     H169083   3.357   2.010   0.332
22947WAT     H269084   3.194   2.016   0.326
22948WAT      O69085   8.103   5.504   6.447
22948WAT     H169086   8.065   5.541   6.362
22948WAT     H269087   8.196   5.470   6.430
22949WAT      O69088   6.462   5.317   9.519
22949WAT     H169089   6.498   5.227   9.541
22949WAT     H269090   6.380   5.308   9.463
22950WAT      O69091   8.256   3.433   2.869
22950WAT     H169092   8.341   3.482   2.850
22950WAT     H269093   8.236   3.371   2.794
22951WAT      O69094   1.783   0.504   3.522
22951WAT     H169095   1.779   0.425   3.461
22951WAT     H269096   1.854   0.566   3.491
22952WAT      O69097   7.692   2.605   3.779
22952WAT     H169098   7.727   2.551   3.703
22952WAT     H269099   7.682   2.546   3.860
22953WAT      O69100   1.080   6.059   7.255
22953WAT     H169101   1.044   6.141   7.300
22953WAT     H269102   1.114   6.083   7.165
22954WAT      O69103   6.699   7.820   1.935
22954WAT     H169104   6.723   7.917   1.930
22954WAT     H269105   6.748   7.777   2.011
22955WAT      O69106   6.835   7.063   2.652
22955WAT     H169107   6.926   7.100   2.633
22955WAT     H269108   6.823   7.054   2.751
22956WAT      O69109   9.587   5.528   3.021
22956WAT     H169110   9.582   5.598   2.950
22956WAT     H269111   9.613   5.441   2.980
22957WAT      O69112   7.175   1.062   6.855
22957WAT     H169113   7.187   0.966   6.829
22957WAT     H269114   7.230   1.119   6.794
22958WAT      O69115   5.039   4.941   6.849
22958WAT     H169116   4.997   5.031   6.840
22958WAT     H269117   5.047   4.918   6.946
22959WAT      O69118   2.124   5.426   4.124
22959WAT     H169119   2.222   5.412   4.106
22959WAT     H269120   2.089   5.496   4.061
22960WAT      O69121   2.544   3.213   5.379
22960WAT     H169122   2.560   3.169   5.290
22960WAT     H269123   2.631   3.224   5.426
22961WAT      O69124   5.345   0.977   6.222
22961WAT     H169125   5.442   0.975   6.248
22961WAT     H269126   5.310   0.884   6.216
22962WAT      O69127   5.796   5.690   3.000
22962WAT     H169128   5.766   5.596   2.986
22962WAT     H269129   5.893   5.698   2.976
22963WAT      O69130   8.577   7.998   2.650
22963WAT     H169131   8.530   8.076   2.691
22963WAT     H269132   8.553   7.915   2.699
22964WAT      O69133   1.186   6.710   9.571
22964WAT     H169134   1.250   6.643   9.533
22964WAT     H269135   1.177   6.786   9.507
22965WAT      O69136   2.571   7.783   2.983
22965WAT     H169137   2.586   7.755   2.888
22965WAT     H269138   2.473   7.774   3.005
22966WAT      O69139   6.852   4.010   1.680
22966WAT     H169140   6.808   4.007   1.770
22966WAT     H269141   6.904   4.095   1.670
22967WAT      O69142   0.079   4.487   9.129
22967WAT     H169143   0.096   4.391   9.105
22967WAT     H269144   0.035   4.533   9.052
22968WAT      O69145   2.401   9.790   9.486
22968WAT     H169146   2.401   9.767   9.389
22968WAT     H269147   2.428   9.886   9.498
22969WAT      O69148   4.226   8.189   7.391
22969WAT     H169149   4.250   8.094   7.411
22969WAT     H269150   4.129   8.204   7.412
22970WAT      O69151   2.398   5.398   4.151
22970WAT     H169152   2.384   5.301   4.172
22970WAT     H269153   2.454   5.406   4.069
22971WAT      O69154   2.961   6.414   3.693
22971WAT     H169155   3.061   6.417   3.698
22971WAT     H269156   2.933   6.380   3.604
22972WAT      O69157   7.203   5.610   4.301
22972WAT     H169158   7.255   5.593   4.217
22972WAT     H269159   7.149   5.530   4.324
22973WAT      O69160   0.843   2.175   4.475
22973WAT     H169161   0.783   2.232   4.531
22973WAT     H269162   0.790   2.136   4.399
22974WAT      O69163   6.994   7.177   0.122
22974WAT     H169164   6.977   7.135   0.033
22974WAT     H269165   7.060   7.252   0.111
22975WAT      O69166   6.711   5.413   7.834
22975WAT     H169167   6.804   5.383   7.813
22975WAT     H269168   6.681   5.481   7.768
22976WAT      O69169   8.338   8.204   6.456
22976WAT     H169170   8.317   8.286   6.404
22976WAT     H269171   8.302   8.124   6.408
22977WAT      O69172   4.348   7.031   0.224
22977WAT     H169173   4.404   7.056   0.304
22977WAT     H269174   4.372   6.939   0.195
22978WAT      O69175   5.949   7.850   1.897
22978WAT     H169176   5.966   7.752   1.888
22978WAT     H269177   6.035   7.900   1.893
22979WAT      O69178   0.417   1.672   1.167
22979WAT     H169179   0.427   1.600   1.236
22979WAT     H269180   0.337   1.652   1.110
22980WAT      O69181   1.047   0.654   4.811
22980WAT     H169182   1.061   0.559   4.783
22980WAT     H269183   1.127   0.687   4.861
22981WAT      O69184   7.665   4.646   8.903
22981WAT     H169185   7.696   4.650   8.998
22981WAT     H269186   7.733   4.690   8.844
22982WAT      O69187   6.913   0.076   6.037
22982WAT     H169188   6.880  -0.009   6.077
22982WAT     H269189   6.914   0.069   5.937
22983WAT      O69190   0.210   9.082   4.251
22983WAT     H169191   0.113   9.083   4.226
22983WAT     H269192   0.239   9.174   4.276
22984WAT      O69193   4.101   3.402   3.928
22984WAT     H169194   4.026   3.392   3.992
22984WAT     H269195   4.065   3.419   3.836
22985WAT      O69196   6.751   9.171   1.759
22985WAT     H169197   6.790   9.094   1.708
22985WAT     H269198   6.803   9.184   1.843
22986WAT      O69199   2.072   9.525   1.482
22986WAT     H169200   1.988   9.559   1.525
22986WAT     H269201   2.124   9.471   1.548
22987WAT      O69202   6.488   8.161   6.252
22987WAT     H169203   6.454   8.077   6.210
22987WAT     H269204   6.446   8.171   6.343
22988WAT      O69205   8.235   9.758   2.670
22988WAT     H169206   8.189   9.786   2.586
22988WAT     H269207   8.272   9.838   2.716
22989WAT      O69208   1.069   4.743   6.974
22989WAT     H169209   1.029   4.685   6.902
22989WAT     H269210   1.139   4.692   7.023
22990WAT      O69211   5.998   6.413   9.042
22990WAT     H169212   6.092   6.426   9.074
22990WAT     H269213   5.953   6.343   9.099
22991WAT      O69214   7.680   9.027   8.514
22991WAT     H169215   7.599   8.975   8.484
22991WAT     H269216   7.716   9.080   8.437
22992WAT      O69217   9.526   2.114   3.348
22992WAT     H169218   9.434   2.123   3.387
22992WAT     H269219   9.582   2.058   3.409
22993WAT      O69220   7.549   4.600   3.006
22993WAT     H169221   7.610   4.548   3.066
22993WAT     H269222   7.455   4.567   3.017
22994WAT      O69223   7.243   8.978   0.061
22994WAT     H169224   7.307   8.930   0.121
22994WAT     H269225   7.260   8.952  -0.034
22995WAT      O69226   7.407   9.781   6.033
22995WAT     H169227   7.396   9.849   6.105
22995WAT     H269228   7.348   9.804   5.955
22996WAT      O69229   3.105   1.007   7.354
22996WAT     H169230   3.082   0.914   7.325
22996WAT     H269231   3.051   1.030   7.435
22997WAT      O69232   0.555   1.795   3.887
22997WAT     H169233   0.590   1.857   3.957
22997WAT     H269234   0.491   1.844   3.828
22998WAT      O69235   6.848   4.077   2.698
22998WAT     H169236   6.886   4.081   2.606
22998WAT     H269237   6.846   4.169   2.737
22999WAT      O69238   1.241   0.523   8.786
22999WAT     H169239   1.271   0.547   8.694
22999WAT     H269240   1.318   0.532   8.850
23000WAT      O69241   2.623   8.634   6.038
23000WAT     H169242   2.670   8.667   5.956
23000WAT     H269243   2.525   8.624   6.019
23001WAT      O69244   3.239   2.925   0.851
23001WAT     H169245   3.247   2.996   0.781
23001WAT     H269246   3.279   2.840   0.818
23002WAT      O69247   2.295   4.335   4.956
23002WAT     H169248   2.325   4.240   4.947
23002WAT     H269249   2.365   4.395   4.916
23003WAT      O69250   8.934   3.206   6.662
23003WAT     H169251   8.956   3.121   6.710
23003WAT     H269252   8.838   3.230   6.677
23004WAT      O69253   1.586   9.068   8.090
23004WAT     H169254   1.651   9.026   8.026
23004WAT     H269255   1.595   9.025   8.180
23005WAT      O69256   2.814   8.906   5.009
23005WAT     H169257   2.900   8.904   5.061
23005WAT     H269258   2.745   8.851   5.056
23006WAT      O69259   7.205   7.519   6.855
23006WAT     H169260   7.235   7.593   6.794
23006WAT     H269261   7.247   7.531   6.945
23007WAT      O69262   4.328   9.484   4.438
23007WAT     H169263   4.246   9.503   4.492
23007WAT     H269264   4.356   9.390   4.452
23008WAT      O69265   0.838   1.073   6.093
23008WAT     H169266   0.901   1.066   6.016
23008WAT     H269267   0.799   0.983   6.112
23009WAT      O69268   8.716   4.611   5.221
23009WAT     H169269   8.652   4.685   5.204
23009WAT     H269270   8.759   4.623   5.310
23010WAT      O69271   5.215   9.448   9.258
23010WAT     H169272   5.144   9.507   9.220
23010WAT     H269273   5.305   9.483   9.232
23011WAT      O69274   3.526   7.277   0.384
23011WAT     H169275   3.513   7.185   0.421
23011WAT     H269276   3.575   7.334   0.451
23012WAT      O69277   0.950   7.259   3.815
23012WAT     H169278   0.901   7.242   3.730
23012WAT     H269279   1.019   7.330   3.800
23013WAT      O69280   8.547   4.090   7.141
23013WAT     H169281   8.572   4.115   7.047
23013WAT     H269282   8.593   4.004   7.166
23014WAT      O69283   2.363   5.017   0.521
23014WAT     H169284   2.333   4.934   0.568
23014WAT     H269285   2.463   5.020   0.519
23015WAT      O69286   9.047   6.098   6.261
23015WAT     H169287   9.124   6.162   6.262
23015WAT     H269288   9.040   6.052   6.349
23016WAT      O69289   2.751   8.331   0.205
23016WAT     H169290   2.810   8.391   0.150
23016WAT     H269291   2.697   8.386   0.267
23017WAT      O69292   7.735   0.555   9.054
23017WAT     H169293   7.681   0.480   9.093
23017WAT     H269294   7.721   0.558   8.955
23018WAT      O69295   4.366   8.181   0.601
23018WAT     H169296   4.402   8.088   0.611
23018WAT     H269297   4.266   8.178   0.608
23019WAT      O69298   0.412   9.345   5.401
23019WAT     H169299   0.356   9.336   5.484
23019WAT     H269300   0.438   9.254   5.368
23020WAT      O69301   6.664   5.854   7.387
23020WAT     H169302   6.588   5.867   7.450
23020WAT     H269303   6.693   5.758   7.390
23021WAT      O69304   7.146   1.099   4.361
23021WAT     H169305   7.161   1.010   4.318
23021WAT     H269306   7.092   1.087   4.444
23022WAT      O69307   6.355   5.552   6.541
23022WAT     H169308   6.273   5.609   6.538
23022WAT     H269309   6.424   5.589   6.479
23023WAT      O69310   9.211   8.427   5.188
23023WAT     H169311   9.179   8.337   5.218
23023WAT     H269312   9.160   8.454   5.106
23024WAT      O69313   3.378   0.652   8.802
23024WAT     H169314   3.451   0.720   8.811
23024WAT     H269315   3.351   0.644   8.706
23025WAT      O69316   6.827   5.904   6.743
23025WAT     H169317   6.816   5.882   6.646
23025WAT     H269318   6.921   5.934   6.760
23026WAT      O69319   8.421   4.683   1.736
23026WAT     H169320   8.421   4.733   1.822
23026WAT     H269321   8.378   4.594   1.749
23027WAT      O69322   8.025   7.756   2.253
23027WAT     H169323   8.016   7.825   2.324
23027WAT     H269324   8.122   7.747   2.228
23028WAT      O69325   2.705   1.170   4.898
23028WAT     H169326   2.681   1.086   4.946
23028WAT     H269327   2.622   1.217   4.869
23029WAT      O69328   1.431   2.325   0.715
23029WAT     H169329   1.482   2.284   0.640
23029WAT     H269330   1.490   2.391   0.763
23030WAT      O69331   0.925   3.994   0.714
23030WAT     H169332   0.964   4.073   0.666
23030WAT     H269333   0.845   3.961   0.664
23031WAT      O69334   4.938   0.796   3.952
23031WAT     H169335   4.960   0.710   3.997
23031WAT     H269336   5.022   0.842   3.924
23032WAT      O69337   8.044   6.576   8.980
23032WAT     H169338   7.987   6.498   9.005
23032WAT     H269339   7.997   6.631   8.911
23033WAT      O69340   0.375   9.475   2.574
23033WAT     H169341   0.423   9.542   2.517
23033WAT     H269342   0.351   9.516   2.662
23034WAT      O69343   8.962   3.272   9.832
23034WAT     H169344   8.874   3.268   9.880
23034WAT     H269345   9.032   3.228   9.888
23035WAT      O69346   6.047   8.784   2.807
23035WAT     H169347   6.006   8.693   2.798
23035WAT     H269348   6.143   8.775   2.833
23036WAT      O69349   2.644   3.136   6.188
23036WAT     H169350   2.733   3.098   6.162
23036WAT     H269351   2.574   3.067   6.172
23037WAT      O69352   9.295   6.625   3.186
23037WAT     H169353   9.209   6.612   3.136
23037WAT     H269354   9.363   6.668   3.126
23038WAT      O69355   0.298   0.879   3.750
23038WAT     H169356   0.348   0.894   3.664
23038WAT     H269357   0.299   0.963   3.804
23039WAT      O69358   0.495   9.303   8.208
23039WAT     H169359   0.487   9.358   8.291
23039WAT     H269360   0.515   9.208   8.233
23040WAT      O69361   5.922   1.710   2.415
23040WAT     H169362   5.909   1.749   2.505
23040WAT     H269363   6.020   1.708   2.393
23041WAT      O69364   0.324   1.867   0.006
23041WAT     H169365   0.373   1.790  -0.033
23041WAT     H269366   0.368   1.952  -0.023
23042WAT      O69367   1.043   9.815   5.596
23042WAT     H169368   0.951   9.833   5.631
23042WAT     H269369   1.108   9.818   5.672
23043WAT      O69370   1.029   0.187   6.412
23043WAT     H169371   1.062   0.264   6.358
23043WAT     H269372   1.100   0.117   6.416
23044WAT      O69373   9.578   5.621   6.878
23044WAT     H169374   9.486   5.600   6.843
23044WAT     H269375   9.571   5.655   6.972
23045WAT      O69376   7.378   9.065   2.672
23045WAT     H169377   7.394   9.157   2.709
23045WAT     H269378   7.460   9.034   2.624
23046WAT      O69379   4.215   4.522   9.873
23046WAT     H169380   4.156   4.449   9.837
23046WAT     H269381   4.311   4.495   9.863
23047WAT      O69382   6.587   1.501   3.820
23047WAT     H169383   6.623   1.592   3.797
23047WAT     H269384   6.663   1.441   3.846
23048WAT      O69385   1.064   1.001   9.654
23048WAT     H169386   1.143   0.940   9.658
23048WAT     H269387   0.982   0.949   9.631
23049WAT      O69388   3.710   8.864   3.981
23049WAT     H169389   3.755   8.949   3.955
23049WAT     H269390   3.621   8.858   3.935
23050WAT      O69391   7.198   5.670   9.209
23050WAT     H169392   7.234   5.657   9.116
23050WAT     H269393   7.166   5.764   9.219
23051WAT      O69394   2.680   8.350   9.771
23051WAT     H169395   2.652   8.430   9.824
23051WAT     H269396   2.756   8.375   9.711
23052WAT      O69397   6.148   2.263   5.792
23052WAT     H169398   6.058   2.292   5.823
23052WAT     H269399   6.172   2.312   5.708
23053WAT      O69400   6.022   5.438   5.050
23053WAT     H169401   6.047   5.490   5.132
23053WAT     H269402   5.947   5.376   5.072
23054WAT      O69403   4.815   7.065   5.943
23054WAT     H169404   4.745   7.046   6.012
23054WAT     H269405   4.838   7.162   5.944
23055WAT      O69406   9.416   1.542   8.404
23055WAT     H169407   9.386   1.477   8.474
23055WAT     H269408   9.512   1.567   8.420
23056WAT      O69409   4.656   8.501   0.175
23056WAT     H169410   4.604   8.574   0.221
23056WAT     H269411   4.722   8.461   0.239
23057WAT      O69412   3.473   7.915   4.258
23057WAT     H169413   3.533   7.839   4.231
23057WAT     H269414   3.504   7.951   4.346
23058WAT      O69415   3.186   6.582   1.505
23058WAT     H169416   3.190   6.482   1.498
23058WAT     H269417   3.206   6.609   1.600
23059WAT      O69418   9.876   5.733   7.904
23059WAT     H169419   9.953   5.781   7.862
23059WAT     H269420   9.909   5.669   7.972
23060WAT      O69421   2.772   2.961   7.502
23060WAT     H169422   2.830   2.987   7.425
23060WAT     H269423   2.821   2.976   7.587
23061WAT      O69424   3.577   6.054   0.346
23061WAT     H169425   3.644   6.075   0.275
23061WAT     H269426   3.549   6.139   0.391
23062WAT      O69427   7.550   3.092   4.970
23062WAT     H169428   7.476   3.074   5.035
23062WAT     H269429   7.571   3.190   4.969
23063WAT      O69430   4.339   3.453   6.899
23063WAT     H169431   4.323   3.368   6.849
23063WAT     H269432   4.384   3.433   6.986
23064WAT      O69433   6.458   8.519   8.042
23064WAT     H169434   6.498   8.569   8.119
23064WAT     H269435   6.480   8.421   8.051
23065WAT      O69436   1.232   0.205   1.474
23065WAT     H169437   1.206   0.243   1.385
23065WAT     H269438   1.268   0.278   1.532
23066WAT      O69439   0.149   9.540   8.311
23066WAT     H169440   0.068   9.572   8.361
23066WAT     H269441   0.150   9.580   8.219
23067WAT      O69442   5.067   6.923   5.314
23067WAT     H169443   4.967   6.931   5.305
23067WAT     H269444   5.112   6.991   5.257
23068WAT      O69445   6.135   9.838   7.210
23068WAT     H169446   6.093   9.747   7.214
23068WAT     H269447   6.193   9.844   7.129
23069WAT      O69448   4.656   2.602   0.289
23069WAT     H169449   4.670   2.588   0.191
23069WAT     H269450   4.700   2.687   0.317
23070WAT      O69451   5.303   4.143   1.421
23070WAT     H169452   5.312   4.059   1.475
23070WAT     H269453   5.288   4.221   1.482
23071WAT      O69454   7.441   2.719   9.140
23071WAT     H169455   7.376   2.659   9.093
23071WAT     H269456   7.401   2.753   9.225
23072WAT      O69457   3.629   8.838   7.074
23072WAT     H169458   3.635   8.804   7.168
23072WAT     H269459   3.626   8.938   7.075
23073WAT      O69460   7.048   5.565   3.991
23073WAT     H169461   6.950   5.581   3.977
23073WAT     H269462   7.096   5.653   3.995
23074WAT      O69463   3.890   2.581   0.057
23074WAT     H169464   3.957   2.574  -0.017
23074WAT     H269465   3.922   2.649   0.124
23075WAT      O69466   2.087   4.104   3.395
23075WAT     H169467   2.043   4.131   3.481
23075WAT     H269468   2.024   4.045   3.344
23076WAT      O69469   1.100   6.418   3.390
23076WAT     H169470   1.083   6.423   3.291
23076WAT     H269471   1.018   6.446   3.439
23077WAT      O69472   9.497   8.551   7.638
23077WAT     H169473   9.577   8.569   7.694
23077WAT     H269474   9.436   8.487   7.686
23078WAT      O69475   1.076   7.087   9.196
23078WAT     H169476   1.134   7.167   9.209
23078WAT     H269477   0.992   7.114   9.148
23079WAT      O69478   9.588   5.503   3.716
23079WAT     H169479   9.538   5.483   3.633
23079WAT     H269480   9.524   5.516   3.792
23080WAT      O69481   5.895   3.237   5.278
23080WAT     H169482   5.814   3.180   5.290
23080WAT     H269483   5.960   3.219   5.353
23081WAT      O69484   4.750   8.854   0.950
23081WAT     H169485   4.751   8.893   1.042
23081WAT     H269486   4.700   8.767   0.951
23082WAT      O69487   9.645   3.986   4.350
23082WAT     H169488   9.724   3.927   4.363
23082WAT     H269489   9.652   4.033   4.262
23083WAT      O69490   9.665   4.914   8.798
23083WAT     H169491   9.606   4.834   8.784
23083WAT     H269492   9.612   4.987   8.840
23084WAT      O69493   9.401   4.812   5.677
23084WAT     H169494   9.393   4.911   5.667
23084WAT     H269495   9.408   4.769   5.587
23085WAT      O69496   3.978   4.287   8.450
23085WAT     H169497   4.055   4.271   8.511
23085WAT     H269498   3.939   4.377   8.468
23086WAT      O69499   6.569   4.171   1.377
23086WAT     H169500   6.575   4.240   1.305
23086WAT     H269501   6.611   4.206   1.461
23087WAT      O69502   3.479   7.818   9.618
23087WAT     H169503   3.547   7.747   9.635
23087WAT     H269504   3.394   7.776   9.585
23088WAT      O69505   1.395   7.544   2.856
23088WAT     H169506   1.400   7.538   2.757
23088WAT     H269507   1.299   7.547   2.884
23089WAT      O69508   3.405   1.744   2.070
23089WAT     H169509   3.315   1.786   2.059
23089WAT     H269510   3.475   1.816   2.075
23090WAT      O69511   1.525   9.099   6.303
23090WAT     H169512   1.568   9.016   6.267
23090WAT     H269513   1.465   9.075   6.380
23091WAT      O69514   9.686   2.746   7.337
23091WAT     H169515   9.738   2.819   7.292
23091WAT     H269516   9.610   2.787   7.389
23092WAT      O69517   1.745   5.966   8.234
23092WAT     H169518   1.676   5.956   8.162
23092WAT     H269519   1.834   5.938   8.199
23093WAT      O69520   7.755   6.401   9.735
23093WAT     H169521   7.703   6.483   9.709
23093WAT     H269522   7.700   6.320   9.719
23094WAT      O69523   8.735   0.404   2.197
23094WAT     H169524   8.710   0.496   2.228
23094WAT     H269525   8.756   0.406   2.099
23095WAT      O69526   0.853   3.824   4.522
23095WAT     H169527   0.786   3.771   4.470
23095WAT     H269528   0.826   3.825   4.618
23096WAT      O69529   2.939   0.111   0.338
23096WAT     H169530   2.866   0.084   0.275
23096WAT     H269531   2.911   0.091   0.432
23097WAT      O69532   0.121   8.106   5.400
23097WAT     H169533   0.043   8.160   5.433
23097WAT     H269534   0.127   8.115   5.300
23098WAT      O69535   0.679   8.701   1.271
23098WAT     H169536   0.610   8.685   1.341
23098WAT     H269537   0.636   8.705   1.181
23099WAT      O69538   5.912   7.233   6.294
23099WAT     H169539   5.919   7.214   6.392
23099WAT     H269540   5.929   7.330   6.278
23100WAT      O69541   9.861   5.596   3.715
23100WAT     H169542   9.861   5.557   3.807
23100WAT     H269543   9.770   5.591   3.676
23101WAT      O69544   0.310   8.798   8.906
23101WAT     H169545   0.215   8.827   8.914
23101WAT     H269546   0.320   8.735   8.829
23102WAT      O69547   6.243   3.285   6.881
23102WAT     H169548   6.182   3.206   6.886
23102WAT     H269549   6.338   3.253   6.885
23103WAT      O69550   7.365   8.648   0.381
23103WAT     H169551   7.441   8.584   0.371
23103WAT     H269552   7.358   8.676   0.477
23104WAT      O69553   1.500   3.690   6.315
23104WAT     H169554   1.520   3.688   6.217
23104WAT     H269555   1.433   3.762   6.334
23105WAT      O69556   7.104   7.224   5.412
23105WAT     H169557   7.157   7.228   5.497
23105WAT     H269558   7.009   7.248   5.431
23106WAT      O69559   6.466   3.188   0.272
23106WAT     H169560   6.562   3.175   0.297
23106WAT     H269561   6.455   3.178   0.173
23107WAT      O69562   2.485   3.366   8.591
23107WAT     H169563   2.411   3.341   8.529
23107WAT     H269564   2.452   3.433   8.657
23108WAT      O69565   2.428   9.281   2.660
23108WAT     H169566   2.506   9.227   2.692
23108WAT     H269567   2.383   9.324   2.738
23109WAT      O69568   1.926   4.662   4.494
23109WAT     H169569   1.905   4.668   4.591
23109WAT     H269570   2.007   4.605   4.480
23110WAT      O69571   5.396   1.945   0.740
23110WAT     H169572   5.312   1.900   0.770
23110WAT     H269573   5.467   1.876   0.726
23111WAT      O69574   0.671   2.242   1.967
23111WAT     H169575   0.578   2.279   1.973
23111WAT     H269576   0.719   2.258   2.053
23112WAT      O69577   5.352   7.480   4.369
23112WAT     H169578   5.340   7.492   4.271
23112WAT     H269579   5.357   7.569   4.414
23113WAT      O69580   2.906   0.798   3.707
23113WAT     H169581   2.925   0.883   3.658
23113WAT     H269582   2.810   0.772   3.693
23114WAT      O69583   4.400   9.089   1.617
23114WAT     H169584   4.486   9.140   1.616
23114WAT     H269585   4.390   9.044   1.706
23115WAT      O69586   8.021   5.884   6.563
23115WAT     H169587   8.034   5.852   6.469
23115WAT     H269588   7.973   5.972   6.562
23116WAT      O69589   5.667   6.687   9.336
23116WAT     H169590   5.622   6.667   9.249
23116WAT     H269591   5.710   6.604   9.371
23117WAT      O69592   5.651   2.032   1.108
23117WAT     H169593   5.629   2.072   1.196
23117WAT     H269594   5.584   1.961   1.086
23118WAT      O69595   3.877   3.566   6.113
23118WAT     H169596   3.962   3.548   6.062
23118WAT     H269597   3.854   3.663   6.105
23119WAT      O69598   6.922   8.386   4.169
23119WAT     H169599   6.850   8.440   4.213
23119WAT     H269600   6.973   8.445   4.106
23120WAT      O69601   4.031   7.522   4.269
23120WAT     H169602   3.965   7.539   4.196
23120WAT     H269603   4.123   7.514   4.230
23121WAT      O69604   8.248   7.460   3.058
23121WAT     H169605   8.302   7.541   3.080
23121WAT     H269606   8.254   7.395   3.134
23122WAT      O69607   5.438   5.831   5.654
23122WAT     H169608   5.473   5.806   5.744
23122WAT     H269609   5.391   5.919   5.659
23123WAT      O69610   9.186   0.691   5.246
23123WAT     H169611   9.239   0.697   5.162
23123WAT     H269612   9.167   0.595   5.267
23124WAT      O69613   3.241   4.743   1.696
23124WAT     H169614   3.145   4.713   1.690
23124WAT     H269615   3.299   4.664   1.715
23125WAT      O69616   4.717   6.802   1.640
23125WAT     H169617   4.755   6.819   1.731
23125WAT     H269618   4.636   6.860   1.626
23126WAT      O69619   2.103   6.083   1.782
23126WAT     H169620   2.120   6.140   1.702
23126WAT     H269621   2.169   6.106   1.854
23127WAT      O69622   1.473   3.854   6.638
23127WAT     H169623   1.540   3.853   6.711
23127WAT     H269624   1.517   3.828   6.552
23128WAT      O69625   6.149   2.518   7.780
23128WAT     H169626   6.105   2.598   7.821
23128WAT     H269627   6.131   2.437   7.837
23129WAT      O69628   4.607   8.048   5.452
23129WAT     H169629   4.662   8.115   5.500
23129WAT     H269630   4.663   8.001   5.383
23130WAT      O69631   1.545   9.405   8.645
23130WAT     H169632   1.618   9.447   8.699
23130WAT     H269633   1.583   9.331   8.591
23131WAT      O69634   6.545   0.669   4.879
23131WAT     H169635   6.497   0.750   4.845
23131WAT     H269636   6.528   0.592   4.818
23132WAT      O69637   0.660   4.891   6.485
23132WAT     H169638   0.627   4.810   6.436
23132WAT     H269639   0.605   4.905   6.567
23133WAT      O69640   4.978   2.486   3.162
23133WAT     H169641   4.898   2.427   3.167
23133WAT     H269642   5.061   2.430   3.156
23134WAT      O69643   6.668   6.942   7.746
23134WAT     H169644   6.608   6.869   7.780
23134WAT     H269645   6.758   6.933   7.788
23135WAT      O69646   2.910   3.155   9.808
23135WAT     H169647   2.845   3.096   9.760
23135WAT     H269648   2.878   3.172   9.901
23136WAT      O69649   5.472   9.789   6.382
23136WAT     H169650   5.546   9.767   6.446
23136WAT     H269651   5.477   9.886   6.358
23137WAT      O69652   0.014   0.588   6.354
23137WAT     H169653  -0.056   0.587   6.426
23137WAT     H269654   0.099   0.623   6.391
23138WAT      O69655   3.583   1.953   8.516
23138WAT     H169656   3.577   1.946   8.615
23138WAT     H269657   3.603   1.862   8.478
23139WAT      O69658   1.899   3.645   8.601
23139WAT     H169659   1.937   3.553   8.592
23139WAT     H269660   1.799   3.638   8.611
23140WAT      O69661   3.597   6.968   7.891
23140WAT     H169662   3.570   6.964   7.987
23140WAT     H269663   3.579   6.880   7.847
23141WAT      O69664   3.959   6.168   7.145
23141WAT     H169665   3.938   6.228   7.068
23141WAT     H269666   3.912   6.081   7.134
23142WAT      O69667   2.216   0.303   1.694
23142WAT     H169668   2.304   0.282   1.736
23142WAT     H269669   2.229   0.366   1.618
23143WAT      O69670   7.834   4.861   2.391
23143WAT     H169671   7.801   4.942   2.441
23143WAT     H269672   7.860   4.790   2.456
23144WAT      O69673   4.816   1.142   3.813
23144WAT     H169674   4.748   1.112   3.747
23144WAT     H269675   4.771   1.163   3.900
23145WAT      O69676   2.697   1.530   8.941
23145WAT     H169677   2.694   1.629   8.950
23145WAT     H269678   2.789   1.497   8.963
23146WAT      O69679   5.562   9.810   1.051
23146WAT     H169680   5.601   9.735   1.105
23146WAT     H269681   5.486   9.775   0.997
23147WAT      O69682   6.562   0.652   8.478
23147WAT     H169683   6.546   0.659   8.577
23147WAT     H269684   6.496   0.588   8.439
23148WAT      O69685   8.742   1.612   5.874
23148WAT     H169686   8.721   1.532   5.818
23148WAT     H269687   8.685   1.612   5.956
23149WAT      O69688   2.400   6.302   4.467
23149WAT     H169689   2.437   6.385   4.509
23149WAT     H269690   2.463   6.270   4.396
23150WAT      O69691   4.743   0.158   8.705
23150WAT     H169692   4.727   0.251   8.736
23150WAT     H269693   4.740   0.096   8.783
23151WAT      O69694   7.704   8.756   9.155
23151WAT     H169695   7.691   8.834   9.216
23151WAT     H269696   7.626   8.694   9.163
23152WAT      O69697   0.583   3.814   5.128
23152WAT     H169698   0.669   3.838   5.084
23152WAT     H269699   0.600   3.746   5.199
23153WAT      O69700   5.944   5.958   4.041
23153WAT     H169701   6.018   5.999   4.093
23153WAT     H269702   5.899   5.888   4.097
23154WAT      O69703   3.515   7.960   4.514
23154WAT     H169704   3.608   7.982   4.545
23154WAT     H269705   3.463   8.045   4.502
23155WAT      O69706   5.933   5.435   4.650
23155WAT     H169707   5.896   5.371   4.582
23155WAT     H269708   5.998   5.496   4.605
23156WAT      O69709   0.070   3.532   2.830
23156WAT     H169710   0.016   3.547   2.747
23156WAT     H269711   0.156   3.583   2.823
23157WAT      O69712   8.997   6.763   1.205
23157WAT     H169713   8.919   6.794   1.260
23157WAT     H269714   9.025   6.837   1.144
23158WAT      O69715   7.226   4.813   3.855
23158WAT     H169716   7.234   4.762   3.941
23158WAT     H269717   7.304   4.874   3.844
23159WAT      O69718   0.575   6.757   4.944
23159WAT     H169719   0.536   6.666   4.953
23159WAT     H269720   0.554   6.811   5.026
23160WAT      O69721   9.696   9.436   9.208
23160WAT     H169722   9.657   9.378   9.136
23160WAT     H269723   9.718   9.526   9.171
23161WAT      O69724   0.718   4.183   5.014
23161WAT     H169725   0.626   4.145   5.025
23161WAT     H269726   0.765   4.135   4.941
23162WAT      O69727   6.025   3.758   0.594
23162WAT     H169728   5.998   3.854   0.593
23162WAT     H269729   5.977   3.711   0.667
23163WAT      O69730   8.342   1.134   3.031
23163WAT     H169731   8.384   1.179   2.953
23163WAT     H269732   8.272   1.193   3.070
23164WAT      O69733   5.031   2.629   7.908
23164WAT     H169734   5.105   2.641   7.842
23164WAT     H269735   5.045   2.690   7.986
23165WAT      O69736   1.332   9.436   7.978
23165WAT     H169737   1.274   9.396   8.049
23165WAT     H269738   1.302   9.530   7.959
23166WAT      O69739   9.328   4.428   8.672
23166WAT     H169740   9.423   4.397   8.677
23166WAT     H269741   9.294   4.417   8.579
23167WAT      O69742   1.372   1.868   2.541
23167WAT     H169743   1.408   1.778   2.518
23167WAT     H269744   1.287   1.857   2.594
23168WAT      O69745   5.659   6.394   8.929
23168WAT     H169746   5.625   6.322   8.990
23168WAT     H269747   5.758   6.386   8.919
23169WAT      O69748   7.427   4.643   5.668
23169WAT     H169749   7.498   4.573   5.674
23169WAT     H269750   7.465   4.727   5.629
23170WAT      O69751   7.359   5.061   9.677
23170WAT     H169752   7.448   5.057   9.633
23170WAT     H269753   7.313   5.146   9.651
23171WAT      O69754   6.019   0.331   9.769
23171WAT     H169755   6.019   0.410   9.706
23171WAT     H269756   6.110   0.290   9.770
23172WAT      O69757   0.755   3.113   6.989
23172WAT     H169758   0.675   3.092   6.932
23172WAT     H269759   0.728   3.173   7.064
23173WAT      O69760   2.274   7.032   9.366
23173WAT     H169761   2.176   7.012   9.371
23173WAT     H269762   2.324   6.964   9.420
23174WAT      O69763   5.415   1.306   0.932
23174WAT     H169764   5.376   1.219   0.904
23174WAT     H269765   5.514   1.297   0.941
23175WAT      O69766   1.368   1.474   1.903
23175WAT     H169767   1.467   1.457   1.899
23175WAT     H269768   1.345   1.556   1.851
23176WAT      O69769   3.062   4.423   5.941
23176WAT     H169770   2.986   4.485   5.959
23176WAT     H269771   3.093   4.436   5.847
23177WAT      O69772   7.429   8.059   2.326
23177WAT     H169773   7.359   8.128   2.345
23177WAT     H269774   7.431   7.992   2.400
23178WAT      O69775   9.874   3.742   0.775
23178WAT     H169776   9.938   3.665   0.768
23178WAT     H269777   9.868   3.789   0.687
23179WAT      O69778   1.563   0.334   2.202
23179WAT     H169779   1.476   0.306   2.241
23179WAT     H269780   1.553   0.423   2.157
23180WAT      O69781   0.061   6.392   7.069
23180WAT     H169782   0.043   6.430   6.979
23180WAT     H269783   0.087   6.465   7.132
23181WAT      O69784   7.716   7.636   6.863
23181WAT     H169785   7.642   7.575   6.890
23181WAT     H269786   7.770   7.593   6.791
23182WAT      O69787   2.410   4.868   6.350
23182WAT     H169788   2.400   4.801   6.424
23182WAT     H269789   2.425   4.820   6.264
23183WAT      O69790   5.936   7.992   8.186
23183WAT     H169791   5.941   8.090   8.207
23183WAT     H269792   6.029   7.955   8.179
23184WAT      O69793   7.890   5.216   7.343
23184WAT     H169794   7.927   5.124   7.356
23184WAT     H269795   7.820   5.214   7.271
23185WAT      O69796   3.624   0.400   9.262
23185WAT     H169797   3.615   0.485   9.313
23185WAT     H269798   3.671   0.418   9.175
23186WAT      O69799   2.951   6.123   8.971
23186WAT     H169800   3.008   6.096   9.049
23186WAT     H269801   2.872   6.062   8.965
23187WAT      O69802   6.874   9.128   7.734
23187WAT     H169803   6.834   9.071   7.662
23187WAT     H269804   6.906   9.214   7.694
23188WAT      O69805   4.479   0.010   8.230
23188WAT     H169806   4.496   0.061   8.145
23188WAT     H269807   4.549   0.034   8.297
23189WAT      O69808   5.654   1.632   3.243
23189WAT     H169809   5.601   1.547   3.246
23189WAT     H269810   5.685   1.655   3.335
23190WAT      O69811   5.130   7.945   2.113
23190WAT     H169812   5.219   7.969   2.153
23190WAT     H269813   5.076   7.897   2.182
23191WAT      O69814   5.980   6.919   7.005
23191WAT     H169815   5.927   6.841   6.971
23191WAT     H269816   6.074   6.912   6.974
23192WAT      O69817   3.431   1.575   4.024
23192WAT     H169818   3.360   1.615   4.082
23192WAT     H269819   3.454   1.483   4.057
23193WAT      O69820   1.917   0.781   1.417
23193WAT     H169821   1.932   0.808   1.321
23193WAT     H269822   1.937   0.684   1.427
23194WAT      O69823   5.315   4.186   0.614
23194WAT     H169824   5.298   4.192   0.713
23194WAT     H269825   5.318   4.090   0.587
23195WAT      O69826   7.140   2.906   6.669
23195WAT     H169827   7.087   2.869   6.745
23195WAT     H269828   7.137   3.006   6.672
23196WAT      O69829   8.280   5.328   1.807
23196WAT     H169830   8.330   5.413   1.819
23196WAT     H269831   8.259   5.289   1.897
23197WAT      O69832   2.030   4.617   7.265
23197WAT     H169833   2.060   4.690   7.203
23197WAT     H269834   1.934   4.630   7.288
23198WAT      O69835   5.080   7.700   2.525
23198WAT     H169836   5.004   7.641   2.553
23198WAT     H269837   5.124   7.662   2.444
23199WAT      O69838   6.633   0.624   3.761
23199WAT     H169839   6.695   0.702   3.753
23199WAT     H269840   6.539   0.656   3.767
23200WAT      O69841   8.667   3.235   6.761
23200WAT     H169842   8.697   3.193   6.847
23200WAT     H269843   8.591   3.181   6.723
23201WAT      O69844   4.888   1.691   1.067
23201WAT     H169845   4.810   1.653   1.018
23201WAT     H269846   4.973   1.660   1.024
23202WAT      O69847   5.347   7.863   0.007
23202WAT     H169848   5.354   7.837   0.103
23202WAT     H269849   5.250   7.867  -0.020
23203WAT      O69850   7.700   2.763   4.183
23203WAT     H169851   7.790   2.806   4.181
23203WAT     H269852   7.677   2.737   4.277
23204WAT      O69853   7.558   5.932   4.699
23204WAT     H169854   7.523   6.005   4.640
23204WAT     H269855   7.495   5.918   4.776
23205WAT      O69856   2.111   6.967   4.683
23205WAT     H169857   2.084   6.881   4.639
23205WAT     H269858   2.030   7.010   4.723
23206WAT      O69859   1.032   8.843   8.208
23206WAT     H169860   0.985   8.763   8.243
23206WAT     H269861   1.092   8.816   8.132
23207WAT      O69862   3.044   7.581   4.384
23207WAT     H169863   3.097   7.663   4.405
23207WAT     H269864   2.952   7.589   4.421
23208WAT      O69865   6.412   8.670   5.606
23208WAT     H169866   6.378   8.576   5.603
23208WAT     H269867   6.409   8.709   5.514
23209WAT      O69868   8.451   7.599   4.153
23209WAT     H169869   8.396   7.680   4.174
23209WAT     H269870   8.547   7.625   4.144
23210WAT      O69871   9.454   3.585   3.098
23210WAT     H169872   9.445   3.537   3.010
23210WAT     H269873   9.540   3.636   3.098
23211WAT      O69874   7.590   1.462   2.294
23211WAT     H169875   7.588   1.539   2.229
23211WAT     H269876   7.500   1.419   2.296
23212WAT      O69877   0.929   8.259   8.237
23212WAT     H169878   0.890   8.324   8.172
23212WAT     H269879   0.876   8.261   8.322
23213WAT      O69880   2.310   3.227   2.655
23213WAT     H169881   2.348   3.288   2.724
23213WAT     H269882   2.346   3.251   2.565
23214WAT      O69883   4.500   2.252   2.191
23214WAT     H169884   4.483   2.153   2.187
23214WAT     H269885   4.530   2.285   2.102
23215WAT      O69886   2.930   3.767   9.204
23215WAT     H169887   2.905   3.854   9.247
23215WAT     H269888   2.848   3.722   9.169
23216WAT      O69889   9.767   8.527   3.546
23216WAT     H169890   9.684   8.535   3.602
23216WAT     H269891   9.847   8.526   3.606
23217WAT      O69892   1.965   6.496   7.561
23217WAT     H169893   1.995   6.531   7.472
23217WAT     H269894   1.890   6.431   7.547
23218WAT      O69895   0.735   8.256   7.658
23218WAT     H169896   0.816   8.213   7.620
23218WAT     H269897   0.741   8.356   7.648
23219WAT      O69898   4.183   0.983   5.194
23219WAT     H169899   4.222   1.075   5.187
23219WAT     H269900   4.113   0.981   5.266
23220WAT      O69901   2.054   4.170   0.876
23220WAT     H169902   2.033   4.072   0.872
23220WAT     H269903   2.021   4.207   0.963
23221WAT      O69904   6.032   8.185   8.826
23221WAT     H169905   6.041   8.085   8.826
23221WAT     H269906   5.943   8.210   8.788
23222WAT      O69907   9.870   0.847   5.541
23222WAT     H169908   9.797   0.901   5.499
23222WAT     H269909   9.831   0.788   5.611
23223WAT      O69910   3.662   4.407   0.399
23223WAT     H169911   3.624   4.500   0.401
23223WAT     H269912   3.702   4.390   0.309
23224WAT      O69913   4.579   9.564   7.999
23224WAT     H169914   4.619   9.568   7.907
23224WAT     H269915   4.649   9.539   8.065
23225WAT      O69916   0.389   3.399   7.469
23225WAT     H169917   0.398   3.379   7.371
23225WAT     H269918   0.465   3.457   7.498
23226WAT      O69919   3.208   5.845   5.550
23226WAT     H169920   3.265   5.784   5.605
23226WAT     H269921   3.248   5.854   5.459
23227WAT      O69922   9.215   0.310   7.223
23227WAT     H169923   9.202   0.231   7.283
23227WAT     H269924   9.213   0.280   7.128
23228WAT      O69925   9.459   8.804   1.027
23228WAT     H169926   9.471   8.832   1.123
23228WAT     H269927   9.467   8.884   0.968
23229WAT      O69928   7.376   1.257   7.428
23229WAT     H169929   7.469   1.289   7.446
23229WAT     H269930   7.324   1.329   7.383
23230WAT      O69931   9.801   2.863   1.661
23230WAT     H169932   9.806   2.956   1.624
23230WAT     H269933   9.706   2.833   1.661
23231WAT      O69934   3.970   8.966   3.597
23231WAT     H169935   3.917   8.909   3.660
23231WAT     H269936   3.935   9.059   3.599
23232WAT      O69937   8.134   2.660   4.427
23232WAT     H169938   8.123   2.626   4.520
23232WAT     H269939   8.231   2.669   4.405
23233WAT      O69940   9.149   0.686   8.114
23233WAT     H169941   9.166   0.763   8.176
23233WAT     H269942   9.236   0.643   8.090
23234WAT      O69943   1.973   9.641   9.515
23234WAT     H169944   2.068   9.624   9.537
23234WAT     H269945   1.925   9.554   9.504
23235WAT      O69946   9.703   1.318   0.326
23235WAT     H169947   9.623   1.301   0.269
23235WAT     H269948   9.779   1.261   0.294
23236WAT      O69949   6.031   1.366   7.566
23236WAT     H169950   6.001   1.403   7.478
23236WAT     H269951   6.009   1.269   7.570
23237WAT      O69952   6.313   6.205   7.767
23237WAT     H169953   6.255   6.146   7.823
23237WAT     H269954   6.258   6.280   7.731
23238WAT      O69955   3.765   8.199   9.299
23238WAT     H169956   3.687   8.137   9.300
23238WAT     H269957   3.846   8.152   9.332
23239WAT      O69958   1.079   5.291   0.371
23239WAT     H169959   1.173   5.323   0.365
23239WAT     H269960   1.044   5.271   0.280
23240WAT      O69961   9.702   7.134   6.174
23240WAT     H169962   9.765   7.059   6.198
23240WAT     H269963   9.696   7.142   6.075
23241WAT      O69964   0.562   1.332   3.010
23241WAT     H169965   0.474   1.315   2.965
23241WAT     H269966   0.637   1.303   2.950
23242WAT      O69967   3.144   8.091   6.362
23242WAT     H169968   3.173   7.996   6.352
23242WAT     H269969   3.094   8.120   6.280
23243WAT      O69970   6.291   1.512   0.200
23243WAT     H169971   6.308   1.431   0.257
23243WAT     H269972   6.213   1.563   0.236
23244WAT      O69973   7.766   9.103   2.952
23244WAT     H169974   7.749   9.201   2.936
23244WAT     H269975   7.681   9.052   2.943
23245WAT      O69976   2.676   7.717   4.730
23245WAT     H169977   2.701   7.814   4.736
23245WAT     H269978   2.729   7.665   4.797
23246WAT      O69979   1.477   4.562   4.673
23246WAT     H169980   1.505   4.474   4.709
23246WAT     H269981   1.496   4.634   4.740
23247WAT      O69982   7.599   0.001   3.641
23247WAT     H169983   7.567   0.092   3.664
23247WAT     H269984   7.573  -0.063   3.712
23248WAT      O69985   2.424   4.206   9.625
23248WAT     H169986   2.452   4.214   9.529
23248WAT     H269987   2.362   4.282   9.647
23249WAT      O69988   4.128   2.097   7.833
23249WAT     H169989   4.197   2.050   7.888
23249WAT     H269990   4.037   2.079   7.871
23250WAT      O69991   6.745   7.159   0.244
23250WAT     H169992   6.829   7.201   0.212
23250WAT     H269993   6.760   7.062   0.261
23251WAT      O69994   6.497   0.028   0.916
23251WAT     H169995   6.410  -0.006   0.881
23251WAT     H269996   6.567  -0.042   0.906
23252WAT      O69997   0.756   6.742   8.877
23252WAT     H169998   0.715   6.761   8.965
23252WAT     H269999   0.722   6.807   8.809
23253WAT      O70000   9.737   5.737   5.782
23253WAT     H170001   9.734   5.781   5.872
23253WAT     H270002   9.661   5.673   5.773
23254WAT      O70003   9.795   3.101   1.560
23254WAT     H170004   9.857   3.176   1.536
23254WAT     H270005   9.706   3.116   1.516
23255WAT      O70006   8.889   0.780   1.203
23255WAT     H170007   8.905   0.875   1.230
23255WAT     H270008   8.803   0.774   1.152
23256WAT      O70009   1.508   8.976   7.210
23256WAT     H170010   1.527   9.073   7.196
23256WAT     H270011   1.591   8.923   7.196
23257WAT      O70012   5.024   8.568   4.196
23257WAT     H170013   4.969   8.630   4.141
23257WAT     H270014   4.993   8.572   4.291
23258WAT      O70015   3.173   8.418   6.892
23258WAT     H170016   3.107   8.356   6.850
23258WAT     H270017   3.125   8.490   6.942
23259WAT      O70018   4.329   4.465   1.272
23259WAT     H170019   4.345   4.556   1.233
23259WAT     H270020   4.241   4.465   1.320
23260WAT      O70021   1.429   5.297   6.788
23260WAT     H170022   1.487   5.376   6.809
23260WAT     H270023   1.447   5.267   6.694
23261WAT      O70024   9.700   0.413   6.235
23261WAT     H170025   9.688   0.411   6.136
23261WAT     H270026   9.747   0.329   6.264
23262WAT      O70027   8.034   9.091   6.751
23262WAT     H170028   7.984   9.178   6.750
23262WAT     H270029   8.121   9.103   6.703
23263WAT      O70030   4.102   9.059   5.266
23263WAT     H170031   4.169   9.114   5.316
23263WAT     H270032   4.010   9.083   5.297
23264WAT      O70033   2.278   4.782   3.968
23264WAT     H170034   2.273   4.881   3.954
23264WAT     H270035   2.355   4.745   3.915
23265WAT      O70036   5.999   6.106   3.063
23265WAT     H170037   5.900   6.107   3.051
23265WAT     H270038   6.035   6.016   3.036
23266WAT      O70039   6.953   5.999   8.035
23266WAT     H170040   6.886   6.051   8.089
23266WAT     H270041   7.035   6.054   8.023
23267WAT      O70042   1.730   5.811   2.486
23267WAT     H170043   1.656   5.875   2.464
23267WAT     H270044   1.703   5.719   2.459
23268WAT      O70045   8.034   5.153   4.491
23268WAT     H170046   8.063   5.209   4.569
23268WAT     H270047   7.982   5.211   4.427
23269WAT      O70048   3.387   7.062   5.864
23269WAT     H170049   3.484   7.082   5.861
23269WAT     H270050   3.369   6.976   5.816
23270WAT      O70051   4.549   4.298   8.155
23270WAT     H170052   4.642   4.331   8.168
23270WAT     H270053   4.486   4.376   8.152
23271WAT      O70054   3.010   2.622   9.637
23271WAT     H170055   2.927   2.593   9.589
23271WAT     H270056   3.038   2.711   9.603
23272WAT      O70057   6.451   8.980   9.222
23272WAT     H170058   6.403   8.892   9.233
23272WAT     H270059   6.516   8.992   9.297
23273WAT      O70060   7.581   7.527   2.965
23273WAT     H170061   7.515   7.469   2.917
23273WAT     H270062   7.534   7.608   2.999
23274WAT      O70063   8.496   7.508   0.155
23274WAT     H170064   8.563   7.576   0.186
23274WAT     H270065   8.477   7.444   0.229
23275WAT      O70066   5.791   0.750   7.663
23275WAT     H170067   5.809   0.769   7.759
23275WAT     H270068   5.801   0.835   7.610
23276WAT      O70069   5.009   4.021   3.808
23276WAT     H170070   5.064   4.033   3.890
23276WAT     H270071   5.059   3.966   3.741
23277WAT      O70072   7.794   6.369   8.194
23277WAT     H170073   7.775   6.342   8.099
23277WAT     H270074   7.858   6.445   8.195
23278WAT      O70075   5.627   6.225   0.724
23278WAT     H170076   5.676   6.305   0.692
23278WAT     H270077   5.652   6.206   0.819
23279WAT      O70078   4.712   0.574   0.837
23279WAT     H170079   4.668   0.641   0.898
23279WAT     H270080   4.753   0.622   0.760
23280WAT      O70081   8.537   3.205   3.527
23280WAT     H170082   8.635   3.195   3.511
23280WAT     H270083   8.496   3.256   3.452
23281WAT      O70084   3.365   8.435   2.757
23281WAT     H170085   3.426   8.457   2.832
23281WAT     H270086   3.345   8.518   2.705
23282WAT      O70087   8.191   6.902   8.098
23282WAT     H170088   8.132   6.908   8.178
23282WAT     H270089   8.158   6.829   8.038
23283WAT      O70090   7.290   4.215   6.260
23283WAT     H170091   7.291   4.168   6.348
23283WAT     H270092   7.374   4.191   6.209
23284WAT      O70093   1.512   6.803   5.952
23284WAT     H170094   1.442   6.858   5.998
23284WAT     H270095   1.516   6.712   5.995
23285WAT      O70096   8.575   9.674   7.454
23285WAT     H170097   8.647   9.705   7.515
23285WAT     H270098   8.522   9.602   7.500
23286WAT      O70099   7.031   8.109   9.247
23286WAT     H170100   6.966   8.084   9.319
23286WAT     H270101   7.093   8.032   9.230
23287WAT      O70102   0.983   3.776   9.369
23287WAT     H170103   0.900   3.828   9.349
23287WAT     H270104   1.059   3.812   9.313
23288WAT      O70105   0.226   0.179   2.285
23288WAT     H170106   0.239   0.125   2.369
23288WAT     H270107   0.315   0.203   2.246
23289WAT      O70108   3.875   7.522   6.811
23289WAT     H170109   3.907   7.463   6.885
23289WAT     H270110   3.838   7.466   6.737
23290WAT      O70111   5.796   2.976   6.765
23290WAT     H170112   5.837   3.066   6.751
23290WAT     H270113   5.800   2.924   6.681
23291WAT      O70114   9.586   6.091   0.600
23291WAT     H170115   9.535   6.175   0.580
23291WAT     H270116   9.636   6.063   0.518
23292WAT      O70117   3.295   2.676   4.932
23292WAT     H170118   3.362   2.619   4.884
23292WAT     H270119   3.203   2.652   4.901
23293WAT      O70120   1.259   4.496   0.884
23293WAT     H170121   1.357   4.475   0.886
23293WAT     H270122   1.213   4.450   0.960
23294WAT      O70123   2.054   0.815   1.178
23294WAT     H170124   2.096   0.736   1.224
23294WAT     H270125   2.126   0.879   1.150
23295WAT      O70126   1.366   4.354   5.825
23295WAT     H170127   1.376   4.254   5.818
23295WAT     H270128   1.286   4.376   5.880
23296WAT      O70129   5.141   4.993   2.575
23296WAT     H170130   5.093   4.938   2.507
23296WAT     H270131   5.127   4.953   2.666
23297WAT      O70132   3.330   8.654   9.278
23297WAT     H170133   3.328   8.724   9.206
23297WAT     H270134   3.240   8.613   9.288
23298WAT      O70135   6.540   2.625   9.329
23298WAT     H170136   6.521   2.648   9.233
23298WAT     H270137   6.627   2.576   9.334
23299WAT      O70138   0.258   9.412   5.657
23299WAT     H170139   0.206   9.331   5.685
23299WAT     H270140   0.205   9.494   5.680
23300WAT      O70141   4.627   8.863   5.351
23300WAT     H170142   4.584   8.911   5.428
23300WAT     H270143   4.709   8.912   5.323
23301WAT      O70144   4.909   4.130   8.077
23301WAT     H170145   4.954   4.088   8.157
23301WAT     H270146   4.944   4.088   7.994
23302WAT      O70147   7.330   4.546   0.186
23302WAT     H170148   7.249   4.497   0.155
23302WAT     H270149   7.329   4.639   0.149
23303WAT      O70150   9.312   3.952   5.806
23303WAT     H170151   9.381   3.896   5.851
23303WAT     H270152   9.353   4.039   5.778
23304WAT      O70153   7.596   0.558   1.812
23304WAT     H170154   7.686   0.521   1.833
23304WAT     H270155   7.527   0.487   1.822
23305WAT      O70156   1.448   3.510   8.400
23305WAT     H170157   1.387   3.501   8.479
23305WAT     H270158   1.527   3.450   8.412
23306WAT      O70159   7.949   4.013   8.079
23306WAT     H170160   8.034   4.057   8.049
23306WAT     H270161   7.945   3.920   8.042
23307WAT      O70162   1.400   7.827   2.134
23307WAT     H170163   1.473   7.770   2.172
23307WAT     H270164   1.323   7.830   2.197
23308WAT      O70165   0.370   7.811   1.217
23308WAT     H170166   0.408   7.808   1.310
23308WAT     H270167   0.307   7.734   1.204
23309WAT      O70168   5.605   7.344   5.816
23309WAT     H170169   5.558   7.375   5.732
23309WAT     H270170   5.620   7.246   5.812
23310WAT      O70171   9.567   1.080   0.664
23310WAT     H170172   9.616   0.994   0.681
23310WAT     H270173   9.633   1.154   0.649
23311WAT      O70174   9.599   2.694   8.807
23311WAT     H170175   9.499   2.697   8.812
23311WAT     H270176   9.635   2.645   8.886
23312WAT      O70177   0.254   9.136   1.714
23312WAT     H170178   0.290   9.112   1.804
23312WAT     H270179   0.281   9.230   1.692
23313WAT      O70180   7.247   6.548   8.637
23313WAT     H170181   7.217   6.454   8.621
23313WAT     H270182   7.223   6.575   8.730
23314WAT      O70183   6.082   2.067   8.608
23314WAT     H170184   6.085   2.025   8.517
23314WAT     H270185   6.000   2.123   8.615
23315WAT      O70186   3.720   2.939   8.550
23315WAT     H170187   3.745   2.843   8.538
23315WAT     H270188   3.711   2.960   8.647
23316WAT      O70189   3.796   6.503   6.702
23316WAT     H170190   3.715   6.521   6.757
23316WAT     H270191   3.870   6.470   6.761
23317WAT      O70192   5.678   5.838   3.191
23317WAT     H170193   5.719   5.796   3.110
23317WAT     H270194   5.677   5.772   3.266
23318WAT      O70195   3.945   6.029   1.392
23318WAT     H170196   3.959   5.935   1.422
23318WAT     H270197   3.857   6.036   1.344
23319WAT      O70198   1.656   6.793   2.689
23319WAT     H170199   1.650   6.695   2.707
23319WAT     H270200   1.693   6.808   2.597
23320WAT      O70201   7.998   5.256   9.740
23320WAT     H170202   8.071   5.323   9.752
23320WAT     H270203   7.997   5.223   9.645
23321WAT      O70204   9.727   9.343   3.857
23321WAT     H170205   9.818   9.333   3.817
23321WAT     H270206   9.736   9.357   3.956
23322WAT      O70207   1.814   8.668   0.165
23322WAT     H170208   1.803   8.607   0.087
23322WAT     H270209   1.872   8.624   0.234
23323WAT      O70210   4.066   8.528   5.109
23323WAT     H170211   4.068   8.627   5.118
23323WAT     H270212   4.112   8.486   5.187
23324WAT      O70213   3.230   5.622   7.636
23324WAT     H170214   3.234   5.703   7.694
23324WAT     H270215   3.322   5.584   7.623
23325WAT      O70216   6.228   2.594   7.080
23325WAT     H170217   6.254   2.593   6.983
23325WAT     H270218   6.206   2.687   7.107
23326WAT      O70219   7.918   0.844   8.102
23326WAT     H170220   7.854   0.909   8.062
23326WAT     H270221   7.867   0.772   8.148
23327WAT      O70222   7.042   3.293   9.370
23327WAT     H170223   7.125   3.262   9.324
23327WAT     H270224   7.014   3.226   9.439
23328WAT      O70225   7.606   9.207   9.025
23328WAT     H170226   7.701   9.182   9.042
23328WAT     H270227   7.591   9.303   9.050
23329WAT      O70228   4.884   5.253   5.093
23329WAT     H170229   4.792   5.255   5.052
23329WAT     H270230   4.937   5.331   5.061
23330WAT      O70231   5.384   4.625   8.274
23330WAT     H170232   5.413   4.690   8.344
23330WAT     H270233   5.374   4.534   8.315
23331WAT      O70234   3.032   3.409   1.251
23331WAT     H170235   2.989   3.498   1.268
23331WAT     H270236   3.067   3.406   1.158
23332WAT      O70237   3.786   9.198   6.059
23332WAT     H170238   3.883   9.183   6.078
23332WAT     H270239   3.732   9.175   6.140
23333WAT      O70240   8.681   9.770   7.790
23333WAT     H170241   8.748   9.763   7.716
23333WAT     H270242   8.728   9.761   7.878
23334WAT      O70243   7.420   4.519   8.955
23334WAT     H170244   7.519   4.525   8.943
23334WAT     H270245   7.395   4.424   8.973
23335WAT      O70246   5.676   2.046   5.652
23335WAT     H170247   5.668   1.993   5.737
23335WAT     H270248   5.760   2.020   5.605
23336WAT      O70249   5.442   9.397   7.551
23336WAT     H170250   5.533   9.402   7.591
23336WAT     H270251   5.435   9.462   7.475
23337WAT      O70252   6.479   4.380   7.133
23337WAT     H170253   6.380   4.388   7.128
23337WAT     H270254   6.519   4.468   7.160
23338WAT      O70255   0.024   1.260   3.626
23338WAT     H170256  -0.037   1.322   3.673
23338WAT     H270257   0.117   1.270   3.661
23339WAT      O70258   6.262   4.328   5.049
23339WAT     H170259   6.314   4.409   5.023
23339WAT     H270260   6.172   4.356   5.083
23340WAT      O70261   5.930   2.741   8.220
23340WAT     H170262   5.961   2.831   8.190
23340WAT     H270263   5.851   2.713   8.167
23341WAT      O70264   9.492   4.255   3.585
23341WAT     H170265   9.575   4.223   3.539
23341WAT     H270266   9.462   4.340   3.543
23342WAT      O70267   1.901   5.398   0.351
23342WAT     H170268   1.997   5.403   0.378
23342WAT     H270269   1.894   5.356   0.260
23343WAT      O70270   9.098   3.667   9.189
23343WAT     H170271   9.163   3.710   9.126
23343WAT     H270272   9.072   3.577   9.153
23344WAT      O70273   5.824   4.263   8.617
23344WAT     H170274   5.755   4.314   8.564
23344WAT     H270275   5.906   4.251   8.561
23345WAT      O70276   1.494   2.145   1.189
23345WAT     H170277   1.473   2.208   1.264
23345WAT     H270278   1.551   2.070   1.224
23346WAT      O70279   9.308   7.759   5.002
23346WAT     H170280   9.300   7.661   4.982
23346WAT     H270281   9.258   7.781   5.086
23347WAT      O70282   2.193   9.221   7.383
23347WAT     H170283   2.096   9.202   7.397
23347WAT     H270284   2.204   9.284   7.306
23348WAT      O70285   4.084   4.430   0.462
23348WAT     H170286   4.079   4.381   0.375
23348WAT     H270287   4.000   4.483   0.475
23349WAT      O70288   8.207   9.603   9.490
23349WAT     H170289   8.228   9.505   9.493
23349WAT     H270290   8.174   9.632   9.580
23350WAT      O70291   3.073   1.793   6.559
23350WAT     H170292   2.982   1.793   6.599
23350WAT     H270293   3.137   1.745   6.619
23351WAT      O70294   5.119   8.907   4.918
23351WAT     H170295   5.150   8.842   4.988
23351WAT     H270296   5.196   8.963   4.888
23352WAT      O70297   3.747   0.919   5.829
23352WAT     H170298   3.662   0.971   5.815
23352WAT     H270299   3.819   0.981   5.861
23353WAT      O70300   6.259   9.352   6.074
23353WAT     H170301   6.311   9.271   6.102
23353WAT     H270302   6.247   9.351   5.975
23354WAT      O70303   4.670   2.466   2.687
23354WAT     H170304   4.753   2.495   2.640
23354WAT     H270305   4.628   2.544   2.733
23355WAT      O70306   8.425   0.816   0.657
23355WAT     H170307   8.367   0.764   0.594
23355WAT     H270308   8.499   0.758   0.689
23356WAT      O70309   8.167   5.406   1.202
23356WAT     H170310   8.133   5.313   1.212
23356WAT     H270311   8.155   5.436   1.107
23357WAT      O70312   0.904   6.959   4.261
23357WAT     H170313   0.981   7.022   4.255
23357WAT     H270314   0.904   6.914   4.350
23358WAT      O70315   2.309   1.795   3.243
23358WAT     H170316   2.371   1.718   3.261
23358WAT     H270317   2.338   1.874   3.298
23359WAT      O70318   1.648   0.832   6.870
23359WAT     H170319   1.695   0.781   6.798
23359WAT     H270320   1.695   0.919   6.886
23360WAT      O70321   2.004   7.658   1.986
23360WAT     H170322   2.018   7.757   1.985
23360WAT     H270323   2.011   7.624   2.080
23361WAT      O70324   9.413   7.523   6.118
23361WAT     H170325   9.352   7.582   6.066
23361WAT     H270326   9.508   7.547   6.097
23362WAT      O70327   7.103   5.078   8.612
23362WAT     H170328   7.094   4.983   8.641
23362WAT     H270329   7.153   5.083   8.526
23363WAT      O70330   4.149   7.602   9.024
23363WAT     H170331   4.077   7.537   9.000
23363WAT     H270332   4.221   7.555   9.074
23364WAT      O70333   5.176   1.088   6.545
23364WAT     H170334   5.169   1.180   6.508
23364WAT     H270335   5.268   1.052   6.529
23365WAT      O70336   5.637   2.808   1.961
23365WAT     H170337   5.599   2.717   1.979
23365WAT     H270338   5.706   2.829   2.031
23366WAT      O70339   4.597   7.126   6.743
23366WAT     H170340   4.695   7.116   6.723
23366WAT     H270341   4.556   7.036   6.758
23367WAT      O70342   4.822   7.714   7.175
23367WAT     H170343   4.739   7.685   7.222
23367WAT     H270344   4.802   7.791   7.115
23368WAT      O70345   3.079   7.586   3.639
23368WAT     H170346   2.981   7.584   3.657
23368WAT     H270347   3.098   7.542   3.551
23369WAT      O70348   3.625   2.656   2.989
23369WAT     H170349   3.552   2.664   3.057
23369WAT     H270350   3.704   2.611   3.030
23370WAT      O70351   9.742   6.466   2.438
23370WAT     H170352   9.681   6.517   2.499
23370WAT     H270353   9.705   6.467   2.345
23371WAT      O70354   5.473   2.466   2.278
23371WAT     H170355   5.401   2.456   2.346
23371WAT     H270356   5.514   2.377   2.260
23372WAT      O70357   9.862   3.958   4.953
23372WAT     H170358   9.852   4.014   4.870
23372WAT     H270359   9.788   3.977   5.016
23373WAT      O70360   2.456   0.721   3.968
23373WAT     H170361   2.378   0.775   3.937
23373WAT     H270362   2.536   0.780   3.976
23374WAT      O70363   7.354   4.786   9.879
23374WAT     H170364   7.310   4.821   9.796
23374WAT     H270365   7.450   4.814   9.881
23375WAT      O70366   8.181   5.876   7.293
23375WAT     H170367   8.239   5.923   7.359
23375WAT     H270368   8.206   5.905   7.201
23376WAT      O70369   6.901   6.578   8.794
23376WAT     H170370   6.909   6.624   8.706
23376WAT     H270371   6.829   6.508   8.789
23377WAT      O70372   9.613   1.837   4.598
23377WAT     H170373   9.596   1.794   4.687
23377WAT     H270374   9.537   1.900   4.577
23378WAT      O70375   5.966   7.580   5.496
23378WAT     H170376   5.932   7.504   5.441
23378WAT     H270377   5.944   7.563   5.592
23379WAT      O70378   6.708   6.811   1.610
23379WAT     H170379   6.771   6.759   1.552
23379WAT     H270380   6.615   6.780   1.594
23380WAT      O70381   5.350  -0.001   4.108
23380WAT     H170382   5.285   0.063   4.148
23380WAT     H270383   5.422   0.050   4.060
23381WAT      O70384   4.815   1.819   2.367
23381WAT     H170385   4.909   1.831   2.398
23381WAT     H270386   4.813   1.813   2.267
23382WAT      O70387   2.422   6.080   2.390
23382WAT     H170388   2.362   6.079   2.469
23382WAT     H270389   2.413   5.994   2.340
23383WAT      O70390   2.769   6.083   1.965
23383WAT     H170391   2.753   6.036   1.878
23383WAT     H270392   2.856   6.052   2.003
23384WAT      O70393   9.469   5.902   2.166
23384WAT     H170394   9.423   5.814   2.170
23384WAT     H270395   9.530   5.905   2.087
23385WAT      O70396   0.440   8.992   4.285
23385WAT     H170397   0.478   9.044   4.208
23385WAT     H270398   0.341   9.006   4.288
23386WAT      O70399   4.456   3.880   0.969
23386WAT     H170400   4.376   3.820   0.964
23386WAT     H270401   4.427   3.971   1.000
23387WAT      O70402   7.549   7.294   3.443
23387WAT     H170403   7.579   7.376   3.395
23387WAT     H270404   7.452   7.277   3.422
23388WAT      O70405   3.954   9.752   2.367
23388WAT     H170406   4.039   9.708   2.338
23388WAT     H270407   3.897   9.771   2.286
23389WAT      O70408   6.694   9.477   5.699
23389WAT     H170409   6.754   9.515   5.769
23389WAT     H270410   6.748   9.426   5.632
23390WAT      O70411   8.676   3.827   1.180
23390WAT     H170412   8.744   3.754   1.173
23390WAT     H270413   8.627   3.834   1.094
23391WAT      O70414   9.398   9.321   7.059
23391WAT     H170415   9.470   9.311   7.128
23391WAT     H270416   9.417   9.260   6.982
23392WAT      O70417   8.613   6.513   2.025
23392WAT     H170418   8.689   6.470   1.977
23392WAT     H270419   8.581   6.452   2.099
23393WAT      O70420   5.148   7.507   4.760
23393WAT     H170421   5.056   7.511   4.719
23393WAT     H270422   5.189   7.418   4.739
23394WAT      O70423   9.473   7.558   2.006
23394WAT     H170424   9.449   7.639   2.059
23394WAT     H270425   9.522   7.493   2.064
23395WAT      O70426   7.440   8.890   8.470
23395WAT     H170427   7.363   8.919   8.527
23395WAT     H270428   7.453   8.791   8.480
23396WAT      O70429   5.346   1.999   5.887
23396WAT     H170430   5.269   1.947   5.926
23396WAT     H270431   5.376   1.955   5.802
23397WAT      O70432   7.869   3.152   7.708
23397WAT     H170433   7.945   3.204   7.748
23397WAT     H270434   7.818   3.210   7.645
23398WAT      O70435   2.629   6.414   1.740
23398WAT     H170436   2.547   6.410   1.682
23398WAT     H270437   2.639   6.507   1.776
23399WAT      O70438   8.006   5.190   9.466
23399WAT     H170439   8.028   5.093   9.451
23399WAT     H270440   7.945   5.221   9.393
23400WAT      O70441   0.508   3.219   3.238
23400WAT     H170442   0.422   3.202   3.190
23400WAT     H270443   0.584   3.201   3.177
23401WAT      O70444   9.105   4.697   5.063
23401WAT     H170445   9.192   4.702   5.014
23401WAT     H270446   9.056   4.615   5.034
23402WAT      O70447   2.097   6.836   5.591
23402WAT     H170448   2.166   6.796   5.650
23402WAT     H270449   2.090   6.934   5.610
23403WAT      O70450   1.687   8.236   2.006
23403WAT     H170451   1.786   8.233   1.991
23403WAT     H270452   1.641   8.252   1.918
23404WAT      O70453   9.545   7.999   1.505
23404WAT     H170454   9.572   7.913   1.460
23404WAT     H270455   9.467   8.039   1.456
23405WAT      O70456   0.345   5.354   9.280
23405WAT     H170457   0.430   5.365   9.228
23405WAT     H270458   0.295   5.275   9.246
23406WAT      O70459   5.559   3.080   8.476
23406WAT     H170460   5.596   3.146   8.411
23406WAT     H270461   5.485   3.028   8.433
23407WAT      O70462   0.215   4.633   1.774
23407WAT     H170463   0.135   4.687   1.746
23407WAT     H270464   0.298   4.679   1.742
23408WAT      O70465   1.349   5.373   4.843
23408WAT     H170466   1.288   5.298   4.868
23408WAT     H270467   1.442   5.338   4.832
23409WAT      O70468   1.430   6.365   0.214
23409WAT     H170469   1.516   6.395   0.174
23409WAT     H270470   1.446   6.339   0.310
23410WAT      O70471   7.762   4.526   5.667
23410WAT     H170472   7.801   4.494   5.580
23410WAT     H270473   7.674   4.482   5.681
23411WAT      O70474   5.364   7.461   6.940
23411WAT     H170475   5.303   7.400   6.990
23411WAT     H270476   5.316   7.546   6.919
23412WAT      O70477   2.298   2.329   6.560
23412WAT     H170478   2.318   2.231   6.557
23412WAT     H270479   2.367   2.379   6.508
23413WAT      O70480   0.270   4.323   4.103
23413WAT     H170481   0.289   4.226   4.088
23413WAT     H270482   0.245   4.366   4.016
23414WAT      O70483   6.155   1.634   5.930
23414WAT     H170484   6.162   1.647   5.831
23414WAT     H270485   6.239   1.664   5.974
23415WAT      O70486   8.810   8.767   1.401
23415WAT     H170487   8.860   8.784   1.316
23415WAT     H270488   8.869   8.787   1.479
23416WAT      O70489   3.909   7.296   0.397
23416WAT     H170490   3.849   7.249   0.461
23416WAT     H270491   3.963   7.228   0.346
23417WAT      O70492   1.319   2.911   0.194
23417WAT     H170493   1.303   2.986   0.258
23417WAT     H270494   1.384   2.847   0.234
23418WAT      O70495   5.839   7.001   8.009
23418WAT     H170496   5.879   7.076   7.956
23418WAT     H270497   5.885   6.915   7.985
23419WAT      O70498   6.311   8.422   8.505
23419WAT     H170499   6.266   8.333   8.517
23419WAT     H270500   6.393   8.409   8.450
23420WAT      O70501   2.149   9.145   2.878
23420WAT     H170502   2.115   9.056   2.846
23420WAT     H270503   2.109   9.166   2.967
23421WAT      O70504   1.990   9.333   5.877
23421WAT     H170505   1.935   9.264   5.830
23421WAT     H270506   2.087   9.308   5.873
23422WAT      O70507   5.764   5.390   1.444
23422WAT     H170508   5.815   5.386   1.357
23422WAT     H270509   5.827   5.416   1.517
23423WAT      O70510   1.401   3.551   9.210
23423WAT     H170511   1.375   3.589   9.122
23423WAT     H270512   1.477   3.604   9.248
23424WAT      O70513   5.208   0.862   4.655
23424WAT     H170514   5.218   0.766   4.627
23424WAT     H270515   5.116   0.894   4.632
23425WAT      O70516   8.535   2.700   5.268
23425WAT     H170517   8.634   2.712   5.278
23425WAT     H270518   8.489   2.742   5.346
23426WAT      O70519   6.237   4.114   4.455
23426WAT     H170520   6.176   4.181   4.498
23426WAT     H270521   6.284   4.156   4.378
23427WAT      O70522   4.030   7.139   2.963
23427WAT     H170523   4.057   7.208   2.896
23427WAT     H270524   3.945   7.095   2.933
23428WAT      O70525   3.459   3.422   2.577
23428WAT     H170526   3.503   3.378   2.498
23428WAT     H270527   3.365   3.446   2.553
23429WAT      O70528   3.668   3.498   1.623
23429WAT     H170529   3.596   3.459   1.564
23429WAT     H270530   3.628   3.526   1.710
23430WAT      O70531   5.222   9.632   6.364
23430WAT     H170532   5.304   9.683   6.391
23430WAT     H270533   5.223   9.618   6.265
23431WAT      O70534   7.888   1.670   7.244
23431WAT     H170535   7.835   1.624   7.173
23431WAT     H270536   7.843   1.658   7.333
23432WAT      O70537   5.707   2.073   4.903
23432WAT     H170538   5.688   1.986   4.858
23432WAT     H270539   5.727   2.056   5.000
23433WAT      O70540   7.603   8.912   7.744
23433WAT     H170541   7.556   8.826   7.762
23433WAT     H270542   7.655   8.939   7.825
23434WAT      O70543   7.721   3.008   3.769
23434WAT     H170544   7.678   2.931   3.722
23434WAT     H270545   7.655   3.048   3.833
23435WAT      O70546   2.357   3.926   3.709
23435WAT     H170547   2.448   3.959   3.736
23435WAT     H270548   2.345   3.832   3.742
23436WAT      O70549   3.570   9.109   7.074
23436WAT     H170550   3.639   9.175   7.045
23436WAT     H270551   3.554   9.118   7.172
23437WAT      O70552   9.669   6.775   3.409
23437WAT     H170553   9.691   6.764   3.506
23437WAT     H270554   9.574   6.806   3.400
23438WAT      O70555   6.061   3.798   9.031
23438WAT     H170556   6.040   3.737   8.955
23438WAT     H270557   5.982   3.803   9.093
23439WAT      O70558   0.964   4.289   7.135
23439WAT     H170559   1.004   4.239   7.059
23439WAT     H270560   0.881   4.336   7.105
23440WAT      O70561   2.373   7.190   7.931
23440WAT     H170562   2.457   7.137   7.925
23440WAT     H270563   2.343   7.215   7.839
23441WAT      O70564   1.785   0.751   5.412
23441WAT     H170565   1.821   0.723   5.323
23441WAT     H270566   1.859   0.748   5.480
23442WAT      O70567   8.581   6.470   6.102
23442WAT     H170568   8.670   6.498   6.066
23442WAT     H270569   8.510   6.489   6.034
23443WAT      O70570   9.635   6.433   4.769
23443WAT     H170571   9.677   6.393   4.850
23443WAT     H270572   9.701   6.494   4.724
23444WAT      O70573   0.948   5.177   6.825
23444WAT     H170574   0.852   5.191   6.845
23444WAT     H270575   0.957   5.121   6.742
23445WAT      O70576   3.290   8.776   7.076
23445WAT     H170577   3.328   8.695   7.120
23445WAT     H270578   3.260   8.841   7.146
23446WAT      O70579   8.358   1.947   8.678
23446WAT     H170580   8.262   1.926   8.662
23446WAT     H270581   8.381   2.036   8.638
23447WAT      O70582   8.169   0.005   5.235
23447WAT     H170583   8.083  -0.003   5.285
23447WAT     H270584   8.163   0.078   5.167
23448WAT      O70585   4.323   0.783   4.856
23448WAT     H170586   4.361   0.711   4.798
23448WAT     H270587   4.233   0.754   4.889
23449WAT      O70588   4.505   1.312   5.707
23449WAT     H170589   4.540   1.219   5.718
23449WAT     H270590   4.509   1.360   5.794
23450WAT      O70591   5.624   3.880   3.708
23450WAT     H170592   5.544   3.916   3.659
23450WAT     H270593   5.706   3.929   3.677
23451WAT      O70594   8.076   6.702   6.206
23451WAT     H170595   8.154   6.750   6.166
23451WAT     H270596   8.094   6.603   6.207
23452WAT      O70597   7.777   4.116   1.805
23452WAT     H170598   7.809   4.206   1.777
23452WAT     H270599   7.687   4.125   1.848
23453WAT      O70600   3.874   2.533   4.202
23453WAT     H170601   3.966   2.512   4.236
23453WAT     H270602   3.830   2.598   4.264
23454WAT      O70603   2.191   5.982   8.382
23454WAT     H170604   2.125   6.015   8.315
23454WAT     H270605   2.205   5.884   8.369
23455WAT      O70606   7.892   5.450   0.265
23455WAT     H170607   7.861   5.427   0.173
23455WAT     H270608   7.889   5.368   0.322
23456WAT      O70609   8.990   0.906   9.572
23456WAT     H170610   8.928   0.962   9.627
23456WAT     H270611   9.085   0.928   9.595
23457WAT      O70612   0.961   1.680   9.064
23457WAT     H170613   1.025   1.630   9.007
23457WAT     H270614   1.012   1.732   9.134
23458WAT      O70615   8.289   8.100   4.928
23458WAT     H170616   8.342   8.176   4.966
23458WAT     H270617   8.308   8.092   4.830
23459WAT      O70618   0.727   0.978   9.124
23459WAT     H170619   0.717   0.911   9.197
23459WAT     H270620   0.637   1.016   9.100
23460WAT      O70621   8.181   7.835   8.048
23460WAT     H170622   8.113   7.843   7.976
23460WAT     H270623   8.235   7.752   8.033
23461WAT      O70624   3.965   5.867   2.902
23461WAT     H170625   3.925   5.958   2.910
23461WAT     H270626   3.907   5.801   2.951
23462WAT      O70627   0.076   4.312   6.702
23462WAT     H170628   0.035   4.225   6.675
23462WAT     H270629   0.120   4.302   6.792
23463WAT      O70630   3.361   3.468   5.794
23463WAT     H170631   3.452   3.489   5.758
23463WAT     H270632   3.308   3.552   5.802
23464WAT      O70633   1.721   1.141   1.792
23464WAT     H170634   1.652   1.068   1.796
23464WAT     H270635   1.750   1.154   1.697
23465WAT      O70636   8.427   5.129   8.720
23465WAT     H170637   8.416   5.181   8.805
23465WAT     H270638   8.520   5.140   8.685
23466WAT      O70639   6.499   2.726   6.687
23466WAT     H170640   6.582   2.738   6.742
23466WAT     H270641   6.434   2.670   6.738
23467WAT      O70642   7.438   2.822   2.004
23467WAT     H170643   7.511   2.756   2.027
23467WAT     H270644   7.478   2.913   1.992
23468WAT      O70645   8.842   9.370   9.894
23468WAT     H170646   8.909   9.402   9.961
23468WAT     H270647   8.878   9.384   9.802
23469WAT      O70648   8.202   0.085   9.733
23469WAT     H170649   8.285   0.088   9.789
23469WAT     H270650   8.190   0.173   9.686
23470WAT      O70651   0.959   6.682   7.379
23470WAT     H170652   0.913   6.639   7.301
23470WAT     H270653   0.906   6.761   7.409
23471WAT      O70654   9.813   0.717   1.646
23471WAT     H170655   9.885   0.663   1.689
23471WAT     H270656   9.737   0.728   1.709
23472WAT      O70657   0.281   2.962   4.045
23472WAT     H170658   0.282   2.932   4.141
23472WAT     H270659   0.355   3.028   4.031
23473WAT      O70660   6.544   3.125   2.085
23473WAT     H170661   6.616   3.058   2.105
23473WAT     H270662   6.508   3.109   1.994
23474WAT      O70663   0.975   1.534   9.472
23474WAT     H170664   0.993   1.474   9.395
23474WAT     H270665   0.882   1.518   9.506
23475WAT      O70666   7.191   8.367   3.735
23475WAT     H170667   7.231   8.456   3.753
23475WAT     H270668   7.157   8.364   3.641
23476WAT      O70669   7.528   7.494   8.381
23476WAT     H170670   7.563   7.443   8.302
23476WAT     H270671   7.451   7.551   8.353
23477WAT      O70672   5.079   6.517   0.043
23477WAT     H170673   4.987   6.555   0.030
23477WAT     H270674   5.118   6.492  -0.045
23478WAT      O70675   2.321   8.536   2.932
23478WAT     H170676   2.262   8.515   3.010
23478WAT     H270677   2.289   8.621   2.889
23479WAT      O70678   0.612   2.643   8.778
23479WAT     H170679   0.654   2.732   8.795
23479WAT     H270680   0.607   2.627   8.679
23480WAT      O70681   2.778   9.098   3.202
23480WAT     H170682   2.811   9.045   3.280
23480WAT     H270683   2.751   9.037   3.128
23481WAT      O70684   5.740   7.116   1.423
23481WAT     H170685   5.717   7.023   1.452
23481WAT     H270686   5.707   7.130   1.329
23482WAT      O70687   2.375   2.129   7.597
23482WAT     H170688   2.327   2.162   7.515
23482WAT     H270689   2.387   2.205   7.660
23483WAT      O70690   3.318   0.077   3.593
23483WAT     H170691   3.272   0.122   3.516
23483WAT     H270692   3.340   0.146   3.662
23484WAT      O70693   2.758   1.440   2.965
23484WAT     H170694   2.734   1.509   3.033
23484WAT     H270695   2.764   1.350   3.009
23485WAT      O70696   0.529   2.451   3.756
23485WAT     H170697   0.519   2.455   3.855
23485WAT     H270698   0.610   2.502   3.728
23486WAT      O70699   9.707   3.203   8.547
23486WAT     H170700   9.795   3.168   8.580
23486WAT     H270701   9.687   3.290   8.591
23487WAT      O70702   9.677   3.348   4.093
23487WAT     H170703   9.664   3.251   4.116
23487WAT     H270704   9.764   3.359   4.045
23488WAT      O70705   5.711   4.960   1.273
23488WAT     H170706   5.748   5.027   1.337
23488WAT     H270707   5.738   4.868   1.301
23489WAT      O70708   7.011   0.846   8.108
23489WAT     H170709   7.069   0.912   8.060
23489WAT     H270710   7.057   0.757   8.110
23490WAT      O70711   2.443   4.186   8.029
23490WAT     H170712   2.397   4.271   8.053
23490WAT     H270713   2.399   4.110   8.077
23491WAT      O70714   9.726   2.315   9.389
23491WAT     H170715   9.632   2.281   9.390
23491WAT     H270716   9.787   2.244   9.353
23492WAT      O70717   6.095   6.643   2.569
23492WAT     H170718   6.003   6.663   2.602
23492WAT     H270719   6.139   6.579   2.632
23493WAT      O70720   3.240   9.285   0.625
23493WAT     H170721   3.310   9.313   0.559
23493WAT     H270722   3.282   9.232   0.698
23494WAT      O70723   7.098   6.071   3.704
23494WAT     H170724   7.026   6.128   3.665
23494WAT     H270725   7.097   6.079   3.804
23495WAT      O70726   6.778   3.885   6.755
23495WAT     H170727   6.790   3.984   6.746
23495WAT     H270728   6.707   3.854   6.692
23496WAT      O70729   1.490   3.314   3.000
23496WAT     H170730   1.469   3.407   3.032
23496WAT     H270731   1.566   3.318   2.935
23497WAT      O70732   1.858   2.615   8.535
23497WAT     H170733   1.911   2.537   8.570
23497WAT     H270734   1.909   2.660   8.462
23498WAT      O70735   8.769   6.883   8.984
23498WAT     H170736   8.710   6.834   8.919
23498WAT     H270737   8.716   6.907   9.065
23499WAT      O70738   4.020   1.665   2.357
23499WAT     H170739   4.116   1.676   2.331
23499WAT     H270740   4.011   1.590   2.422
23500WAT      O70741   1.795   3.594   0.902
23500WAT     H170742   1.879   3.625   0.857
23500WAT     H270743   1.762   3.666   0.964
23501WAT      O70744   6.347   3.444   6.164
23501WAT     H170745   6.341   3.534   6.207
23501WAT     H270746   6.387   3.379   6.228
23502WAT      O70747   3.300   4.109   9.461
23502WAT     H170748   3.305   4.106   9.361
23502WAT     H270749   3.341   4.194   9.494
23503WAT      O70750   7.456   9.626   1.767
23503WAT     H170751   7.438   9.612   1.865
23503WAT     H270752   7.511   9.550   1.732
23504WAT      O70753   3.486   1.112   0.514
23504WAT     H170754   3.447   1.185   0.458
23504WAT     H270755   3.581   1.133   0.535
23505WAT      O70756   3.165   8.064   1.374
23505WAT     H170757   3.238   7.999   1.395
23505WAT     H270758   3.201   8.157   1.373
23506WAT      O70759   3.423   6.921   4.759
23506WAT     H170760   3.488   6.996   4.746
23506WAT     H270761   3.363   6.942   4.836
23507WAT      O70762   7.837   9.678   4.485
23507WAT     H170763   7.924   9.645   4.449
23507WAT     H270764   7.823   9.774   4.458
23508WAT      O70765   9.821   0.466   9.729
23508WAT     H170766   9.893   0.499   9.667
23508WAT     H270767   9.760   0.405   9.678
23509WAT      O70768   2.544   4.909   8.949
23509WAT     H170769   2.574   4.962   8.870
23509WAT     H270770   2.578   4.951   9.033
23510WAT      O70771   6.525   8.241   8.105
23510WAT     H170772   6.476   8.220   8.190
23510WAT     H270773   6.474   8.204   8.028
23511WAT      O70774   7.876   5.758   7.179
23511WAT     H170775   7.915   5.795   7.263
23511WAT     H270776   7.779   5.736   7.195
23512WAT      O70777   5.883   4.217   7.967
23512WAT     H170778   5.852   4.228   8.062
23512WAT     H270779   5.981   4.198   7.967
23513WAT      O70780   8.544   8.807   1.400
23513WAT     H170781   8.643   8.806   1.412
23513WAT     H270782   8.499   8.795   1.489
23514WAT      O70783   3.631   3.946   1.664
23514WAT     H170784   3.545   3.904   1.692
23514WAT     H270785   3.637   3.947   1.564
23515WAT      O70786   2.802   8.739   7.201
23515WAT     H170787   2.778   8.642   7.211
23515WAT     H270788   2.738   8.783   7.138
23516WAT      O70789   7.847   7.087   6.444
23516WAT     H170790   7.900   7.003   6.430
23516WAT     H270791   7.756   7.063   6.478
23517WAT      O70792   0.725   5.992   5.565
23517WAT     H170793   0.672   6.000   5.481
23517WAT     H270794   0.693   5.914   5.618
23518WAT      O70795   7.725   1.891   7.515
23518WAT     H170796   7.689   1.861   7.426
23518WAT     H270797   7.758   1.985   7.507
23519WAT      O70798   4.256   2.415   6.804
23519WAT     H170799   4.270   2.474   6.724
23519WAT     H270800   4.297   2.325   6.787
23520WAT      O70801   4.882   6.547   7.530
23520WAT     H170802   4.897   6.646   7.536
23520WAT     H270803   4.877   6.520   7.434
23521WAT      O70804   1.871   0.436   6.875
23521WAT     H170805   1.969   0.447   6.861
23521WAT     H270806   1.842   0.485   6.957
23522WAT      O70807   3.554   3.791   3.999
23522WAT     H170808   3.551   3.861   4.070
23522WAT     H270809   3.469   3.794   3.946
23523WAT      O70810   6.616   7.923   5.771
23523WAT     H170811   6.673   7.865   5.713
23523WAT     H270812   6.583   7.869   5.849
23524WAT      O70813   2.207   3.335   1.802
23524WAT     H170814   2.235   3.251   1.848
23524WAT     H270815   2.193   3.317   1.705
23525WAT      O70816   3.782   7.640   7.059
23525WAT     H170817   3.797   7.736   7.035
23525WAT     H270818   3.807   7.582   6.982
23526WAT      O70819   4.846   6.104   6.483
23526WAT     H170820   4.803   6.014   6.472
23526WAT     H270821   4.778   6.175   6.468
23527WAT      O70822   8.630   2.186   9.288
23527WAT     H170823   8.581   2.193   9.375
23527WAT     H270824   8.564   2.194   9.213
23528WAT      O70825   9.834   0.139   4.595
23528WAT     H170826   9.757   0.170   4.651
23528WAT     H270827   9.845   0.040   4.605
23529WAT      O70828   0.459   0.119   8.278
23529WAT     H170829   0.505   0.163   8.201
23529WAT     H270830   0.521   0.116   8.357
23530WAT      O70831   4.233   3.914   0.511
23530WAT     H170832   4.318   3.909   0.564
23530WAT     H270833   4.164   3.856   0.555
23531WAT      O70834   8.675   0.558   7.658
23531WAT     H170835   8.744   0.576   7.729
23531WAT     H270836   8.670   0.460   7.642
23532WAT      O70837   8.930   5.421   1.545
23532WAT     H170838   8.876   5.368   1.610
23532WAT     H270839   8.990   5.483   1.594
23533WAT      O70840   8.609   4.814   4.289
23533WAT     H170841   8.588   4.718   4.274
23533WAT     H270842   8.525   4.863   4.313
23534WAT      O70843   4.789   2.064   3.645
23534WAT     H170844   4.826   2.129   3.711
23534WAT     H270845   4.757   2.113   3.564
23535WAT      O70846   7.927   0.125   8.463
23535WAT     H170847   8.000   0.057   8.476
23535WAT     H270848   7.838   0.082   8.479
23536WAT      O70849   3.738   7.380   7.691
23536WAT     H170850   3.678   7.423   7.758
23536WAT     H270851   3.795   7.311   7.736
23537WAT      O70852   8.637   1.166   8.976
23537WAT     H170853   8.706   1.228   8.937
23537WAT     H270854   8.634   1.178   9.075
23538WAT      O70855   0.457   7.680   6.659
23538WAT     H170856   0.420   7.764   6.697
23538WAT     H270857   0.524   7.702   6.587
23539WAT      O70858   8.864   3.581   8.847
23539WAT     H170859   8.797   3.524   8.896
23539WAT     H270860   8.837   3.677   8.854
23540WAT      O70861   4.615   8.024   5.015
23540WAT     H170862   4.676   8.102   5.003
23540WAT     H270863   4.628   7.984   5.106
23541WAT      O70864   3.287   0.671   4.908
23541WAT     H170865   3.208   0.723   4.875
23541WAT     H270866   3.278   0.576   4.880
23542WAT      O70867   3.724   9.244   5.009
23542WAT     H170868   3.729   9.250   5.108
23542WAT     H270869   3.629   9.254   4.979
23543WAT      O70870   4.732   3.225   7.690
23543WAT     H170871   4.708   3.305   7.746
23543WAT     H270872   4.674   3.222   7.609
23544WAT      O70873   4.748   0.120   9.520
23544WAT     H170874   4.803   0.196   9.486
23544WAT     H270875   4.808   0.043   9.543
23545WAT      O70876   8.642   4.596   4.808
23545WAT     H170877   8.664   4.691   4.787
23545WAT     H270878   8.695   4.567   4.888
23546WAT      O70879   9.577   2.412   7.535
23546WAT     H170880   9.549   2.317   7.519
23546WAT     H270881   9.669   2.427   7.498
23547WAT      O70882   1.188   5.201   7.637
23547WAT     H170883   1.145   5.141   7.569
23547WAT     H270884   1.277   5.163   7.663
23548WAT      O70885   7.736   5.565   4.298
23548WAT     H170886   7.682   5.488   4.263
23548WAT     H270887   7.768   5.621   4.222
23549WAT      O70888   2.969   4.859   2.234
23549WAT     H170889   3.024   4.831   2.155
23549WAT     H270890   2.909   4.784   2.261
23550WAT      O70891   6.862   1.034   1.655
23550WAT     H170892   6.859   1.003   1.560
23550WAT     H270893   6.929   0.979   1.705
23551WAT      O70894   3.491   1.283   9.541
23551WAT     H170895   3.531   1.368   9.506
23551WAT     H270896   3.395   1.298   9.565
23552WAT      O70897   1.190   4.201   7.759
23552WAT     H170898   1.261   4.149   7.806
23552WAT     H270899   1.219   4.218   7.664
23553WAT      O70900   3.627   6.574   3.928
23553WAT     H170901   3.671   6.640   3.989
23553WAT     H270902   3.581   6.504   3.983
23554WAT      O70903   1.288   7.765   1.707
23554WAT     H170904   1.264   7.777   1.611
23554WAT     H270905   1.387   7.773   1.718
23555WAT      O70906   8.542   9.575   4.678
23555WAT     H170907   8.600   9.644   4.721
23555WAT     H270908   8.452   9.575   4.722
23556WAT      O70909   0.848   1.633   0.344
23556WAT     H170910   0.879   1.640   0.249
23556WAT     H270911   0.776   1.701   0.361
23557WAT      O70912   4.354   3.203   1.110
23557WAT     H170913   4.298   3.284   1.127
23557WAT     H270914   4.295   3.122   1.103
23558WAT      O70915   6.903   0.623   9.720
23558WAT     H170916   6.807   0.650   9.721
23558WAT     H270917   6.959   0.698   9.753
23559WAT      O70918   7.382   0.854   8.693
23559WAT     H170919   7.317   0.781   8.670
23559WAT     H270920   7.415   0.841   8.786
23560WAT      O70921   2.838   9.347   6.071
23560WAT     H170922   2.931   9.319   6.048
23560WAT     H270923   2.787   9.367   5.987
23561WAT      O70924   9.661   6.022   7.565
23561WAT     H170925   9.753   6.019   7.526
23561WAT     H270926   9.667   6.034   7.664
23562WAT      O70927   4.743   5.098   8.659
23562WAT     H170928   4.732   5.195   8.639
23562WAT     H270929   4.668   5.067   8.717
23563WAT      O70930   7.216   8.217   2.350
23563WAT     H170931   7.136   8.172   2.390
23563WAT     H270932   7.194   8.246   2.257
23564WAT      O70933   9.384   7.160   1.382
23564WAT     H170934   9.381   7.237   1.318
23564WAT     H270935   9.297   7.153   1.431
23565WAT      O70936   8.630   6.006   1.867
23565WAT     H170937   8.656   6.048   1.953
23565WAT     H270938   8.539   5.966   1.876
23566WAT      O70939   2.145   4.162   0.435
23566WAT     H170940   2.206   4.194   0.362
23566WAT     H270941   2.122   4.066   0.421
23567WAT      O70942   7.680   1.562   2.804
23567WAT     H170943   7.732   1.565   2.718
23567WAT     H270944   7.695   1.647   2.854
23568WAT      O70945   3.026   8.890   5.181
23568WAT     H170946   3.007   8.794   5.199
23568WAT     H270947   2.976   8.947   5.246
23569WAT      O70948   7.198   8.985   1.595
23569WAT     H170949   7.251   8.980   1.680
23569WAT     H270950   7.211   8.901   1.543
23570WAT      O70951   3.829   8.135   7.989
23570WAT     H170952   3.891   8.120   8.067
23570WAT     H270953   3.760   8.202   8.014
23571WAT      O70954   2.870   5.679   8.269
23571WAT     H170955   2.966   5.691   8.296
23571WAT     H270956   2.832   5.767   8.241
23572WAT      O70957   2.598   4.295   6.280
23572WAT     H170958   2.548   4.382   6.286
23572WAT     H270959   2.668   4.292   6.351
23573WAT      O70960   3.543   4.009   6.186
23573WAT     H170961   3.615   3.949   6.151
23573WAT     H270962   3.460   3.997   6.132
23574WAT      O70963   2.862   4.907   9.015
23574WAT     H170964   2.855   4.854   8.932
23574WAT     H270965   2.781   4.892   9.072
23575WAT      O70966   9.714   8.316   8.668
23575WAT     H170967   9.706   8.365   8.582
23575WAT     H270968   9.661   8.363   8.739
23576WAT      O70969   2.690   7.160   8.507
23576WAT     H170970   2.634   7.172   8.425
23576WAT     H270971   2.633   7.125   8.581
23577WAT      O70972   7.600   5.804   4.143
23577WAT     H170973   7.555   5.784   4.230
23577WAT     H270974   7.613   5.903   4.135
23578WAT      O70975   1.679   1.885   8.287
23578WAT     H170976   1.615   1.809   8.276
23578WAT     H270977   1.682   1.940   8.204
23579WAT      O70978   4.803   1.084   6.505
23579WAT     H170979   4.727   1.027   6.475
23579WAT     H270980   4.881   1.027   6.531
23580WAT      O70981   2.807   4.661   9.758
23580WAT     H170982   2.713   4.629   9.755
23580WAT     H270983   2.860   4.603   9.820
23581WAT      O70984   3.504   0.016   7.795
23581WAT     H170985   3.469   0.098   7.841
23581WAT     H270986   3.499  -0.062   7.857
23582WAT      O70987   5.932   3.347   3.653
23582WAT     H170988   6.015   3.291   3.660
23582WAT     H270989   5.876   3.314   3.577
23583WAT      O70990   2.304   5.801   7.384
23583WAT     H170991   2.325   5.726   7.321
23583WAT     H270992   2.210   5.791   7.416
23584WAT      O70993   1.084   5.953   7.935
23584WAT     H170994   1.124   5.940   7.845
23584WAT     H270995   1.044   6.044   7.942
23585WAT      O70996   5.616   0.305   8.170
23585WAT     H170997   5.547   0.289   8.100
23585WAT     H270998   5.698   0.344   8.126
23586WAT      O70999   6.286   4.278   6.038
23586WAT     H171000   6.362   4.217   6.060
23586WAT     H271001   6.289   4.302   5.941
23587WAT      O71002   0.254   2.458   3.617
23587WAT     H171003   0.351   2.480   3.626
23587WAT     H271004   0.221   2.416   3.702
23588WAT      O71005   6.334   7.910   5.522
23588WAT     H171006   6.387   7.985   5.483
23588WAT     H271007   6.265   7.881   5.456
23589WAT      O71008   1.337   2.945   7.746
23589WAT     H171009   1.254   2.890   7.756
23589WAT     H271010   1.312   3.037   7.717
23590WAT      O71011   6.515   8.458   0.248
23590WAT     H171012   6.467   8.382   0.204
23590WAT     H271013   6.527   8.533   0.184
23591WAT      O71014   8.440   2.968   9.072
23591WAT     H171015   8.417   2.943   8.978
23591WAT     H271016   8.441   2.885   9.129
23592WAT      O71017   1.148   9.577   6.508
23592WAT     H171018   1.086   9.587   6.430
23592WAT     H271019   1.120   9.498   6.563
23593WAT      O71020   0.296   8.022   3.733
23593WAT     H171021   0.253   8.025   3.823
23593WAT     H271022   0.256   8.092   3.674
23594WAT      O71023   5.943   7.906   7.933
23594WAT     H171024   5.949   7.809   7.911
23594WAT     H271025   5.926   7.917   8.031
23595WAT      O71026   9.720   6.827   2.902
23595WAT     H171027   9.785   6.881   2.956
23595WAT     H271028   9.666   6.888   2.844
23596WAT      O71029   6.813   4.337   6.966
23596WAT     H171030   6.776   4.429   6.977
23596WAT     H271031   6.741   4.270   6.985
23597WAT      O71032   6.024   0.926   3.787
23597WAT     H171033   5.925   0.924   3.801
23597WAT     H271034   6.050   0.855   3.722
23598WAT      O71035   0.776   9.400   5.098
23598WAT     H171036   0.844   9.367   5.164
23598WAT     H271037   0.822   9.457   5.029
23599WAT      O71038   7.952   0.235   1.995
23599WAT     H171039   8.041   0.271   2.023
23599WAT     H271040   7.965   0.148   1.947
23600WAT      O71041   1.983   2.441   8.337
23600WAT     H171042   1.957   2.357   8.383
23600WAT     H271043   1.989   2.516   8.403
23601WAT      O71044   9.329   1.645   4.648
23601WAT     H171045   9.351   1.733   4.692
23601WAT     H271046   9.247   1.657   4.592
23602WAT      O71047   3.635   2.243   3.178
23602WAT     H171048   3.687   2.163   3.206
23602WAT     H271049   3.696   2.321   3.163
23603WAT      O71050   5.975   7.076   6.071
23603WAT     H171051   5.937   7.155   6.022
23603WAT     H271052   5.990   7.100   6.167
23604WAT      O71053   8.520   7.841   5.680
23604WAT     H171054   8.546   7.926   5.634
23604WAT     H271055   8.602   7.799   5.719
23605WAT      O71056   8.090   4.450   5.147
23605WAT     H171057   8.183   4.429   5.178
23605WAT     H271058   8.053   4.524   5.203
23606WAT      O71059   9.358   3.221   0.003
23606WAT     H171060   9.283   3.174   0.050
23606WAT     H271061   9.321   3.299  -0.048
23607WAT      O71062   0.247   7.077   0.914
23607WAT     H171063   0.206   6.991   0.886
23607WAT     H271064   0.245   7.142   0.837
23608WAT      O71065   2.545   6.982   2.893
23608WAT     H171066   2.491   6.939   2.821
23608WAT     H271067   2.503   6.963   2.982
23609WAT      O71068   0.690   4.418   2.262
23609WAT     H171069   0.617   4.472   2.303
23609WAT     H271070   0.650   4.345   2.206
23610WAT      O71071   5.522   0.858   7.510
23610WAT     H171072   5.607   0.900   7.541
23610WAT     H271073   5.481   0.914   7.438
23611WAT      O71074   7.643   1.716   3.161
23611WAT     H171075   7.669   1.734   3.066
23611WAT     H271076   7.622   1.619   3.172
23612WAT      O71077   3.129   1.427   3.850
23612WAT     H171078   3.195   1.353   3.840
23612WAT     H271079   3.088   1.424   3.942
23613WAT      O71080   2.963   1.494   7.976
23613WAT     H171081   2.911   1.569   7.935
23613WAT     H271082   2.900   1.429   8.019
23614WAT      O71083   9.650   8.416   2.316
23614WAT     H171084   9.643   8.353   2.394
23614WAT     H271085   9.734   8.469   2.324
23615WAT      O71086   8.027   4.376   5.749
23615WAT     H171087   7.947   4.415   5.704
23615WAT     H271088   8.098   4.446   5.757
23616WAT      O71089   6.711   8.415   5.214
23616WAT     H171090   6.672   8.328   5.183
23616WAT     H271091   6.694   8.426   5.312
23617WAT      O71092   0.936   8.964   5.195
23617WAT     H171093   0.926   9.021   5.113
23617WAT     H271094   0.956   8.870   5.168
23618WAT      O71095   4.496   2.997   0.074
23618WAT     H171096   4.421   3.018   0.137
23618WAT     H271097   4.576   2.967   0.125
23619WAT      O71098   2.108   8.384   7.297
23619WAT     H171099   2.171   8.406   7.371
23619WAT     H271100   2.077   8.290   7.308
23620WAT      O71101   9.593   3.077   8.323
23620WAT     H171102   9.564   2.990   8.362
23620WAT     H271103   9.638   3.131   8.394
23621WAT      O71104   7.156   0.052   1.898
23621WAT     H171105   7.178  -0.013   1.971
23621WAT     H271106   7.101   0.005   1.828
23622WAT      O71107   7.848   7.242   4.394
23622WAT     H171108   7.814   7.283   4.479
23622WAT     H271109   7.925   7.182   4.415
23623WAT      O71110   5.268   0.063   3.727
23623WAT     H171111   5.258  -0.035   3.744
23623WAT     H271112   5.183   0.110   3.753
23624WAT      O71113   8.050   5.181   8.346
23624WAT     H171114   8.093   5.096   8.377
23624WAT     H271115   8.084   5.257   8.402
23625WAT      O71116   7.639   5.235   1.936
23625WAT     H171117   7.638   5.161   2.003
23625WAT     H271118   7.723   5.288   1.945
23626WAT      O71119   4.412   2.987   3.767
23626WAT     H171120   4.403   3.077   3.809
23626WAT     H271121   4.478   2.932   3.818
23627WAT      O71122   4.503   1.751   5.005
23627WAT     H171123   4.534   1.747   5.100
23627WAT     H271124   4.438   1.826   4.994
23628WAT      O71125   1.811   3.197   2.022
23628WAT     H171126   1.872   3.270   2.052
23628WAT     H271127   1.787   3.139   2.099
23629WAT      O71128   3.453   2.867   2.829
23629WAT     H171129   3.516   2.836   2.758
23629WAT     H271130   3.482   2.831   2.918
23630WAT      O71131   3.676   1.604   0.164
23630WAT     H171132   3.653   1.646   0.077
23630WAT     H271133   3.768   1.632   0.192
23631WAT      O71134   7.134   7.017   7.004
23631WAT     H171135   7.124   6.930   6.955
23631WAT     H271136   7.174   7.085   6.943
23632WAT      O71137   8.591   9.037   9.099
23632WAT     H171138   8.549   9.051   9.010
23632WAT     H271139   8.588   8.939   9.122
23633WAT      O71140   5.667   4.282   0.408
23633WAT     H171141   5.590   4.240   0.361
23633WAT     H271142   5.751   4.234   0.383
23634WAT      O71143   2.820   6.709   8.120
23634WAT     H171144   2.755   6.656   8.066
23634WAT     H271145   2.888   6.750   8.060
23635WAT      O71146   7.280   5.178   4.088
23635WAT     H171147   7.378   5.187   4.069
23635WAT     H271148   7.263   5.093   4.137
23636WAT      O71149   1.013   4.510   7.329
23636WAT     H171150   1.036   4.433   7.270
23636WAT     H271151   0.915   4.528   7.324
23637WAT      O71152   3.204   3.492   2.527
23637WAT     H171153   3.132   3.430   2.557
23637WAT     H271154   3.195   3.508   2.428
23638WAT      O71155   2.594   4.015   0.200
23638WAT     H171156   2.619   3.919   0.212
23638WAT     H271157   2.557   4.028   0.108
23639WAT      O71158   4.712   3.904   9.253
23639WAT     H171159   4.739   3.826   9.309
23639WAT     H271160   4.622   3.936   9.283
23640WAT      O71161   2.048   0.006   5.552
23640WAT     H171162   2.089  -0.075   5.593
23640WAT     H271163   2.098   0.088   5.580
23641WAT      O71164   6.461   8.464   7.389
23641WAT     H171165   6.396   8.396   7.424
23641WAT     H271166   6.431   8.556   7.415
23642WAT      O71167   4.861   0.949   5.120
23642WAT     H171168   4.774   0.899   5.117
23642WAT     H271169   4.886   0.967   5.215
23643WAT      O71170   0.180   3.280   3.661
23643WAT     H171171   0.137   3.357   3.614
23643WAT     H271172   0.173   3.293   3.760
23644WAT      O71173   9.145   0.504   0.429
23644WAT     H171174   9.089   0.515   0.511
23644WAT     H271175   9.238   0.536   0.447
23645WAT      O71176   6.189   5.181   3.582
23645WAT     H171177   6.175   5.105   3.519
23645WAT     H271178   6.156   5.265   3.539
23646WAT      O71179   9.231   5.628   2.116
23646WAT     H171180   9.254   5.612   2.020
23646WAT     H271181   9.189   5.545   2.154
23647WAT      O71182   0.951   2.628   8.931
23647WAT     H171183   0.946   2.592   8.838
23647WAT     H271184   0.862   2.617   8.976
23648WAT      O71185   0.519   9.276   0.629
23648WAT     H171186   0.430   9.243   0.597
23648WAT     H271187   0.572   9.199   0.665
23649WAT      O71188   5.514   6.604   9.030
23649WAT     H171189   5.579   6.533   9.003
23649WAT     H271190   5.448   6.566   9.095
23650WAT      O71191   4.096   3.943   5.278
23650WAT     H171192   4.103   3.998   5.194
23650WAT     H271193   4.185   3.901   5.297
23651WAT      O71194   8.628   9.435   6.234
23651WAT     H171195   8.687   9.405   6.309
23651WAT     H271196   8.550   9.486   6.270
23652WAT      O71197   3.491   9.392   9.463
23652WAT     H171198   3.452   9.332   9.533
23652WAT     H271199   3.569   9.440   9.502
23653WAT      O71200  -0.003   7.289   2.765
23653WAT     H171201   0.028   7.194   2.766
23653WAT     H271202   0.027   7.333   2.681
23654WAT      O71203   7.366   9.189   4.015
23654WAT     H171204   7.297   9.191   4.087
23654WAT     H271205   7.348   9.112   3.954
23655WAT      O71206   6.531   2.668   7.325
23655WAT     H171207   6.471   2.728   7.378
23655WAT     H271208   6.563   2.593   7.383
23656WAT      O71209   3.488   3.740   5.290
23656WAT     H171210   3.563   3.802   5.311
23656WAT     H271211   3.521   3.665   5.232
23657WAT      O71212   7.043   0.643   7.477
23657WAT     H171213   7.097   0.608   7.400
23657WAT     H271214   6.970   0.578   7.499
23658WAT      O71215   2.902   4.892   7.875
23658WAT     H171216   2.961   4.942   7.939
23658WAT     H271217   2.842   4.957   7.828
23659WAT      O71218   5.452   1.295   8.334
23659WAT     H171219   5.486   1.243   8.413
23659WAT     H271220   5.529   1.341   8.290
23660WAT      O71221   2.815   1.724   0.033
23660WAT     H171222   2.844   1.703   0.127
23660WAT     H271223   2.747   1.797   0.034
23661WAT      O71224   6.892   3.768   4.060
23661WAT     H171225   6.914   3.677   4.093
23661WAT     H271226   6.823   3.810   4.120
23662WAT      O71227   9.661   1.803   5.846
23662WAT     H171228   9.643   1.818   5.944
23662WAT     H271229   9.576   1.781   5.799
23663WAT      O71230   9.073   1.894   5.127
23663WAT     H171231   9.059   1.914   5.223
23663WAT     H271232   9.081   1.979   5.075
23664WAT      O71233   4.774   9.191   7.909
23664WAT     H171234   4.716   9.195   7.990
23664WAT     H271235   4.827   9.107   7.910
23665WAT      O71236   5.804   6.122   0.503
23665WAT     H171237   5.825   6.027   0.478
23665WAT     H271238   5.732   6.123   0.573
23666WAT      O71239   8.044   4.069   8.861
23666WAT     H171240   8.062   4.037   8.954
23666WAT     H271241   8.040   3.990   8.799
23667WAT      O71242   1.560   1.711   8.583
23667WAT     H171243   1.503   1.630   8.597
23667WAT     H271244   1.573   1.726   8.485
23668WAT      O71245   5.507   1.946   3.744
23668WAT     H171246   5.509   1.894   3.658
23668WAT     H271247   5.562   2.029   3.734
23669WAT      O71248   3.453   3.593   7.944
23669WAT     H171249   3.454   3.585   7.844
23669WAT     H271250   3.409   3.679   7.970
23670WAT      O71251   4.431   8.099   1.192
23670WAT     H171252   4.518   8.113   1.144
23670WAT     H271253   4.413   8.177   1.252
23671WAT      O71254   2.715   3.166   3.107
23671WAT     H171255   2.647   3.238   3.124
23671WAT     H271256   2.736   3.162   3.010
23672WAT      O71257   0.801   7.369   2.080
23672WAT     H171258   0.869   7.319   2.134
23672WAT     H271259   0.714   7.321   2.084
23673WAT      O71260   6.087   9.034   9.132
23673WAT     H171261   6.019   9.007   9.064
23673WAT     H271262   6.093   8.964   9.203
23674WAT      O71263   1.801   1.618   3.616
23674WAT     H171264   1.766   1.683   3.684
23674WAT     H271265   1.831   1.668   3.535
23675WAT      O71266   0.204   4.846   2.340
23675WAT     H171267   0.273   4.775   2.354
23675WAT     H271268   0.202   4.905   2.421
23676WAT      O71269   4.898   6.503   0.405
23676WAT     H171270   4.900   6.592   0.449
23676WAT     H271271   4.984   6.455   0.421
23677WAT      O71272   1.807   7.847   7.256
23677WAT     H171273   1.891   7.824   7.303
23677WAT     H271274   1.824   7.920   7.190
23678WAT      O71275   6.529   9.206   0.030
23678WAT     H171276   6.573   9.245   0.112
23678WAT     H271277   6.518   9.278  -0.038
23679WAT      O71278   8.635   5.308   4.810
23679WAT     H171279   8.628   5.219   4.854
23679WAT     H271280   8.693   5.368   4.865
23680WAT      O71281   6.562   6.862   5.576
23680WAT     H171282   6.602   6.851   5.667
23680WAT     H271283   6.589   6.951   5.538
23681WAT      O71284   4.880   4.226   4.265
23681WAT     H171285   4.841   4.141   4.299
23681WAT     H271286   4.979   4.216   4.255
23682WAT      O71287   7.542   1.614   3.870
23682WAT     H171288   7.567   1.710   3.885
23682WAT     H271289   7.618   1.555   3.895
23683WAT      O71290   7.705   7.167   6.176
23683WAT     H171291   7.726   7.119   6.262
23683WAT     H271292   7.783   7.159   6.114
23684WAT      O71293   9.188   7.130   2.472
23684WAT     H171294   9.213   7.068   2.546
23684WAT     H271295   9.120   7.086   2.414
23685WAT      O71296   2.870   6.804   4.321
23685WAT     H171297   2.967   6.830   4.313
23685WAT     H271298   2.818   6.850   4.250
23686WAT      O71299   0.166   9.681   1.170
23686WAT     H171300   0.099   9.707   1.101
23686WAT     H271301   0.155   9.584   1.193
23687WAT      O71302   3.646   4.875   0.177
23687WAT     H171303   3.687   4.966   0.189
23687WAT     H271304   3.595   4.873   0.091
23688WAT      O71305   8.183   5.052   8.694
23688WAT     H171306   8.272   5.097   8.702
23688WAT     H271307   8.186   4.987   8.619
23689WAT      O71308   7.781   1.620   1.593
23689WAT     H171309   7.778   1.686   1.519
23689WAT     H271310   7.815   1.533   1.559
23690WAT      O71311   9.613   0.476   8.902
23690WAT     H171312   9.615   0.533   8.820
23690WAT     H271313   9.558   0.521   8.972
23691WAT      O71314   8.829   2.708   1.907
23691WAT     H171315   8.736   2.742   1.901
23691WAT     H271316   8.891   2.784   1.928
23692WAT      O71317   3.226   3.251   6.491
23692WAT     H171318   3.251   3.184   6.421
23692WAT     H271319   3.179   3.204   6.566
23693WAT      O71320   2.645   0.059   5.853
23693WAT     H171321   2.555   0.079   5.890
23693WAT     H271322   2.665   0.121   5.777
23694WAT      O71323   1.023   3.762   8.826
23694WAT     H171324   0.968   3.753   8.742
23694WAT     H271325   1.117   3.735   8.806
23695WAT      O71326   2.222   8.190   3.177
23695WAT     H171327   2.149   8.257   3.159
23695WAT     H271328   2.208   8.110   3.119
23696WAT      O71329   6.265   1.376   7.727
23696WAT     H171330   6.271   1.475   7.741
23696WAT     H271331   6.183   1.355   7.673
23697WAT      O71332   0.811   5.274   1.151
23697WAT     H171333   0.803   5.349   1.086
23697WAT     H271334   0.770   5.300   1.238
23698WAT      O71335   3.365   2.102   1.172
23698WAT     H171336   3.291   2.035   1.165
23698WAT     H271337   3.453   2.055   1.170
23699WAT      O71338   7.207   7.588   7.550
23699WAT     H171339   7.213   7.640   7.635
23699WAT     H271340   7.297   7.555   7.524
23700WAT      O71341   9.737   1.628   3.723
23700WAT     H171342   9.676   1.557   3.757
23700WAT     H271343   9.830   1.611   3.757
23701WAT      O71344   7.954   0.125   0.092
23701WAT     H171345   7.919   0.213   0.060
23701WAT     H271346   7.992   0.074   0.015
23702WAT      O71347   5.568   4.229   7.008
23702WAT     H171348   5.602   4.236   7.102
23702WAT     H271349   5.539   4.135   6.991
23703WAT      O71350   1.224   3.160   5.632
23703WAT     H171351   1.200   3.237   5.690
23703WAT     H271352   1.318   3.171   5.600
23704WAT      O71353   6.330   0.277   5.428
23704WAT     H171354   6.378   0.275   5.515
23704WAT     H271355   6.240   0.234   5.439
23705WAT      O71356   2.424   9.382   3.737
23705WAT     H171357   2.368   9.395   3.655
23705WAT     H271358   2.366   9.366   3.816
23706WAT      O71359   6.230   1.323   1.669
23706WAT     H171360   6.318   1.279   1.686
23706WAT     H271361   6.174   1.319   1.751
23707WAT      O71362   2.107   7.405   8.178
23707WAT     H171363   2.207   7.399   8.176
23707WAT     H271364   2.079   7.501   8.165
23708WAT      O71365   4.163   7.254   2.755
23708WAT     H171366   4.160   7.350   2.780
23708WAT     H271367   4.126   7.241   2.663
23709WAT      O71368   1.433   8.147   8.591
23709WAT     H171369   1.392   8.201   8.665
23709WAT     H271370   1.457   8.208   8.516
23710WAT      O71371   6.923   6.927   5.562
23710WAT     H171372   6.920   7.017   5.605
23710WAT     H271373   6.912   6.937   5.463
23711WAT      O71374   3.783   9.141   2.273
23711WAT     H171375   3.872   9.120   2.232
23711WAT     H271376   3.777   9.100   2.364
23712WAT      O71377   9.833   0.324   5.386
23712WAT     H171378   9.823   0.289   5.293
23712WAT     H271379   9.835   0.424   5.385
23713WAT      O71380   5.030   6.712   6.370
23713WAT     H171381   5.088   6.793   6.378
23713WAT     H271382   5.044   6.670   6.281
23714WAT      O71383   6.778   4.268   5.760
23714WAT     H171384   6.678   4.275   5.755
23714WAT     H271385   6.812   4.220   5.680
23715WAT      O71386   3.863   1.949   6.976
23715WAT     H171387   3.909   2.013   6.913
23715WAT     H271388   3.801   2.000   7.035
23716WAT      O71389   9.631   5.956   1.414
23716WAT     H171390   9.705   5.890   1.404
23716WAT     H271391   9.663   6.036   1.464
23717WAT      O71392   2.844   7.724   9.191
23717WAT     H171393   2.761   7.677   9.160
23717WAT     H271394   2.893   7.666   9.256
23718WAT      O71395   2.985   4.065   4.918
23718WAT     H171396   2.973   3.998   4.845
23718WAT     H271397   2.976   4.019   5.007
23719WAT      O71398   6.857   8.871   3.451
23719WAT     H171399   6.941   8.817   3.449
23719WAT     H271400   6.801   8.849   3.371
23720WAT      O71401   9.350   0.813   0.772
23720WAT     H171402   9.433   0.868   0.785
23720WAT     H271403   9.366   0.720   0.804
23721WAT      O71404   8.808   5.364   7.640
23721WAT     H171405   8.855   5.339   7.725
23721WAT     H271406   8.783   5.281   7.590
23722WAT      O71407   0.199   9.536   8.859
23722WAT     H171408   0.296   9.554   8.843
23722WAT     H271409   0.152   9.622   8.877
23723WAT      O71410   4.844   1.559   5.899
23723WAT     H171411   4.850   1.632   5.831
23723WAT     H271412   4.766   1.500   5.878
23724WAT      O71413   6.489   2.314   6.618
23724WAT     H171414   6.410   2.316   6.678
23724WAT     H271415   6.464   2.351   6.528
23725WAT      O71416   6.500   1.091   2.611
23725WAT     H171417   6.520   1.184   2.579
23725WAT     H271418   6.431   1.094   2.683
23726WAT      O71419   9.851   2.666   7.599
23726WAT     H171420   9.809   2.650   7.510
23726WAT     H271421   9.870   2.578   7.643
23727WAT      O71422   9.705   1.073   9.189
23727WAT     H171423   9.629   1.035   9.136
23727WAT     H271424   9.770   1.118   9.127
23728WAT      O71425   4.640   7.753   9.034
23728WAT     H171426   4.589   7.675   9.071
23728WAT     H271427   4.646   7.745   8.935
23729WAT      O71428   9.715   8.197   1.572
23729WAT     H171429   9.774   8.231   1.499
23729WAT     H271430   9.664   8.118   1.540
23730WAT      O71431   3.944   0.772   4.209
23730WAT     H171432   3.941   0.845   4.278
23730WAT     H271433   3.892   0.693   4.242
23731WAT      O71434   2.795   2.022   6.673
23731WAT     H171435   2.830   2.047   6.763
23731WAT     H271436   2.709   1.972   6.682
23732WAT      O71437   1.918   4.473   7.978
23732WAT     H171438   1.873   4.561   7.992
23732WAT     H271439   1.970   4.475   7.892
23733WAT      O71440   8.684   1.281   5.463
23733WAT     H171441   8.666   1.193   5.419
23733WAT     H271442   8.774   1.315   5.435
23734WAT      O71443   7.093   0.757   7.727
23734WAT     H171444   7.095   0.721   7.634
23734WAT     H271445   7.064   0.853   7.724
23735WAT      O71446   1.284   8.147   7.224
23735WAT     H171447   1.383   8.144   7.210
23735WAT     H271448   1.264   8.197   7.308
23736WAT      O71449   3.135   4.858   2.015
23736WAT     H171450   3.199   4.933   1.998
23736WAT     H271451   3.183   4.771   2.005
23737WAT      O71452   1.442   5.709   8.381
23737WAT     H171453   1.492   5.781   8.427
23737WAT     H271454   1.502   5.631   8.365
23738WAT      O71455   8.015   3.751   6.354
23738WAT     H171456   7.925   3.722   6.389
23738WAT     H271457   8.052   3.679   6.296
23739WAT      O71458   7.420   7.212   3.712
23739WAT     H171459   7.502   7.257   3.676
23739WAT     H271460   7.339   7.264   3.685
23740WAT      O71461   3.123   4.583   1.263
23740WAT     H171462   3.204   4.641   1.267
23740WAT     H271463   3.150   4.488   1.246
23741WAT      O71464   7.985   8.785   9.607
23741WAT     H171465   8.064   8.730   9.632
23741WAT     H271466   7.903   8.728   9.605
23742WAT      O71467   0.256   4.421   7.967
23742WAT     H171468   0.280   4.400   7.872
23742WAT     H271469   0.315   4.495   8.000
23743WAT      O71470   8.845   0.555   0.254
23743WAT     H171471   8.862   0.482   0.319
23743WAT     H271472   8.923   0.617   0.251
23744WAT      O71473   7.347   8.419   8.958
23744WAT     H171474   7.435   8.373   8.960
23744WAT     H271475   7.274   8.355   8.981
23745WAT      O71476   2.158   5.536   3.705
23745WAT     H171477   2.247   5.577   3.722
23745WAT     H271478   2.122   5.567   3.617
23746WAT      O71479   9.182   1.386   5.075
23746WAT     H171480   9.183   1.480   5.108
23746WAT     H271481   9.241   1.378   4.995
23747WAT      O71482   9.551   8.990   5.698
23747WAT     H171483   9.499   9.046   5.762
23747WAT     H271484   9.539   9.026   5.605
23748WAT      O71485   6.863   1.678   1.880
23748WAT     H171486   6.836   1.757   1.825
23748WAT     H271487   6.781   1.632   1.915
23749WAT      O71488   4.092   2.924   9.361
23749WAT     H171489   4.015   2.875   9.401
23749WAT     H271490   4.093   2.909   9.262
23750WAT      O71491   1.937   5.033   3.076
23750WAT     H171492   1.934   5.075   2.985
23750WAT     H271493   1.954   4.935   3.068
23751WAT      O71494   2.751   4.143   2.541
23751WAT     H171495   2.659   4.112   2.518
23751WAT     H271496   2.815   4.066   2.535
23752WAT      O71497   0.523   6.575   0.352
23752WAT     H171498   0.449   6.618   0.300
23752WAT     H271499   0.486   6.499   0.406
23753WAT      O71500   2.529   0.829   9.374
23753WAT     H171501   2.453   0.884   9.408
23753WAT     H271502   2.502   0.783   9.290
23754WAT      O71503   6.809   9.559   3.363
23754WAT     H171504   6.827   9.529   3.457
23754WAT     H271505   6.784   9.481   3.307
23755WAT      O71506   5.618   4.106   7.999
23755WAT     H171507   5.669   4.192   8.008
23755WAT     H271508   5.630   4.070   7.907
23756WAT      O71509   0.177   8.230   3.534
23756WAT     H171510   0.231   8.303   3.492
23756WAT     H271511   0.125   8.182   3.463
23757WAT      O71512   6.715   8.763   2.064
23757WAT     H171513   6.739   8.824   2.139
23757WAT     H271514   6.781   8.775   1.989
23758WAT      O71515   7.317   3.052   8.213
23758WAT     H171516   7.340   2.976   8.273
23758WAT     H271517   7.401   3.099   8.184
23759WAT      O71518   3.938   6.398   2.893
23759WAT     H171519   3.927   6.408   2.794
23759WAT     H271520   3.961   6.487   2.933
23760WAT      O71521   5.212   4.533   1.783
23760WAT     H171522   5.180   4.518   1.689
23760WAT     H271523   5.183   4.623   1.814
23761WAT      O71524   9.507   3.458   1.281
23761WAT     H171525   9.516   3.557   1.290
23761WAT     H271526   9.593   3.420   1.249
23762WAT      O71527   2.475   1.230   0.079
23762WAT     H171528   2.499   1.135   0.063
23762WAT     H271529   2.468   1.279  -0.008
23763WAT      O71530   4.716   7.936   5.248
23763WAT     H171531   4.815   7.949   5.251
23763WAT     H271532   4.696   7.839   5.235
23764WAT      O71533   1.289   5.842   8.994
23764WAT     H171534   1.268   5.747   8.974
23764WAT     H271535   1.253   5.901   8.922
23765WAT      O71536   2.553   4.118   8.597
23765WAT     H171537   2.625   4.099   8.663
23765WAT     H271538   2.489   4.042   8.594
23766WAT      O71539   5.114   2.970   9.533
23766WAT     H171540   5.128   2.872   9.547
23766WAT     H271541   5.023   2.996   9.564
23767WAT      O71542   1.881   9.251   0.138
23767WAT     H171543   1.785   9.278   0.142
23767WAT     H271544   1.929   9.311   0.073
23768WAT      O71545   3.662   5.799   9.164
23768WAT     H171546   3.626   5.768   9.252
23768WAT     H271547   3.762   5.806   9.169
23769WAT      O71548   8.433   9.529   8.121
23769WAT     H171549   8.495   9.599   8.157
23769WAT     H271550   8.486   9.456   8.078
23770WAT      O71551   3.333   5.924   0.290
23770WAT     H171552   3.317   5.861   0.366
23770WAT     H271553   3.418   5.974   0.306
23771WAT      O71554   5.129   2.779   8.104
23771WAT     H171555   5.055   2.806   8.165
23771WAT     H271556   5.187   2.858   8.085
23772WAT      O71557   7.218   1.049   2.471
23772WAT     H171558   7.228   1.137   2.518
23772WAT     H271559   7.276   1.048   2.390
23773WAT      O71560   2.131   6.787   3.790
23773WAT     H171561   2.055   6.850   3.773
23773WAT     H271562   2.094   6.696   3.809
23774WAT      O71563   7.717   4.420   2.324
23774WAT     H171564   7.688   4.445   2.416
23774WAT     H271565   7.723   4.502   2.267
23775WAT      O71566   3.454   7.833   0.352
23775WAT     H171567   3.372   7.790   0.314
23775WAT     H271568   3.476   7.915   0.299
23776WAT      O71569   3.652   5.244   9.133
23776WAT     H171570   3.560   5.232   9.172
23776WAT     H271571   3.644   5.273   9.038
23777WAT      O71572   1.113   2.924   0.755
23777WAT     H171573   1.201   2.887   0.726
23777WAT     H271574   1.127   2.997   0.822
23778WAT      O71575   2.031   3.048   5.152
23778WAT     H171576   1.981   3.083   5.231
23778WAT     H271577   1.996   3.091   5.069
23779WAT      O71578   4.087   6.991   0.829
23779WAT     H171579   4.090   7.081   0.786
23779WAT     H271580   4.118   6.922   0.763
23780WAT      O71581   1.560   1.117   3.092
23780WAT     H171582   1.639   1.078   3.046
23780WAT     H271583   1.478   1.063   3.072
23781WAT      O71584   6.408   2.231   4.047
23781WAT     H171585   6.350   2.171   4.102
23781WAT     H271586   6.502   2.225   4.080
23782WAT      O71587   2.344   0.455   8.691
23782WAT     H171588   2.302   0.365   8.701
23782WAT     H271589   2.283   0.524   8.730
23783WAT      O71590   2.533   3.912   0.825
23783WAT     H171591   2.494   3.880   0.738
23783WAT     H271592   2.470   3.976   0.868
23784WAT      O71593   0.137   8.759   3.185
23784WAT     H171594   0.105   8.687   3.247
23784WAT     H271595   0.101   8.847   3.215
23785WAT      O71596   7.888   9.704   9.003
23785WAT     H171597   7.884   9.612   8.965
23785WAT     H271598   7.984   9.731   9.015
23786WAT      O71599   6.799   9.793   3.034
23786WAT     H171600   6.878   9.787   2.974
23786WAT     H271601   6.829   9.800   3.129
23787WAT      O71602   9.013   4.030   3.046
23787WAT     H171603   9.005   4.035   3.146
23787WAT     H271604   8.945   4.089   3.003
23788WAT      O71605   9.845   8.958   1.474
23788WAT     H171606   9.826   8.863   1.451
23788WAT     H271607   9.826   8.973   1.572
23789WAT      O71608   0.114   3.967   1.872
23789WAT     H171609   0.090   4.043   1.812
23789WAT     H271610   0.056   3.968   1.954
23790WAT      O71611   2.942   1.924   1.504
23790WAT     H171612   2.939   2.011   1.552
23790WAT     H271613   2.934   1.940   1.405
23791WAT      O71614   1.007   8.672   9.647
23791WAT     H171615   0.924   8.619   9.629
23791WAT     H271616   1.086   8.621   9.615
23792WAT      O71617   2.594   6.601   7.005
23792WAT     H171618   2.601   6.507   7.040
23792WAT     H271619   2.498   6.627   6.998
23793WAT      O71620   7.387   0.719   4.185
23793WAT     H171621   7.361   0.815   4.191
23793WAT     H271622   7.484   0.712   4.165
23794WAT      O71623   0.892   6.121   5.406
23794WAT     H171624   0.846   6.053   5.464
23794WAT     H271625   0.823   6.179   5.362
23795WAT      O71626   8.727   7.047   2.283
23795WAT     H171627   8.753   6.967   2.336
23795WAT     H271628   8.628   7.049   2.272
23796WAT      O71629   4.083   3.110   5.947
23796WAT     H171630   4.077   3.027   6.002
23796WAT     H271631   3.993   3.134   5.912
23797WAT      O71632   9.605   3.136   0.084
23797WAT     H171633   9.515   3.166   0.052
23797WAT     H271634   9.675   3.200   0.052
23798WAT      O71635   3.097   2.645   6.338
23798WAT     H171636   3.075   2.607   6.427
23798WAT     H271637   3.062   2.584   6.266
23799WAT      O71638   6.941   8.402   9.140
23799WAT     H171639   7.020   8.458   9.168
23799WAT     H271640   6.937   8.320   9.196
23800WAT      O71641   6.007   9.494   2.745
23800WAT     H171642   6.054   9.412   2.779
23800WAT     H271643   5.952   9.470   2.665
23801WAT      O71644   1.395   2.579   8.240
23801WAT     H171645   1.427   2.548   8.151
23801WAT     H271646   1.368   2.501   8.296
23802WAT      O71647   5.051   3.187   4.441
23802WAT     H171648   4.974   3.222   4.389
23802WAT     H271649   5.133   3.188   4.383
23803WAT      O71650   3.586   8.071   5.863
23803WAT     H171651   3.684   8.081   5.849
23803WAT     H271652   3.565   7.976   5.888
23804WAT      O71653   1.882   8.249   0.316
23804WAT     H171654   1.972   8.207   0.302
23804WAT     H271655   1.883   8.304   0.399
23805WAT      O71656   2.129   4.358   4.700
23805WAT     H171657   2.180   4.347   4.785
23805WAT     H271658   2.108   4.268   4.661
23806WAT      O71659   4.519   6.490   1.958
23806WAT     H171660   4.497   6.442   2.043
23806WAT     H271661   4.450   6.559   1.939
23807WAT      O71662   8.299   4.160   0.078
23807WAT     H171663   8.320   4.223   0.153
23807WAT     H271664   8.207   4.179   0.044
23808WAT      O71665   0.562   3.556   1.987
23808WAT     H171666   0.469   3.589   2.001
23808WAT     H271667   0.584   3.560   1.889
23809WAT      O71668   7.185   1.427   4.704
23809WAT     H171669   7.109   1.437   4.769
23809WAT     H271670   7.246   1.354   4.733
23810WAT      O71671   4.332   6.114   4.121
23810WAT     H171672   4.366   6.021   4.139
23810WAT     H271673   4.232   6.114   4.122
23811WAT      O71674   3.563   2.557   1.959
23811WAT     H171675   3.502   2.624   2.001
23811WAT     H271676   3.603   2.595   1.876
23812WAT      O71677   7.026   8.876   0.776
23812WAT     H171678   7.046   8.867   0.678
23812WAT     H271679   7.100   8.833   0.828
23813WAT      O71680   3.134   2.854   9.568
23813WAT     H171681   3.127   2.903   9.481
23813WAT     H271682   3.133   2.920   9.643
23814WAT      O71683   5.561   3.502   4.478
23814WAT     H171684   5.629   3.509   4.551
23814WAT     H271685   5.482   3.451   4.510
23815WAT      O71686   8.647   8.044   7.281
23815WAT     H171687   8.596   7.970   7.324
23815WAT     H271688   8.583   8.109   7.241
23816WAT      O71689   4.148   8.070   0.285
23816WAT     H171690   4.085   8.003   0.243
23816WAT     H271691   4.232   8.074   0.231
23817WAT      O71692   6.343   3.438   2.793
23817WAT     H171693   6.420   3.495   2.764
23817WAT     H271694   6.305   3.474   2.878
23818WAT      O71695   0.111   1.642   4.672
23818WAT     H171696   0.053   1.564   4.648
23818WAT     H271697   0.073   1.725   4.633
23819WAT      O71698   5.986   7.599   2.187
23819WAT     H171699   5.933   7.533   2.241
23819WAT     H271700   5.991   7.686   2.236
23820WAT      O71701   7.863   5.820   2.383
23820WAT     H171702   7.807   5.737   2.384
23820WAT     H271703   7.831   5.883   2.453
23821WAT      O71704   4.096   1.330   3.762
23821WAT     H171705   4.116   1.251   3.705
23821WAT     H271706   4.162   1.403   3.743
23822WAT      O71707   5.846   8.385   0.652
23822WAT     H171708   5.848   8.384   0.552
23822WAT     H271709   5.914   8.449   0.687
23823WAT      O71710   6.879   8.769   5.781
23823WAT     H171711   6.790   8.725   5.786
23823WAT     H271712   6.950   8.701   5.764
23824WAT      O71713   4.251   1.553   3.309
23824WAT     H171714   4.284   1.648   3.310
23824WAT     H271715   4.302   1.502   3.239
23825WAT      O71716   5.578   7.459   7.289
23825WAT     H171717   5.589   7.434   7.193
23825WAT     H271718   5.481   7.466   7.310
23826WAT      O71719   5.673   8.142   9.754
23826WAT     H171720   5.689   8.052   9.795
23826WAT     H271721   5.649   8.130   9.658
23827WAT      O71722   4.439   5.618   2.539
23827WAT     H171723   4.356   5.566   2.563
23827WAT     H271724   4.461   5.682   2.612
23828WAT      O71725   5.219   7.228   0.343
23828WAT     H171726   5.135   7.185   0.374
23828WAT     H271727   5.248   7.297   0.408
23829WAT      O71728   1.480   5.238   1.193
23829WAT     H171729   1.388   5.253   1.229
23829WAT     H271730   1.505   5.312   1.131
23830WAT      O71731   3.030   0.419   2.090
23830WAT     H171732   2.949   0.460   2.047
23830WAT     H271733   3.013   0.322   2.107
23831WAT      O71734   2.553   0.149   0.983
23831WAT     H171735   2.475   0.211   0.994
23831WAT     H271736   2.635   0.190   1.024
23832WAT      O71737   9.819   9.134   2.562
23832WAT     H171738   9.768   9.052   2.587
23832WAT     H271739   9.878   9.114   2.483
23833WAT      O71740   0.663   8.278   4.926
23833WAT     H171741   0.643   8.222   4.846
23833WAT     H271742   0.729   8.231   4.985
23834WAT      O71743   7.171   0.975   5.052
23834WAT     H171744   7.149   0.916   5.129
23834WAT     H271745   7.249   1.033   5.077
23835WAT      O71746   8.325   8.773   2.181
23835WAT     H171747   8.332   8.868   2.153
23835WAT     H271748   8.416   8.734   2.191
23836WAT      O71749   6.182   3.640   8.778
23836WAT     H171750   6.155   3.592   8.862
23836WAT     H271751   6.104   3.647   8.717
23837WAT      O71752   9.048   7.905   4.912
23837WAT     H171753   9.046   7.819   4.860
23837WAT     H271754   9.116   7.898   4.985
23838WAT      O71755   8.844   3.404   5.551
23838WAT     H171756   8.756   3.421   5.594
23838WAT     H271757   8.902   3.485   5.559
23839WAT      O71758   9.453   8.015   9.564
23839WAT     H171759   9.424   7.944   9.628
23839WAT     H271760   9.466   7.974   9.473
23840WAT      O71761   2.266   2.739   8.622
23840WAT     H171762   2.284   2.815   8.685
23840WAT     H271763   2.189   2.763   8.562
23841WAT      O71764   8.474   6.861   2.604
23841WAT     H171765   8.545   6.921   2.642
23841WAT     H271766   8.478   6.863   2.505
23842WAT      O71767   3.730   9.828   7.428
23842WAT     H171768   3.742   9.871   7.518
23842WAT     H271769   3.787   9.746   7.422
23843WAT      O71770   4.070   3.356   0.546
23843WAT     H171771   4.143   3.393   0.489
23843WAT     H271772   4.058   3.259   0.526
23844WAT      O71773   5.483   1.821   5.740
23844WAT     H171774   5.567   1.825   5.688
23844WAT     H271775   5.467   1.727   5.770
23845WAT      O71776   8.097   8.635   4.381
23845WAT     H171777   8.081   8.562   4.447
23845WAT     H271778   8.095   8.597   4.288
23846WAT      O71779   4.645   2.572   1.448
23846WAT     H171780   4.634   2.608   1.355
23846WAT     H271781   4.591   2.628   1.512
23847WAT      O71782   6.853   1.635   2.623
23847WAT     H171783   6.952   1.624   2.636
23847WAT     H271784   6.814   1.550   2.588
23848WAT      O71785   6.778   6.154   0.452
23848WAT     H171786   6.833   6.224   0.498
23848WAT     H271787   6.688   6.148   0.495
23849WAT      O71788   4.491   7.146   3.474
23849WAT     H171789   4.521   7.154   3.379
23849WAT     H271790   4.416   7.209   3.491
23850WAT      O71791   3.659   8.634   0.810
23850WAT     H171792   3.582   8.622   0.748
23850WAT     H271793   3.735   8.677   0.762
23851WAT      O71794   0.515   0.790   9.041
23851WAT     H171795   0.433   0.802   9.096
23851WAT     H271796   0.587   0.748   9.097
23852WAT      O71797   8.648   8.050   7.640
23852WAT     H171798   8.549   8.040   7.636
23852WAT     H271799   8.680   8.108   7.565
23853WAT      O71800   1.137   7.401   7.013
23853WAT     H171801   1.151   7.496   6.985
23853WAT     H271802   1.194   7.380   7.092
23854WAT      O71803   0.730   4.143   6.346
23854WAT     H171804   0.738   4.072   6.276
23854WAT     H271805   0.641   4.135   6.391
23855WAT      O71806   2.463   2.773   9.649
23855WAT     H171807   2.458   2.729   9.560
23855WAT     H271808   2.506   2.863   9.639
23856WAT      O71809   7.553   3.762   9.071
23856WAT     H171810   7.560   3.701   9.150
23856WAT     H271811   7.468   3.744   9.022
23857WAT      O71812   2.404   4.118   4.052
23857WAT     H171813   2.312   4.078   4.055
23857WAT     H271814   2.455   4.091   4.133
23858WAT      O71815   0.434   3.153   0.494
23858WAT     H171816   0.476   3.159   0.404
23858WAT     H271817   0.437   3.243   0.539
23859WAT      O71818   7.373   1.906   4.758
23859WAT     H171819   7.290   1.955   4.785
23859WAT     H271820   7.350   1.811   4.735
23860WAT      O71821   5.054   6.097   6.705
23860WAT     H171822   4.974   6.095   6.645
23860WAT     H271823   5.066   6.006   6.746
23861WAT      O71824   5.365   8.671   5.748
23861WAT     H171825   5.350   8.602   5.819
23861WAT     H271826   5.321   8.757   5.774
23862WAT      O71827   0.635   6.902   5.224
23862WAT     H171828   0.588   6.976   5.176
23862WAT     H271829   0.567   6.837   5.259
23863WAT      O71830   0.021   3.857   4.642
23863WAT     H171831   0.029   3.784   4.710
23863WAT     H271832   0.010   3.817   4.551
23864WAT      O71833   8.156   9.636   4.978
23864WAT     H171834   8.060   9.655   4.999
23864WAT     H271835   8.210   9.719   4.990
23865WAT      O71836   5.266   8.300   3.598
23865WAT     H171837   5.243   8.282   3.694
23865WAT     H271838   5.205   8.248   3.539
23866WAT      O71839   0.296   9.646   7.062
23866WAT     H171840   0.328   9.569   7.116
23866WAT     H271841   0.201   9.666   7.086
23867WAT      O71842   1.480   3.169   5.790
23867WAT     H171843   1.448   3.237   5.855
23867WAT     H271844   1.523   3.214   5.712
23868WAT      O71845   1.167   0.919   3.277
23868WAT     H171846   1.151   1.016   3.262
23868WAT     H271847   1.102   0.866   3.223
23869WAT      O71848   5.219   7.684   6.887
23869WAT     H171849   5.252   7.706   6.795
23869WAT     H271850   5.272   7.736   6.954
23870WAT      O71851   5.419   6.813   2.947
23870WAT     H171852   5.345   6.796   2.882
23870WAT     H271853   5.460   6.726   2.975
23871WAT      O71854   3.028   0.530   5.564
23871WAT     H171855   2.976   0.606   5.604
23871WAT     H271856   2.997   0.444   5.605
23872WAT      O71857   4.607   4.153   1.584
23872WAT     H171858   4.596   4.061   1.621
23872WAT     H271859   4.545   4.166   1.506
23873WAT      O71860   1.720   9.038   0.637
23873WAT     H171861   1.664   9.087   0.570
23873WAT     H271862   1.784   8.977   0.590
23874WAT      O71863   4.173   9.528   5.495
23874WAT     H171864   4.271   9.539   5.509
23874WAT     H271865   4.154   9.522   5.397
23875WAT      O71866   1.399   7.488   0.336
23875WAT     H171867   1.453   7.468   0.254
23875WAT     H271868   1.407   7.585   0.357
23876WAT      O71869   4.426   0.423   3.225
23876WAT     H171870   4.393   0.386   3.312
23876WAT     H271871   4.351   0.469   3.178
23877WAT      O71872   7.746   3.848   7.268
23877WAT     H171873   7.804   3.891   7.198
23877WAT     H271874   7.650   3.866   7.247
23878WAT      O71875   4.647   6.721   9.118
23878WAT     H171876   4.676   6.758   9.030
23878WAT     H271877   4.709   6.753   9.190
23879WAT      O71878   5.141   1.199   9.440
23879WAT     H171879   5.170   1.282   9.392
23879WAT     H271880   5.220   1.153   9.479
23880WAT      O71881   9.260   4.257   4.819
23880WAT     H171882   9.290   4.165   4.793
23880WAT     H271883   9.160   4.260   4.822
23881WAT      O71884   0.127   4.557   5.358
23881WAT     H171885   0.093   4.570   5.265
23881WAT     H271886   0.215   4.604   5.369
23882WAT      O71887   9.292   7.678   7.822
23882WAT     H171888   9.286   7.578   7.813
23882WAT     H271889   9.338   7.701   7.908
23883WAT      O71890   1.213   4.965   1.529
23883WAT     H171891   1.210   4.891   1.597
23883WAT     H271892   1.258   5.045   1.570
23884WAT      O71893   5.172   7.313   6.147
23884WAT     H171894   5.082   7.352   6.165
23884WAT     H271895   5.209   7.350   6.062
23885WAT      O71896   7.363   5.464   3.851
23885WAT     H171897   7.452   5.425   3.827
23885WAT     H271898   7.294   5.391   3.853
23886WAT      O71899   2.608   0.396   8.794
23886WAT     H171900   2.595   0.300   8.820
23886WAT     H271901   2.519   0.435   8.767
23887WAT      O71902   3.464   7.439   4.122
23887WAT     H171903   3.420   7.467   4.207
23887WAT     H271904   3.435   7.498   4.047
23888WAT      O71905   1.175   5.331   2.934
23888WAT     H171906   1.186   5.384   3.018
23888WAT     H271907   1.143   5.390   2.860
23889WAT      O71908   9.277   0.297   8.831
23889WAT     H171909   9.271   0.392   8.863
23889WAT     H271910   9.239   0.289   8.739
23890WAT      O71911   5.280   1.114   4.904
23890WAT     H171912   5.273   1.214   4.894
23890WAT     H271913   5.291   1.072   4.814
23891WAT      O71914   3.972   2.083   0.376
23891WAT     H171915   4.036   2.126   0.313
23891WAT     H271916   3.887   2.136   0.380
23892WAT      O71917   7.095   7.350   8.490
23892WAT     H171918   7.156   7.287   8.443
23892WAT     H271919   7.090   7.436   8.439
23893WAT      O71920   5.320   1.457   2.745
23893WAT     H171921   5.288   1.366   2.772
23893WAT     H271922   5.418   1.454   2.729
23894WAT      O71923   4.002   5.981   6.868
23894WAT     H171924   3.965   5.900   6.822
23894WAT     H271925   4.048   5.953   6.952
23895WAT      O71926   7.440   3.855   4.687
23895WAT     H171927   7.358   3.904   4.717
23895WAT     H271928   7.422   3.757   4.687
23896WAT      O71929   9.107   8.527   8.571
23896WAT     H171930   9.038   8.486   8.630
23896WAT     H271931   9.142   8.610   8.614
23897WAT      O71932   4.548   8.229   6.128
23897WAT     H171933   4.594   8.284   6.058
23897WAT     H271934   4.532   8.285   6.209
23898WAT      O71935   5.820   4.602   0.210
23898WAT     H171936   5.748   4.567   0.270
23898WAT     H271937   5.781   4.623   0.121
23899WAT      O71938   2.207   8.943   2.163
23899WAT     H171939   2.141   9.014   2.137
23899WAT     H271940   2.282   8.942   2.097
23900WAT      O71941   8.322   3.618   8.283
23900WAT     H171942   8.373   3.679   8.222
23900WAT     H271943   8.335   3.647   8.378
23901WAT      O71944   7.502   5.740   8.485
23901WAT     H171945   7.449   5.657   8.500
23901WAT     H271946   7.456   5.818   8.528
23902WAT      O71947   6.050   2.046   5.147
23902WAT     H171948   6.066   1.981   5.222
23902WAT     H271949   6.049   1.997   5.060
23903WAT      O71950   7.983   6.587   0.501
23903WAT     H171951   7.917   6.660   0.483
23903WAT     H271952   7.973   6.515   0.432
23904WAT      O71953   7.829   4.665   7.417
23904WAT     H171954   7.885   4.735   7.460
23904WAT     H271955   7.736   4.668   7.454
23905WAT      O71956   5.517   2.882   3.096
23905WAT     H171957   5.523   2.879   2.996
23905WAT     H271958   5.552   2.796   3.134
23906WAT      O71959   9.219   3.310   5.183
23906WAT     H171960   9.245   3.406   5.174
23906WAT     H271961   9.260   3.257   5.109
23907WAT      O71962   8.767   2.692   1.449
23907WAT     H171963   8.756   2.675   1.351
23907WAT     H271964   8.796   2.787   1.464
23908WAT      O71965   9.515   4.806   6.412
23908WAT     H171966   9.614   4.811   6.427
23908WAT     H271967   9.482   4.715   6.434
23909WAT      O71968   0.720   3.827   3.439
23909WAT     H171969   0.778   3.776   3.502
23909WAT     H271970   0.750   3.811   3.345
23910WAT      O71971   9.231   5.195   2.933
23910WAT     H171972   9.292   5.118   2.952
23910WAT     H271973   9.221   5.250   3.016
23911WAT      O71974   1.462   8.781   1.261
23911WAT     H171975   1.367   8.765   1.286
23911WAT     H271976   1.468   8.854   1.193
23912WAT      O71977   5.844   8.495   4.067
23912WAT     H171978   5.857   8.540   4.155
23912WAT     H271979   5.762   8.437   4.072
23913WAT      O71980   8.052   0.904   3.191
23913WAT     H171981   8.050   0.811   3.227
23913WAT     H271982   8.140   0.946   3.213
23914WAT      O71983   4.923   0.262   2.137
23914WAT     H171984   4.824   0.248   2.127
23914WAT     H271985   4.941   0.355   2.169
23915WAT      O71986   6.997   0.952   5.662
23915WAT     H171987   6.949   0.985   5.742
23915WAT     H271988   6.955   0.867   5.630
23916WAT      O71989   6.352   2.146   7.290
23916WAT     H171990   6.348   2.235   7.246
23916WAT     H271991   6.299   2.080   7.237
23917WAT      O71992   4.450   4.353   5.556
23917WAT     H171993   4.533   4.373   5.609
23917WAT     H271994   4.474   4.299   5.476
23918WAT      O71995   7.783   2.668   8.885
23918WAT     H171996   7.687   2.693   8.873
23918WAT     H271997   7.829   2.671   8.796
23919WAT      O71998   1.783   6.155   3.380
23919WAT     H171999   1.736   6.203   3.454
23919WAT     H272000   1.852   6.215   3.340
23920WAT      O72001   7.269   6.607   6.684
23920WAT     H172002   7.241   6.513   6.704
23920WAT     H272003   7.369   6.611   6.679
23921WAT      O72004   9.429   0.119   7.091
23921WAT     H172005   9.481   0.114   7.006
23921WAT     H272006   9.331   0.123   7.070
23922WAT      O72007   2.620   9.619   5.555
23922WAT     H172008   2.525   9.632   5.528
23922WAT     H272009   2.679   9.678   5.500
23923WAT      O72010   0.732   2.510   9.019
23923WAT     H172011   0.688   2.478   9.103
23923WAT     H272012   0.784   2.436   8.977
23924WAT      O72013   0.122   0.644   9.629
23924WAT     H172014   0.147   0.741   9.621
23924WAT     H272015   0.116   0.603   9.538
23925WAT      O72016   4.223   4.977   3.570
23925WAT     H172017   4.264   4.919   3.500
23925WAT     H272018   4.295   5.025   3.621
23926WAT      O72019   0.397   9.578   0.906
23926WAT     H172020   0.414   9.621   0.994
23926WAT     H272021   0.479   9.529   0.877
23927WAT      O72022   3.753   9.847   3.334
23927WAT     H172023   3.752   9.747   3.335
23927WAT     H272024   3.699   9.881   3.411
23928WAT      O72025   9.636   9.472   7.901
23928WAT     H172026   9.619   9.559   7.946
23928WAT     H272027   9.687   9.412   7.962
23929WAT      O72028   9.734   3.590   6.712
23929WAT     H172029   9.684   3.530   6.649
23929WAT     H272030   9.820   3.618   6.670
23930WAT      O72031   0.628   2.168   4.237
23930WAT     H172032   0.569   2.166   4.318
23930WAT     H272033   0.596   2.240   4.175
23931WAT      O72034   2.429   7.846   7.606
23931WAT     H172035   2.470   7.820   7.518
23931WAT     H272036   2.494   7.826   7.680
23932WAT      O72037   8.494   1.614   3.244
23932WAT     H172038   8.470   1.522   3.273
23932WAT     H272039   8.592   1.629   3.258
23933WAT      O72040   0.665   6.827   3.653
23933WAT     H172041   0.635   6.771   3.731
23933WAT     H272042   0.739   6.888   3.682
23934WAT      O72043   5.890   3.584   4.933
23934WAT     H172044   5.805   3.596   4.985
23934WAT     H272045   5.964   3.561   4.996
23935WAT      O72046   1.907   7.393   7.863
23935WAT     H172047   1.960   7.478   7.874
23935WAT     H272048   1.963   7.316   7.892
23936WAT      O72049   3.091   2.037   0.864
23936WAT     H172050   3.099   1.969   0.791
23936WAT     H272051   3.044   1.997   0.942
23937WAT      O72052   2.758   9.034   8.168
23937WAT     H172053   2.669   9.039   8.213
23937WAT     H272054   2.771   8.944   8.128
23938WAT      O72055   4.623   6.680   6.467
23938WAT     H172056   4.534   6.725   6.462
23938WAT     H272057   4.611   6.585   6.494
23939WAT      O72058   5.587   9.073   7.807
23939WAT     H172059   5.525   9.142   7.845
23939WAT     H272060   5.661   9.056   7.871
23940WAT      O72061   6.412   3.542   5.269
23940WAT     H172062   6.502   3.582   5.255
23940WAT     H272063   6.396   3.530   5.367
23941WAT      O72064   5.020   9.318   7.178
23941WAT     H172065   5.034   9.404   7.227
23941WAT     H272066   4.927   9.286   7.194
23942WAT      O72067   3.691   4.901   5.390
23942WAT     H172068   3.748   4.918   5.310
23942WAT     H272069   3.595   4.917   5.366
23943WAT      O72070   0.227   1.321   0.331
23943WAT     H172071   0.253   1.375   0.411
23943WAT     H272072   0.308   1.306   0.274
23944WAT      O72073   4.491   2.964   5.184
23944WAT     H172074   4.439   2.899   5.240
23944WAT     H272075   4.437   3.047   5.170
23945WAT      O72076   9.256   6.310   2.611
23945WAT     H172077   9.333   6.284   2.553
23945WAT     H272078   9.232   6.406   2.594
23946WAT      O72079   6.693   5.108   6.707
23946WAT     H172080   6.643   5.164   6.773
23946WAT     H272081   6.770   5.161   6.670
23947WAT      O72082   7.368   0.693   2.608
23947WAT     H172083   7.345   0.617   2.668
23947WAT     H272084   7.391   0.774   2.663
23948WAT      O72085   7.085   7.371   2.969
23948WAT     H172086   7.117   7.277   2.973
23948WAT     H272087   6.991   7.374   2.937
23949WAT      O72088   2.784   1.237   8.383
23949WAT     H172089   2.768   1.334   8.364
23949WAT     H272090   2.697   1.188   8.375
23950WAT      O72091   4.993   9.605   9.104
23950WAT     H172092   5.029   9.693   9.072
23950WAT     H272093   4.938   9.620   9.186
23951WAT      O72094   9.191   7.140   0.793
23951WAT     H172095   9.255   7.088   0.736
23951WAT     H272096   9.215   7.128   0.889
23952WAT      O72097   6.684   8.431   5.960
23952WAT     H172098   6.735   8.460   6.041
23952WAT     H272099   6.740   8.447   5.878
23953WAT      O72100   7.252   2.383   6.627
23953WAT     H172101   7.253   2.480   6.604
23953WAT     H272102   7.169   2.362   6.679
23954WAT      O72103   5.540   4.591   6.627
23954WAT     H172104   5.481   4.583   6.708
23954WAT     H272105   5.545   4.688   6.600
23955WAT      O72106   4.326   0.288   3.796
23955WAT     H172107   4.315   0.317   3.891
23955WAT     H272108   4.328   0.368   3.736
23956WAT      O72109   1.797   9.813   5.966
23956WAT     H172110   1.719   9.802   6.028
23956WAT     H272111   1.816   9.725   5.922
23957WAT      O72112   9.419   3.515   1.890
23957WAT     H172113   9.406   3.455   1.811
23957WAT     H272114   9.338   3.573   1.902
23958WAT      O72115   3.157   0.207   5.463
23958WAT     H172116   3.109   0.181   5.379
23958WAT     H272117   3.253   0.227   5.441
23959WAT      O72118   0.655   0.206   9.329
23959WAT     H172119   0.677   0.160   9.243
23959WAT     H272120   0.736   0.255   9.363
23960WAT      O72121   5.124   1.723   7.019
23960WAT     H172122   5.169   1.808   6.992
23960WAT     H272123   5.035   1.745   7.059
23961WAT      O72124   8.359   3.423   5.231
23961WAT     H172125   8.369   3.324   5.240
23961WAT     H272126   8.270   3.451   5.268
23962WAT      O72127   7.500   1.932   2.526
23962WAT     H172128   7.482   1.834   2.533
23962WAT     H272129   7.464   1.979   2.607
23963WAT      O72130   8.490   4.115   2.812
23963WAT     H172131   8.549   4.053   2.863
23963WAT     H272132   8.543   4.195   2.781
23964WAT      O72133   7.113   0.208   8.378
23964WAT     H172134   7.116   0.205   8.478
23964WAT     H272135   7.135   0.300   8.347
23965WAT      O72136   9.390   0.504   7.122
23965WAT     H172137   9.353   0.507   7.029
23965WAT     H272138   9.351   0.426   7.171
23966WAT      O72139   6.850   8.576   7.761
23966WAT     H172140   6.775   8.582   7.826
23966WAT     H272141   6.815   8.542   7.673
23967WAT      O72142   3.292   0.733   7.291
23967WAT     H172143   3.200   0.728   7.331
23967WAT     H272144   3.285   0.733   7.191
23968WAT      O72145   9.148   7.873   3.743
23968WAT     H172146   9.133   7.817   3.825
23968WAT     H272147   9.202   7.954   3.768
23969WAT      O72148   6.138   7.697   3.546
23969WAT     H172149   6.113   7.777   3.600
23969WAT     H272150   6.083   7.694   3.463
23970WAT      O72151   2.183   0.986   5.797
23970WAT     H172152   2.117   1.034   5.739
23970WAT     H272153   2.230   1.052   5.855
23971WAT      O72154   4.481   2.063   9.816
23971WAT     H172155   4.469   2.141   9.756
23971WAT     H272156   4.434   2.079   9.903
23972WAT      O72157   9.463   3.139   1.715
23972WAT     H172158   9.425   3.231   1.711
23972WAT     H272159   9.487   3.108   1.623
23973WAT      O72160   9.828   8.900   1.187
23973WAT     H172161   9.813   8.801   1.180
23973WAT     H272162   9.904   8.918   1.250
23974WAT      O72163   4.487   6.478   2.990
23974WAT     H172164   4.553   6.546   2.961
23974WAT     H272165   4.436   6.511   3.069
23975WAT      O72166   9.640   4.719   1.016
23975WAT     H172167   9.589   4.707   1.101
23975WAT     H272168   9.585   4.769   0.950
23976WAT      O72169   8.815   6.422   4.003
23976WAT     H172170   8.869   6.339   3.991
23976WAT     H272171   8.875   6.499   4.026
23977WAT      O72172   0.876   6.383   2.831
23977WAT     H172173   0.867   6.459   2.767
23977WAT     H272174   0.924   6.307   2.787
23978WAT      O72175   8.601   1.990   2.747
23978WAT     H172176   8.622   2.073   2.695
23978WAT     H272177   8.653   1.990   2.832
23979WAT      O72178   9.873   1.030   1.824
23979WAT     H172179   9.871   0.935   1.855
23979WAT     H272180   9.967   1.062   1.820
23980WAT      O72181   6.862   0.817   3.997
23980WAT     H172182   6.821   0.776   3.916
23980WAT     H272183   6.790   0.860   4.052
23981WAT      O72184   5.663   4.934   6.298
23981WAT     H172185   5.755   4.957   6.264
23981WAT     H272186   5.620   5.017   6.333
23982WAT      O72187   2.950   1.259   4.716
23982WAT     H172188   2.866   1.242   4.768
23982WAT     H272189   2.948   1.206   4.631
23983WAT      O72190   7.594   6.439   3.485
23983WAT     H172191   7.505   6.457   3.443
23983WAT     H272192   7.596   6.476   3.578
23984WAT      O72193   1.947   5.734   6.516
23984WAT     H172194   1.992   5.683   6.442
23984WAT     H272195   1.936   5.674   6.595
23985WAT      O72196   2.431   4.245   6.747
23985WAT     H172197   2.363   4.183   6.788
23985WAT     H272198   2.418   4.247   6.648
23986WAT      O72199   9.347   0.948   3.800
23986WAT     H172200   9.346   1.037   3.755
23986WAT     H272201   9.420   0.892   3.761
23987WAT      O72202   8.110   3.806   9.585
23987WAT     H172203   8.168   3.768   9.513
23987WAT     H272204   8.163   3.817   9.669
23988WAT      O72205   7.117   3.204   5.880
23988WAT     H172206   7.213   3.194   5.852
23988WAT     H272207   7.100   3.148   5.961
23989WAT      O72208   2.346   3.061   0.035
23989WAT     H172209   2.332   3.029   0.128
23989WAT     H272210   2.306   2.995  -0.029
23990WAT      O72211   0.488   3.312   1.222
23990WAT     H172212   0.430   3.336   1.300
23990WAT     H272213   0.559   3.248   1.252
23991WAT      O72214   2.784   9.392   5.594
23991WAT     H172215   2.718   9.465   5.582
23991WAT     H272216   2.874   9.422   5.562
23992WAT      O72217   1.463   1.389   3.047
23992WAT     H172218   1.389   1.323   3.037
23992WAT     H272219   1.549   1.340   3.062
23993WAT      O72220   9.489   4.214   0.441
23993WAT     H172221   9.432   4.149   0.390
23993WAT     H272222   9.536   4.274   0.377
23994WAT      O72223   3.693   7.047   5.614
23994WAT     H172224   3.614   7.024   5.558
23994WAT     H272225   3.663   7.085   5.701
23995WAT      O72226   1.771   1.121   7.723
23995WAT     H172227   1.710   1.122   7.802
23995WAT     H272228   1.841   1.051   7.736
23996WAT      O72229   2.060   1.771   3.970
23996WAT     H172230   2.061   1.761   3.871
23996WAT     H272231   2.023   1.687   4.012
23997WAT      O72232   1.635   7.652   9.760
23997WAT     H172233   1.567   7.662   9.833
23997WAT     H272234   1.675   7.741   9.739
23998WAT      O72235   2.106   5.379   4.919
23998WAT     H172236   2.056   5.420   4.843
23998WAT     H272237   2.128   5.284   4.897
23999WAT      O72238   1.094   7.285   1.740
23999WAT     H172239   1.038   7.360   1.777
23999WAT     H272240   1.053   7.253   1.654
24000WAT      O72241   0.967   8.540   9.272
24000WAT     H172242   0.978   8.457   9.217
24000WAT     H272243   1.055   8.584   9.283
24001WAT      O72244   6.829   4.959   9.535
24001WAT     H172245   6.898   4.894   9.502
24001WAT     H272246   6.865   5.008   9.614
24002WAT      O72247   7.885   7.107   3.936
24002WAT     H172248   7.931   7.085   4.022
24002WAT     H272249   7.915   7.043   3.865
24003WAT      O72250   4.674   2.458   6.976
24003WAT     H172251   4.583   2.499   6.980
24003WAT     H272252   4.736   2.508   7.037
24004WAT      O72253   7.053   2.471   0.311
24004WAT     H172254   7.003   2.405   0.256
24004WAT     H272255   7.151   2.463   0.291
24005WAT      O72256   2.222   4.058   6.388
24005WAT     H172257   2.135   4.009   6.384
24005WAT     H272258   2.297   3.993   6.374
24006WAT      O72259   0.994   1.798   7.861
24006WAT     H172260   1.024   1.837   7.774
24006WAT     H272261   0.944   1.713   7.844
24007WAT      O72262   1.606   8.578   9.611
24007WAT     H172263   1.526   8.598   9.556
24007WAT     H272264   1.650   8.664   9.639
24008WAT      O72265   0.289   3.288   6.884
24008WAT     H172266   0.331   3.358   6.826
24008WAT     H272267   0.350   3.208   6.889
24009WAT      O72268   9.330   9.652   3.406
24009WAT     H172269   9.272   9.624   3.483
24009WAT     H272270   9.404   9.710   3.440
24010WAT      O72271   1.578   8.357   4.620
24010WAT     H172272   1.514   8.351   4.544
24010WAT     H272273   1.671   8.369   4.585
24011WAT      O72274   2.699   6.726   1.903
24011WAT     H172275   2.757   6.688   1.975
24011WAT     H272276   2.743   6.715   1.814
24012WAT      O72277   4.066   1.962   3.334
24012WAT     H172278   4.104   1.961   3.427
24012WAT     H272279   4.017   2.048   3.319
24013WAT      O72280   7.053   2.094   0.484
24013WAT     H172281   7.039   2.036   0.404
24013WAT     H272282   7.128   2.158   0.467
24014WAT      O72283   9.526   6.510   7.062
24014WAT     H172284   9.571   6.599   7.052
24014WAT     H272285   9.514   6.469   6.972
24015WAT      O72286   1.899   8.739   9.181
24015WAT     H172287   1.891   8.797   9.100
24015WAT     H272288   1.895   8.643   9.154
24016WAT      O72289   8.155   0.253   2.704
24016WAT     H172290   8.113   0.197   2.633
24016WAT     H272291   8.214   0.195   2.761
24017WAT      O72292   9.287   8.430   9.831
24017WAT     H172293   9.377   8.442   9.873
24017WAT     H272294   9.291   8.357   9.763
24018WAT      O72295   5.836   6.541   3.103
24018WAT     H172296   5.769   6.475   3.067
24018WAT     H272297   5.804   6.634   3.085
24019WAT      O72298   1.078   5.190   7.110
24019WAT     H172299   1.058   5.163   7.015
24019WAT     H272300   1.177   5.205   7.120
24020WAT      O72301   1.278   1.058   7.528
24020WAT     H172302   1.352   1.033   7.591
24020WAT     H272303   1.192   1.062   7.579
24021WAT      O72304   2.811   1.691   6.553
24021WAT     H172305   2.761   1.717   6.470
24021WAT     H272306   2.819   1.591   6.556
24022WAT      O72307   5.131   6.148   0.392
24022WAT     H172308   5.070   6.100   0.328
24022WAT     H272309   5.100   6.133   0.485
24023WAT      O72310   0.702   6.590   8.377
24023WAT     H172311   0.630   6.602   8.309
24023WAT     H272312   0.664   6.604   8.469
24024WAT      O72313   0.078   6.919   4.347
24024WAT     H172314  -0.000   6.936   4.287
24024WAT     H272315   0.077   6.824   4.377
24025WAT      O72316   7.564   7.855   6.827
24025WAT     H172317   7.632   7.783   6.838
24025WAT     H272318   7.539   7.892   6.916
24026WAT      O72319   9.298   7.906   4.708
24026WAT     H172320   9.223   7.904   4.642
24026WAT     H272321   9.271   7.857   4.791
24027WAT      O72322   9.629   7.444   1.770
24027WAT     H172323   9.592   7.505   1.840
24027WAT     H272324   9.556   7.412   1.710
24028WAT      O72325   9.012   0.530   9.095
24028WAT     H172326   9.014   0.625   9.125
24028WAT     H272327   9.058   0.473   9.163
24029WAT      O72328   0.437   8.792   5.567
24029WAT     H172329   0.372   8.716   5.563
24029WAT     H272330   0.530   8.757   5.556
24030WAT      O72331   4.099   3.839   3.338
24030WAT     H172332   4.012   3.849   3.387
24030WAT     H272333   4.142   3.928   3.328
24031WAT      O72334   3.582   8.869   9.586
24031WAT     H172335   3.615   8.787   9.634
24031WAT     H272336   3.616   8.951   9.633
24032WAT      O72337   2.275   7.530   3.759
24032WAT     H172338   2.299   7.616   3.714
24032WAT     H272339   2.208   7.547   3.832
24033WAT      O72340   1.653   4.517   0.148
24033WAT     H172341   1.565   4.563   0.154
24033WAT     H272342   1.659   4.445   0.217
24034WAT      O72343   0.670   8.205   3.246
24034WAT     H172344   0.668   8.167   3.338
24034WAT     H272345   0.578   8.202   3.206
24035WAT      O72346   5.915   6.224   0.261
24035WAT     H172347   5.868   6.183   0.339
24035WAT     H272348   5.918   6.158   0.186
24036WAT      O72349   5.893   2.005   0.262
24036WAT     H172350   5.982   1.985   0.222
24036WAT     H272351   5.900   2.082   0.325
24037WAT      O72352   4.930   7.218   1.757
24037WAT     H172353   4.934   7.312   1.789
24037WAT     H272354   5.011   7.169   1.787
24038WAT      O72355   0.014   3.484   1.112
24038WAT     H172356   0.079   3.526   1.049
24038WAT     H272357   0.059   3.410   1.162
24039WAT      O72358   6.978   1.231   9.716
24039WAT     H172359   6.915   1.212   9.792
24039WAT     H272360   7.069   1.198   9.740
24040WAT      O72361   0.315   4.944   0.422
24040WAT     H172362   0.366   5.006   0.364
24040WAT     H272363   0.247   4.996   0.475
24041WAT      O72364   3.314   9.470   0.012
24041WAT     H172365   3.345   9.383   0.051
24041WAT     H272366   3.237   9.505   0.065
24042WAT      O72367   9.704   8.070   5.193
24042WAT     H172368   9.786   8.127   5.182
24042WAT     H272369   9.727   7.989   5.246
24043WAT      O72370   0.303   8.555   5.563
24043WAT     H172371   0.265   8.502   5.487
24043WAT     H272372   0.246   8.543   5.644
24044WAT      O72373   5.222   3.646   6.608
24044WAT     H172374   5.135   3.677   6.569
24044WAT     H272375   5.257   3.570   6.553
24045WAT      O72376   4.911   1.336   1.466
24045WAT     H172377   4.867   1.376   1.386
24045WAT     H272378   4.851   1.346   1.546
24046WAT      O72379   3.755   6.103   2.674
24046WAT     H172380   3.708   6.034   2.619
24046WAT     H272381   3.714   6.193   2.657
24047WAT      O72382   1.612   7.043   7.501
24047WAT     H172383   1.529   7.096   7.515
24047WAT     H272384   1.604   6.955   7.549
24048WAT      O72385   5.127   5.026   2.102
24048WAT     H172386   5.144   5.124   2.115
24048WAT     H272387   5.032   5.005   2.129
24049WAT      O72388   0.318   8.762   1.679
24049WAT     H172389   0.223   8.742   1.654
24049WAT     H272390   0.321   8.803   1.770
24050WAT      O72391   9.882   8.594   5.317
24050WAT     H172392   9.803   8.537   5.297
24050WAT     H272393   9.964   8.537   5.323
24051WAT      O72394   7.357   0.875   6.978
24051WAT     H172395   7.280   0.909   7.032
24051WAT     H272396   7.323   0.828   6.897
24052WAT      O72397   3.221   9.462   6.137
24052WAT     H172398   3.152   9.393   6.159
24052WAT     H272399   3.192   9.551   6.174
24053WAT      O72400   2.981   5.819   3.044
24053WAT     H172401   3.035   5.743   3.078
24053WAT     H272402   2.945   5.797   2.953
24054WAT      O72403   5.644   2.774   9.243
24054WAT     H172404   5.591   2.734   9.168
24054WAT     H272405   5.633   2.873   9.242
24055WAT      O72406   1.215   9.638   5.155
24055WAT     H172407   1.300   9.604   5.117
24055WAT     H272408   1.181   9.574   5.224
24056WAT      O72409   4.192   2.814   0.063
24056WAT     H172410   4.176   2.892   0.003
24056WAT     H272411   4.215   2.847   0.155
24057WAT      O72412   8.751   9.665   5.175
24057WAT     H172413   8.766   9.607   5.255
24057WAT     H272414   8.692   9.742   5.199
24058WAT      O72415   6.964   3.266   2.283
24058WAT     H172416   6.920   3.351   2.255
24058WAT     H272417   7.063   3.280   2.289
24059WAT      O72418   7.372   4.241   4.341
24059WAT     H172419   7.417   4.152   4.348
24059WAT     H272420   7.440   4.314   4.353
24060WAT      O72421   1.031   5.991   3.847
24060WAT     H172422   1.085   6.071   3.821
24060WAT     H272423   1.022   5.930   3.769
24061WAT      O72424   5.506   2.686   1.335
24061WAT     H172425   5.494   2.646   1.425
24061WAT     H272426   5.554   2.774   1.343
24062WAT      O72427   1.714   2.315   3.590
24062WAT     H172428   1.778   2.361   3.528
24062WAT     H272429   1.751   2.315   3.682
24063WAT      O72430   0.143   3.722   5.304
24063WAT     H172431   0.149   3.701   5.402
24063WAT     H272432   0.165   3.640   5.251
24064WAT      O72433   0.574   0.785   4.627
24064WAT     H172434   0.645   0.718   4.647
24064WAT     H272435   0.609   0.852   4.561
24065WAT      O72436   3.393   9.006   2.873
24065WAT     H172437   3.312   8.972   2.825
24065WAT     H272438   3.432   9.083   2.824
24066WAT      O72439   0.716   4.196   9.375
24066WAT     H172440   0.664   4.259   9.316
24066WAT     H272441   0.810   4.188   9.339
24067WAT      O72442   9.316   8.012   8.588
24067WAT     H172443   9.286   8.105   8.566
24067WAT     H272444   9.413   8.013   8.611
24068WAT      O72445   5.067   4.026   0.128
24068WAT     H172446   5.105   3.937   0.103
24068WAT     H272447   5.125   4.069   0.197
24069WAT      O72448   7.391   2.873   6.352
24069WAT     H172449   7.351   2.959   6.383
24069WAT     H272450   7.490   2.883   6.344
24070WAT      O72451   1.700   8.456   2.330
24070WAT     H172452   1.650   8.459   2.243
24070WAT     H272453   1.773   8.524   2.328
24071WAT      O72454   8.272   2.671   0.332
24071WAT     H172455   8.230   2.608   0.397
24071WAT     H272456   8.325   2.740   0.381
24072WAT      O72457   6.681   1.010   7.185
24072WAT     H172458   6.765   1.005   7.131
24072WAT     H272459   6.688   1.085   7.251
24073WAT      O72460   2.486   2.006   6.266
24073WAT     H172461   2.409   1.970   6.319
24073WAT     H272462   2.570   1.998   6.319
24074WAT      O72463   8.273   2.967   2.814
24074WAT     H172464   8.259   3.059   2.849
24074WAT     H272465   8.280   2.902   2.890
24075WAT      O72466   1.794   3.353   8.148
24075WAT     H172467   1.776   3.341   8.246
24075WAT     H272468   1.714   3.395   8.105
24076WAT      O72469   6.284   0.343   4.947
24076WAT     H172470   6.200   0.298   4.978
24076WAT     H272471   6.282   0.439   4.974
24077WAT      O72472   4.325   6.018   8.589
24077WAT     H172473   4.315   6.043   8.493
24077WAT     H272474   4.387   6.083   8.634
24078WAT      O72475   0.444   3.634   4.993
24078WAT     H172476   0.513   3.563   4.982
24078WAT     H272477   0.474   3.701   5.061
24079WAT      O72478   5.905   6.181   8.452
24079WAT     H172479   5.958   6.123   8.390
24079WAT     H272480   5.812   6.191   8.417
24080WAT      O72481   9.755   9.378   4.132
24080WAT     H172482   9.704   9.459   4.162
24080WAT     H272483   9.702   9.296   4.152
24081WAT      O72484   0.270   9.384   3.235
24081WAT     H172485   0.323   9.397   3.152
24081WAT     H272486   0.267   9.287   3.259
24082WAT      O72487   6.185   1.799   7.966
24082WAT     H172488   6.097   1.847   7.960
24082WAT     H272489   6.259   1.866   7.961
24083WAT      O72490   5.933   5.437   8.871
24083WAT     H172491   5.854   5.398   8.823
24083WAT     H272492   6.006   5.454   8.805
24084WAT      O72493   1.419   7.205   0.389
24084WAT     H172494   1.420   7.300   0.358
24084WAT     H272495   1.371   7.148   0.322
24085WAT      O72496   6.513   0.687   2.944
24085WAT     H172497   6.505   0.668   3.042
24085WAT     H272498   6.428   0.729   2.912
24086WAT      O72499   4.779   6.036   6.128
24086WAT     H172500   4.710   6.028   6.056
24086WAT     H272501   4.832   5.952   6.132
24087WAT      O72502   5.247   0.685   4.918
24087WAT     H172503   5.226   0.740   4.999
24087WAT     H272504   5.282   0.745   4.845
24088WAT      O72505   1.261   1.825   8.321
24088WAT     H172506   1.295   1.899   8.379
24088WAT     H272507   1.242   1.861   8.229
24089WAT      O72508   3.431   3.210   1.165
24089WAT     H172509   3.355   3.176   1.109
24089WAT     H272510   3.486   3.133   1.196
24090WAT      O72511   4.651   1.216   0.725
24090WAT     H172512   4.612   1.189   0.813
24090WAT     H272513   4.605   1.167   0.651
24091WAT      O72514   4.006   7.969   4.069
24091WAT     H172515   4.099   7.934   4.054
24091WAT     H272516   3.941   7.910   4.022
24092WAT      O72517   7.061   5.503   9.367
24092WAT     H172518   7.046   5.416   9.320
24092WAT     H272519   7.116   5.563   9.309
24093WAT      O72520   8.054   6.387   2.059
24093WAT     H172521   8.123   6.418   1.994
24093WAT     H272522   8.075   6.424   2.150
24094WAT      O72523   9.495   2.781   5.931
24094WAT     H172524   9.399   2.780   5.905
24094WAT     H272525   9.539   2.865   5.898
24095WAT      O72526   9.695   7.718   3.543
24095WAT     H172527   9.760   7.780   3.587
24095WAT     H272528   9.603   7.753   3.554
24096WAT      O72529   7.628   6.432   3.990
24096WAT     H172530   7.561   6.459   4.060
24096WAT     H272531   7.714   6.407   4.035
24097WAT      O72532   5.699   3.075   5.353
24097WAT     H172533   5.701   3.096   5.450
24097WAT     H272534   5.652   2.987   5.338
24098WAT      O72535   5.902   7.219   5.851
24098WAT     H172536   5.859   7.188   5.766
24098WAT     H272537   6.002   7.217   5.840
24099WAT      O72538   8.094   4.593   9.461
24099WAT     H172539   8.003   4.575   9.424
24099WAT     H272540   8.106   4.542   9.546
24100WAT      O72541   9.159   6.459   5.891
24100WAT     H172542   9.063   6.483   5.909
24100WAT     H272543   9.168   6.430   5.796
24101WAT      O72544   3.439   0.397   8.972
24101WAT     H172545   3.398   0.356   9.054
24101WAT     H272546   3.405   0.490   8.960
24102WAT      O72547   4.313   5.830   0.542
24102WAT     H172548   4.319   5.799   0.637
24102WAT     H272549   4.229   5.882   0.529
24103WAT      O72550   8.818   3.838   8.889
24103WAT     H172551   8.900   3.860   8.836
24103WAT     H272552   8.745   3.903   8.869
24104WAT      O72553   0.601   6.364   7.652
24104WAT     H172554   0.679   6.413   7.691
24104WAT     H272555   0.634   6.289   7.595
24105WAT      O72556   6.552   6.468   0.815
24105WAT     H172557   6.497   6.391   0.784
24105WAT     H272558   6.646   6.439   0.829
24106WAT      O72559   0.477   1.076   8.495
24106WAT     H172560   0.527   1.162   8.501
24106WAT     H272561   0.419   1.076   8.413
24107WAT      O72562   2.346   1.686   8.231
24107WAT     H172563   2.431   1.689   8.178
24107WAT     H272564   2.276   1.740   8.184
24108WAT      O72565   7.861   3.944   1.992
24108WAT     H172566   7.821   3.855   1.972
24108WAT     H272567   7.838   4.009   1.920
24109WAT      O72568   4.604   7.292   3.764
24109WAT     H172569   4.510   7.258   3.777
24109WAT     H272570   4.602   7.392   3.755
24110WAT      O72571   6.914   4.505   5.725
24110WAT     H172572   6.873   4.419   5.753
24110WAT     H272573   6.862   4.545   5.650
24111WAT      O72574   2.723   4.254   4.325
24111WAT     H172575   2.720   4.337   4.379
24111WAT     H272576   2.780   4.269   4.244
24112WAT      O72577   6.344   8.664   0.628
24112WAT     H172578   6.373   8.569   0.632
24112WAT     H272579   6.398   8.713   0.559
24113WAT      O72580   9.002   5.941   3.027
24113WAT     H172581   9.008   6.010   2.955
24113WAT     H272582   9.065   5.965   3.101
24114WAT      O72583   1.044   9.455   6.260
24114WAT     H172584   1.139   9.469   6.233
24114WAT     H272585   1.010   9.370   6.221
24115WAT      O72586   7.534   2.640   6.073
24115WAT     H172587   7.437   2.631   6.093
24115WAT     H272588   7.551   2.616   5.977
24116WAT      O72589   5.375   3.370   7.417
24116WAT     H172590   5.295   3.430   7.426
24116WAT     H272591   5.414   3.379   7.325
24117WAT      O72592   4.215   2.392   7.070
24117WAT     H172593   4.243   2.421   6.978
24117WAT     H272594   4.168   2.467   7.116
24118WAT      O72595   9.822   7.041   7.720
24118WAT     H172596   9.727   7.067   7.701
24118WAT     H272597   9.836   6.945   7.696
24119WAT      O72598   2.578   7.767   7.363
24119WAT     H172599   2.677   7.759   7.354
24119WAT     H272600   2.545   7.846   7.312
24120WAT      O72601   0.245   7.882   3.446
24120WAT     H172602   0.307   7.908   3.520
24120WAT     H272603   0.280   7.800   3.400
24121WAT      O72604   3.766   7.749   4.234
24121WAT     H172605   3.824   7.828   4.255
24121WAT     H272606   3.791   7.713   4.144
24122WAT      O72607   3.470   1.836   1.071
24122WAT     H172608   3.534   1.904   1.105
24122WAT     H272609   3.506   1.745   1.088
24123WAT      O72610   6.340   1.559   1.642
24123WAT     H172611   6.313   1.463   1.649
24123WAT     H272612   6.321   1.592   1.550
24124WAT      O72613   5.125   4.173   6.293
24124WAT     H172614   5.130   4.227   6.208
24124WAT     H272615   5.186   4.094   6.286
24125WAT      O72616   3.568   5.614   6.605
24125WAT     H172617   3.503   5.598   6.679
24125WAT     H272618   3.638   5.542   6.608
24126WAT      O72619   1.021   2.208   5.857
24126WAT     H172620   1.006   2.118   5.816
24126WAT     H272621   1.110   2.208   5.903
24127WAT      O72622   4.599   8.865   3.457
24127WAT     H172623   4.627   8.936   3.392
24127WAT     H272624   4.526   8.900   3.515
24128WAT      O72625   4.023   1.805   9.223
24128WAT     H172626   4.065   1.814   9.313
24128WAT     H272627   3.942   1.864   9.218
24129WAT      O72628   5.423   5.287   8.618
24129WAT     H172629   5.453   5.289   8.713
24129WAT     H272630   5.357   5.361   8.603
24130WAT      O72631   6.432   2.053   6.001
24130WAT     H172632   6.522   2.095   5.994
24130WAT     H272633   6.363   2.115   5.964
24131WAT      O72634   8.064   4.910   9.463
24131WAT     H172635   7.992   4.843   9.482
24131WAT     H272636   8.146   4.886   9.514
24132WAT      O72637   8.878   7.962   2.938
24132WAT     H172638   8.931   8.038   2.903
24132WAT     H272639   8.800   7.997   2.991
24133WAT      O72640   0.454   9.222   9.427
24133WAT     H172641   0.441   9.169   9.511
24133WAT     H272642   0.463   9.319   9.450
24134WAT      O72643   5.627   3.831   6.408
24134WAT     H172644   5.668   3.918   6.382
24134WAT     H272645   5.615   3.774   6.327
24135WAT      O72646   0.211   0.351   8.633
24135WAT     H172647   0.207   0.343   8.533
24135WAT     H272648   0.122   0.380   8.667
24136WAT      O72649   6.435   7.016   0.628
24136WAT     H172650   6.460   7.066   0.545
24136WAT     H272651   6.452   6.918   0.614
24137WAT      O72652   7.998   1.400   4.172
24137WAT     H172653   7.920   1.459   4.154
24137WAT     H272654   8.078   1.433   4.122
24138WAT      O72655   2.551   6.923   1.492
24138WAT     H172656   2.601   7.010   1.495
24138WAT     H272657   2.486   6.919   1.567
24139WAT      O72658   0.432   4.260   5.938
24139WAT     H172659   0.529   4.267   5.915
24139WAT     H272660   0.405   4.164   5.941
24140WAT      O72661   1.581   6.516   7.022
24140WAT     H172662   1.656   6.565   6.978
24140WAT     H272663   1.500   6.575   7.024
24141WAT      O72664   2.749   2.199   4.864
24141WAT     H172665   2.810   2.267   4.823
24141WAT     H272666   2.684   2.245   4.924
24142WAT      O72667   1.655   9.341   0.294
24142WAT     H172668   1.697   9.430   0.313
24142WAT     H272669   1.637   9.293   0.380
24143WAT      O72670   7.879   7.565   8.693
24143WAT     H172671   7.958   7.517   8.655
24143WAT     H272672   7.834   7.618   8.621
24144WAT      O72673   6.686   9.705   6.136
24144WAT     H172674   6.673   9.781   6.199
24144WAT     H272675   6.597   9.676   6.100
24145WAT      O72676   1.756   8.213   7.902
24145WAT     H172677   1.735   8.116   7.904
24145WAT     H272678   1.801   8.240   7.987
24146WAT      O72679   7.749   7.865   7.846
24146WAT     H172680   7.743   7.922   7.928
24146WAT     H272681   7.677   7.890   7.782
24147WAT      O72682   3.651   2.303   4.210
24147WAT     H172683   3.730   2.364   4.198
24147WAT     H272684   3.670   2.238   4.283
24148WAT      O72685   8.517   2.774   4.204
24148WAT     H172686   8.512   2.674   4.197
24148WAT     H272687   8.539   2.812   4.114
24149WAT      O72688   4.452   9.184   1.004
24149WAT     H172689   4.403   9.097   0.998
24149WAT     H272690   4.403   9.253   0.951
24150WAT      O72691   4.891   5.687   3.880
24150WAT     H172692   4.878   5.603   3.933
24150WAT     H272693   4.965   5.740   3.920
24151WAT      O72694   0.500   4.312   2.659
24151WAT     H172695   0.439   4.257   2.602
24151WAT     H272696   0.591   4.314   2.618
24152WAT      O72697   9.069   2.350   1.314
24152WAT     H172698   9.096   2.419   1.382
24152WAT     H272699   9.145   2.334   1.251
24153WAT      O72700   3.084   1.280   4.129
24153WAT     H172701   3.106   1.186   4.155
24153WAT     H272702   2.985   1.290   4.121
24154WAT      O72703   2.867   2.724   0.071
24154WAT     H172704   2.962   2.752   0.057
24154WAT     H272705   2.854   2.630   0.040
24155WAT      O72706   1.357   8.207   5.664
24155WAT     H172707   1.288   8.211   5.736
24155WAT     H272708   1.419   8.285   5.673
24156WAT      O72709   4.269   8.829   2.564
24156WAT     H172710   4.180   8.867   2.591
24156WAT     H272711   4.321   8.898   2.514
24157WAT      O72712   0.760   8.564   6.076
24157WAT     H172713   0.833   8.586   6.141
24157WAT     H272714   0.770   8.620   5.994
24158WAT      O72715   8.653   5.110   3.913
24158WAT     H172716   8.596   5.183   3.951
24158WAT     H272717   8.714   5.076   3.984
24159WAT      O72718   2.898   2.443   8.015
24159WAT     H172719   2.871   2.349   8.038
24159WAT     H272720   2.970   2.473   8.077
24160WAT      O72721   4.109   3.940   6.028
24160WAT     H172722   4.014   3.922   6.052
24160WAT     H272723   4.158   3.854   6.018
24161WAT      O72724   7.594   7.949   4.815
24161WAT     H172725   7.539   8.033   4.815
24161WAT     H272726   7.685   7.970   4.777
24162WAT      O72727   1.779   9.118   3.812
24162WAT     H172728   1.722   9.156   3.885
24162WAT     H272729   1.724   9.108   3.729
24163WAT      O72730   6.173   3.826   1.019
24163WAT     H172731   6.202   3.875   0.936
24163WAT     H272732   6.251   3.815   1.080
24164WAT      O72733   2.099   6.440   7.083
24164WAT     H172734   2.045   6.442   6.998
24164WAT     H272735   2.083   6.353   7.130
24165WAT      O72736   8.763   5.240   4.326
24165WAT     H172737   8.841   5.215   4.384
24165WAT     H272738   8.687   5.268   4.385
24166WAT      O72739   3.892   5.846   2.545
24166WAT     H172740   3.822   5.801   2.491
24166WAT     H272741   3.882   5.820   2.641
24167WAT      O72742   4.242   3.628   3.284
24167WAT     H172743   4.215   3.559   3.216
24167WAT     H272744   4.174   3.701   3.287
24168WAT      O72745   2.483   4.632   0.478
24168WAT     H172746   2.525   4.547   0.510
24168WAT     H272747   2.439   4.616   0.389
24169WAT      O72748   1.189   6.878   2.361
24169WAT     H172749   1.169   6.824   2.279
24169WAT     H272750   1.154   6.831   2.442
24170WAT      O72751   8.129   5.904   2.429
24170WAT     H172752   8.147   5.846   2.508
24170WAT     H272753   8.042   5.877   2.387
24171WAT      O72754   9.120   5.233   1.035
24171WAT     H172755   9.065   5.173   0.977
24171WAT     H272756   9.068   5.258   1.117
24172WAT      O72757   9.638   0.879   0.075
24172WAT     H172758   9.669   0.797   0.027
24172WAT     H272759   9.708   0.909   0.139
24173WAT      O72760   4.620   7.721   6.225
24173WAT     H172761   4.643   7.818   6.215
24173WAT     H272762   4.645   7.672   6.141
24174WAT      O72763   1.659   4.599   4.015
24174WAT     H172764   1.641   4.682   4.068
24174WAT     H272765   1.696   4.528   4.075
24175WAT      O72766   6.802   9.742   6.521
24175WAT     H172767   6.886   9.763   6.569
24175WAT     H272768   6.816   9.662   6.462
24176WAT      O72769   6.145   8.857   0.555
24176WAT     H172770   6.199   8.940   0.566
24176WAT     H272771   6.194   8.780   0.597
24177WAT      O72772   4.464   2.088   6.579
24177WAT     H172773   4.397   2.041   6.522
24177WAT     H272774   4.442   2.074   6.675
24178WAT      O72775   8.991   9.302   5.178
24178WAT     H172776   9.056   9.242   5.131
24178WAT     H272777   9.002   9.396   5.146
24179WAT      O72778   5.049   1.817   7.496
24179WAT     H172779   5.084   1.825   7.589
24179WAT     H272780   5.085   1.735   7.453
24180WAT      O72781   6.074   9.145   4.346
24180WAT     H172782   6.167   9.127   4.378
24180WAT     H272783   6.054   9.243   4.353
24181WAT      O72784   1.548   0.652   7.243
24181WAT     H172785   1.568   0.742   7.282
24181WAT     H272786   1.488   0.602   7.305
24182WAT      O72787   8.001   6.850   6.412
24182WAT     H172788   7.998   6.789   6.333
24182WAT     H272789   7.982   6.799   6.496
24183WAT      O72790   7.984   7.855   1.736
24183WAT     H172791   7.905   7.913   1.753
24183WAT     H272792   7.964   7.794   1.659
24184WAT      O72793   0.537   7.274   1.722
24184WAT     H172794   0.502   7.353   1.672
24184WAT     H272795   0.633   7.260   1.698
24185WAT      O72796   8.165   5.794   2.687
24185WAT     H172797   8.074   5.816   2.723
24185WAT     H272798   8.226   5.871   2.703
24186WAT      O72799   8.596   3.907   4.146
24186WAT     H172800   8.523   3.931   4.082
24186WAT     H272801   8.557   3.875   4.232
24187WAT      O72802   9.190   3.699   7.493
24187WAT     H172803   9.155   3.746   7.412
24187WAT     H272804   9.116   3.686   7.559
24188WAT      O72805   7.211   6.134   2.953
24188WAT     H172806   7.286   6.068   2.944
24188WAT     H272807   7.161   6.115   3.038
24189WAT      O72808   0.697   7.941   9.511
24189WAT     H172809   0.769   7.913   9.448
24189WAT     H272810   0.694   8.041   9.517
24190WAT      O72811   8.597   8.310   1.777
24190WAT     H172812   8.627   8.322   1.872
24190WAT     H272813   8.644   8.377   1.719
24191WAT      O72814   4.213   5.581   7.992
24191WAT     H172815   4.170   5.520   8.059
24191WAT     H272816   4.144   5.615   7.928
24192WAT      O72817   5.746   8.348   0.038
24192WAT     H172818   5.759   8.264  -0.015
24192WAT     H272819   5.674   8.334   0.105
24193WAT      O72820   2.248   6.137   8.105
24193WAT     H172821   2.282   6.218   8.056
24193WAT     H272822   2.288   6.134   8.196
24194WAT      O72823   6.959   3.567   7.974
24194WAT     H172824   7.055   3.593   7.989
24194WAT     H272825   6.942   3.559   7.876
24195WAT      O72826   4.022   4.718   0.977
24195WAT     H172827   4.021   4.696   1.074
24195WAT     H272828   4.009   4.635   0.923
24196WAT      O72829   3.553   2.049   9.184
24196WAT     H172830   3.594   2.116   9.122
24196WAT     H272831   3.625   2.004   9.236
24197WAT      O72832   5.488   8.120   6.246
24197WAT     H172833   5.527   8.040   6.201
24197WAT     H272834   5.488   8.197   6.183
24198WAT      O72835   9.497   1.843   2.332
24198WAT     H172836   9.521   1.920   2.391
24198WAT     H272837   9.429   1.786   2.378
24199WAT      O72838   6.770   3.695   6.955
24199WAT     H172839   6.694   3.706   7.019
24199WAT     H272840   6.791   3.784   6.913
24200WAT      O72841   7.414   6.299   4.323
24200WAT     H172842   7.350   6.241   4.271
24200WAT     H272843   7.467   6.355   4.259
24201WAT      O72844   5.264   7.818   7.512
24201WAT     H172845   5.348   7.855   7.472
24201WAT     H272846   5.203   7.788   7.439
24202WAT      O72847   7.307   2.507   6.235
24202WAT     H172848   7.273   2.415   6.250
24202WAT     H272849   7.236   2.563   6.193
24203WAT      O72850   3.379   7.203   9.092
24203WAT     H172851   3.282   7.203   9.068
24203WAT     H272852   3.433   7.237   9.015
24204WAT      O72853   4.406   3.151   1.795
24204WAT     H172854   4.430   3.248   1.800
24204WAT     H272855   4.307   3.141   1.798
24205WAT      O72856   3.473   2.334   3.530
24205WAT     H172857   3.570   2.341   3.509
24205WAT     H272858   3.456   2.248   3.578
24206WAT      O72859   4.459   9.406   0.563
24206WAT     H172860   4.474   9.312   0.594
24206WAT     H272861   4.361   9.427   0.571
24207WAT      O72862   0.062   2.800   9.092
24207WAT     H172863   0.007   2.883   9.083
24207WAT     H272864   0.051   2.762   9.183
24208WAT      O72865   5.599   2.089   9.186
24208WAT     H172866   5.594   2.035   9.270
24208WAT     H272867   5.577   2.184   9.206
24209WAT      O72868   5.539   7.600   4.918
24209WAT     H172869   5.639   7.598   4.916
24209WAT     H272870   5.504   7.508   4.897
24210WAT      O72871   6.679   2.774   1.416
24210WAT     H172872   6.665   2.873   1.412
24210WAT     H272873   6.776   2.754   1.401
24211WAT      O72874   4.156   9.154   4.592
24211WAT     H172875   4.152   9.119   4.498
24211WAT     H272876   4.190   9.082   4.653
24212WAT      O72877   7.421   7.335   7.529
24212WAT     H172878   7.450   7.331   7.434
24212WAT     H272879   7.339   7.279   7.542
24213WAT      O72880   3.710   2.049   1.591
24213WAT     H172881   3.616   2.080   1.609
24213WAT     H272882   3.726   1.962   1.638
24214WAT      O72883   3.025   2.807   3.117
24214WAT     H172884   2.950   2.753   3.154
24214WAT     H272885   2.992   2.897   3.089
24215WAT      O72886   8.805   3.423   0.521
24215WAT     H172887   8.842   3.334   0.547
24215WAT     H272888   8.865   3.466   0.453
24216WAT      O72889   1.872   4.714   0.950
24216WAT     H172890   1.838   4.698   1.043
24216WAT     H272891   1.875   4.812   0.932
24217WAT      O72892   7.768   9.673   4.744
24217WAT     H172893   7.794   9.667   4.648
24217WAT     H272894   7.849   9.669   4.802
24218WAT      O72895   8.898   7.537   6.980
24218WAT     H172896   8.829   7.556   6.910
24218WAT     H272897   8.886   7.444   7.014
24219WAT      O72898   7.081   0.833   6.454
24219WAT     H172899   7.147   0.828   6.529
24219WAT     H272900   6.989   0.849   6.491
24220WAT      O72901   7.076   1.035   7.720
24220WAT     H172902   7.034   1.126   7.715
24220WAT     H272903   7.079   0.996   7.628
24221WAT      O72904   8.364   6.311   7.238
24221WAT     H172905   8.295   6.247   7.271
24221WAT     H272906   8.341   6.341   7.146
24222WAT      O72907   2.593   0.602   1.565
24222WAT     H172908   2.574   0.681   1.623
24222WAT     H272909   2.619   0.524   1.622
24223WAT      O72910   7.419   9.811   6.883
24223WAT     H172911   7.436   9.772   6.793
24223WAT     H272912   7.418   9.911   6.877
24224WAT      O72913   6.188   7.270   3.197
24224WAT     H172914   6.275   7.229   3.224
24224WAT     H272915   6.114   7.232   3.253
24225WAT      O72916   5.994   1.206   0.460
24225WAT     H172917   5.901   1.236   0.440
24225WAT     H272918   6.017   1.232   0.554
24226WAT      O72919   1.843   8.533   9.818
24226WAT     H172920   1.928   8.493   9.785
24226WAT     H272921   1.822   8.615   9.764
24227WAT      O72922   5.960   1.795   3.266
24227WAT     H172923   6.043   1.741   3.253
24227WAT     H272924   5.897   1.747   3.327
24228WAT      O72925   6.466   1.229   1.310
24228WAT     H172926   6.375   1.237   1.270
24228WAT     H272927   6.474   1.142   1.359
24229WAT      O72928   4.360   7.579   1.065
24229WAT     H172929   4.347   7.509   1.135
24229WAT     H272930   4.414   7.654   1.103
24230WAT      O72931   5.665   9.299   5.679
24230WAT     H172932   5.732   9.229   5.655
24230WAT     H272933   5.693   9.345   5.763
24231WAT      O72934   6.486   6.415   0.412
24231WAT     H172935   6.407   6.406   0.351
24231WAT     H272936   6.570   6.394   0.361
24232WAT      O72937   1.209   3.547   6.022
24232WAT     H172938   1.134   3.613   6.031
24232WAT     H272939   1.248   3.529   6.112
24233WAT      O72940   0.546   6.944   9.305
24233WAT     H172941   0.455   6.985   9.305
24233WAT     H272942   0.613   7.011   9.337
24234WAT      O72943   8.523   7.503   7.455
24234WAT     H172944   8.615   7.525   7.423
24234WAT     H272945   8.498   7.412   7.423
24235WAT      O72946   4.912   8.643   8.013
24235WAT     H172947   4.851   8.710   8.056
24235WAT     H272948   4.896   8.642   7.914
24236WAT      O72949   4.597   2.658   6.577
24236WAT     H172950   4.595   2.758   6.584
24236WAT     H272951   4.664   2.622   6.642
24237WAT      O72952   5.277   1.493   1.991
24237WAT     H172953   5.287   1.400   2.026
24237WAT     H272954   5.361   1.545   2.010
24238WAT      O72955   4.348   4.907   1.413
24238WAT     H172956   4.355   4.843   1.336
24238WAT     H272957   4.253   4.935   1.424
24239WAT      O72958   1.109   5.606   7.077
24239WAT     H172959   1.178   5.618   7.147
24239WAT     H272960   1.151   5.615   6.986
24240WAT      O72961   2.234   7.304   1.290
24240WAT     H172962   2.289   7.257   1.221
24240WAT     H272963   2.179   7.237   1.340
24241WAT      O72964   9.825   3.529   5.656
24241WAT     H172965   9.847   3.461   5.726
24241WAT     H272966   9.761   3.596   5.695
24242WAT      O72967   3.782   1.151   2.661
24242WAT     H172968   3.718   1.074   2.657
24242WAT     H272969   3.872   1.117   2.689
24243WAT      O72970   6.844   0.508   1.394
24243WAT     H172971   6.797   0.552   1.317
24243WAT     H272972   6.821   0.411   1.396
24244WAT      O72973   7.270   8.205   5.044
24244WAT     H172974   7.246   8.227   5.139
24244WAT     H272975   7.259   8.288   4.988
24245WAT      O72976   4.211   2.467   5.293
24245WAT     H172977   4.155   2.540   5.253
24245WAT     H272978   4.260   2.503   5.373
24246WAT      O72979   0.995   0.148   5.372
24246WAT     H172980   1.077   0.201   5.352
24246WAT     H272981   1.000   0.110   5.464
24247WAT      O72982   8.131   1.374   8.270
24247WAT     H172983   8.077   1.309   8.324
24247WAT     H272984   8.168   1.328   8.190
24248WAT      O72985   7.669   8.256   3.577
24248WAT     H172986   7.649   8.238   3.480
24248WAT     H272987   7.586   8.292   3.621
24249WAT      O72988   7.976   6.212   7.002
24249WAT     H172989   8.050   6.188   6.939
24249WAT     H272990   7.932   6.296   6.971
24250WAT      O72991   4.922   3.710   5.378
24250WAT     H172992   4.868   3.774   5.324
24250WAT     H272993   5.015   3.706   5.342
24251WAT      O72994   5.595   6.992   0.900
24251WAT     H172995   5.498   6.998   0.878
24251WAT     H272996   5.647   7.046   0.833
24252WAT      O72997   9.179   6.441   2.313
24252WAT     H172998   9.166   6.479   2.404
24252WAT     H272999   9.276   6.444   2.289
24253WAT      O73000   4.642   0.298   9.830
24253WAT     H173001   4.588   0.258   9.757
24253WAT     H273002   4.729   0.250   9.838
24254WAT      O73003   0.326   2.527   9.265
24254WAT     H173004   0.273   2.479   9.195
24254WAT     H273005   0.278   2.610   9.293
24255WAT      O73006   6.968   9.178   3.665
24255WAT     H173007   6.952   9.172   3.567
24255WAT     H273008   7.013   9.094   3.696
24256WAT      O73009   8.001   6.632   9.400
24256WAT     H173010   8.048   6.691   9.334
24256WAT     H273011   7.969   6.688   9.477
24257WAT      O73012   8.012   2.284   6.534
24257WAT     H173013   8.100   2.317   6.498
24257WAT     H273014   7.942   2.296   6.464
24258WAT      O73015   1.419   6.905   4.813
24258WAT     H173016   1.366   6.985   4.786
24258WAT     H273017   1.504   6.935   4.857
24259WAT      O73018   6.771   9.390   6.837
24259WAT     H173019   6.762   9.332   6.918
24259WAT     H273020   6.681   9.401   6.794
24260WAT      O73021   5.877   1.586   4.853
24260WAT     H173022   5.918   1.531   4.781
24260WAT     H273023   5.778   1.591   4.839
24261WAT      O73024   6.657   7.831   0.112
24261WAT     H173025   6.586   7.814   0.043
24261WAT     H273026   6.709   7.747   0.128
24262WAT      O73027   6.825   1.678   7.485
24262WAT     H173028   6.903   1.733   7.454
24262WAT     H273029   6.744   1.702   7.432
24263WAT      O73030   8.663   4.134   0.719
24263WAT     H173031   8.584   4.181   0.757
24263WAT     H273032   8.662   4.038   0.747
24264WAT      O73033   1.339   4.879   1.314
24264WAT     H173034   1.295   4.796   1.280
24264WAT     H273035   1.277   4.926   1.377
24265WAT      O73036   2.202   1.419   7.857
24265WAT     H173037   2.121   1.360   7.858
24265WAT     H273038   2.248   1.410   7.769
24266WAT      O73039   8.842   1.148   8.470
24266WAT     H173040   8.753   1.164   8.428
24266WAT     H273041   8.904   1.222   8.444
24267WAT      O73042   1.271   4.434   5.093
24267WAT     H173043   1.188   4.477   5.059
24267WAT     H273044   1.344   4.502   5.096
24268WAT      O73045   3.160   7.481   3.877
24268WAT     H173046   3.154   7.494   3.778
24268WAT     H273047   3.138   7.567   3.922
24269WAT      O73048   3.736   7.798   0.320
24269WAT     H173049   3.644   7.767   0.296
24269WAT     H273050   3.787   7.821   0.237
24270WAT      O73051   1.729   5.143   0.314
24270WAT     H173052   1.748   5.198   0.394
24270WAT     H273053   1.716   5.047   0.341
24271WAT      O73054   5.046   6.490   1.806
24271WAT     H173055   5.059   6.443   1.718
24271WAT     H273056   4.952   6.475   1.837
24272WAT      O73057   3.336   2.680   0.766
24272WAT     H173058   3.259   2.617   0.764
24272WAT     H273059   3.403   2.654   0.696
24273WAT      O73060   0.534   2.984   7.638
24273WAT     H173061   0.502   3.027   7.553
24273WAT     H273062   0.505   3.039   7.716
24274WAT      O73063   1.021   7.240   5.894
24274WAT     H173064   1.082   7.300   5.946
24274WAT     H273065   1.072   7.196   5.820
24275WAT      O73066   8.676   8.749   0.684
24275WAT     H173067   8.759   8.782   0.731
24275WAT     H273068   8.596   8.791   0.726
24276WAT      O73069   3.436   5.603   5.968
24276WAT     H173070   3.500   5.645   6.032
24276WAT     H273071   3.376   5.540   6.019
24277WAT      O73072   1.624   6.293   3.574
24277WAT     H173073   1.669   6.313   3.661
24277WAT     H273074   1.563   6.214   3.586
24278WAT      O73075   6.859   2.932   7.701
24278WAT     H173076   6.777   2.883   7.731
24278WAT     H273077   6.933   2.867   7.683
24279WAT      O73078   9.695   4.373   9.657
24279WAT     H173079   9.627   4.314   9.613
24279WAT     H273080   9.655   4.464   9.673
24280WAT      O73081   0.216   1.660   3.709
24280WAT     H173082   0.310   1.637   3.737
24280WAT     H273083   0.216   1.751   3.668
24281WAT      O73084   3.583   0.936   5.063
24281WAT     H173085   3.594   0.839   5.040
24281WAT     H273086   3.533   0.983   4.990
24282WAT      O73087   4.776   1.940   6.512
24282WAT     H173088   4.721   2.009   6.466
24282WAT     H273089   4.860   1.982   6.548
24283WAT      O73090   0.987   5.373   8.665
24283WAT     H173091   1.010   5.470   8.658
24283WAT     H273092   0.940   5.344   8.581
24284WAT      O73093   4.190   7.179   6.690
24284WAT     H173094   4.140   7.162   6.605
24284WAT     H273095   4.256   7.106   6.705
24285WAT      O73096   2.603   4.015   1.922
24285WAT     H173097   2.573   4.049   2.011
24285WAT     H273098   2.532   4.031   1.854
24286WAT      O73099   4.248   5.619   9.792
24286WAT     H173100   4.303   5.604   9.874
24286WAT     H273101   4.261   5.543   9.728
24287WAT      O73102   6.350   8.145   3.117
24287WAT     H173103   6.271   8.202   3.139
24287WAT     H273104   6.366   8.079   3.191
24288WAT      O73105   6.367   0.814   4.689
24288WAT     H173106   6.268   0.827   4.695
24288WAT     H273107   6.389   0.772   4.601
24289WAT      O73108   3.699   6.005   7.653
24289WAT     H173109   3.708   6.027   7.556
24289WAT     H273110   3.607   6.030   7.684
24290WAT      O73111   5.980   7.187   3.367
24290WAT     H173112   5.943   7.279   3.356
24290WAT     H273113   5.905   7.121   3.373
24291WAT      O73114   6.118   2.626   0.579
24291WAT     H173115   6.102   2.530   0.554
24291WAT     H273116   6.032   2.668   0.607
24292WAT      O73117   8.419   5.679   5.231
24292WAT     H173118   8.419   5.776   5.209
24292WAT     H273119   8.513   5.649   5.248
24293WAT      O73120   0.629   0.700   7.704
24293WAT     H173121   0.698   0.745   7.761
24293WAT     H273122   0.602   0.615   7.748
24294WAT      O73123   2.446   5.529   0.033
24294WAT     H173124   2.412   5.622   0.022
24294WAT     H273125   2.528   5.530   0.090
24295WAT      O73126   5.219   0.109   0.740
24295WAT     H173127   5.259   0.052   0.668
24295WAT     H273128   5.242   0.205   0.724
24296WAT      O73129   2.137   1.523   4.736
24296WAT     H173130   2.175   1.613   4.755
24296WAT     H273131   2.174   1.456   4.800
24297WAT      O73132   3.570   4.516   6.242
24297WAT     H173133   3.654   4.543   6.195
24297WAT     H273134   3.491   4.534   6.182
24298WAT      O73135   3.757   6.491   8.646
24298WAT     H173136   3.709   6.459   8.727
24298WAT     H273137   3.816   6.569   8.670
24299WAT      O73138   1.935   2.061   8.064
24299WAT     H173139   2.031   2.089   8.064
24299WAT     H273140   1.930   1.962   8.052
24300WAT      O73141   7.225   1.985   9.237
24300WAT     H173142   7.153   2.021   9.296
24300WAT     H273143   7.314   1.995   9.282
24301WAT      O73144   4.689   8.714   4.767
24301WAT     H173145   4.709   8.657   4.687
24301WAT     H273146   4.598   8.754   4.757
24302WAT      O73147   2.797   7.423   5.556
24302WAT     H173148   2.812   7.505   5.612
24302WAT     H273149   2.780   7.449   5.462
24303WAT      O73150   1.751   5.889   4.139
24303WAT     H173151   1.776   5.852   4.229
24303WAT     H273152   1.726   5.813   4.079
24304WAT      O73153   4.879   3.060   8.924
24304WAT     H173154   4.820   3.025   8.851
24304WAT     H273155   4.869   3.160   8.931
24305WAT      O73156   9.133   3.085   0.096
24305WAT     H173157   9.091   2.996   0.081
24305WAT     H273158   9.133   3.107   0.194
24306WAT      O73159   1.241   5.656   6.410
24306WAT     H173160   1.144   5.675   6.400
24306WAT     H273161   1.253   5.574   6.467
24307WAT      O73162   1.309   5.921   6.032
24307WAT     H173163   1.238   5.962   6.090
24307WAT     H273164   1.267   5.852   5.973
24308WAT      O73165   7.191   0.778   1.621
24308WAT     H173166   7.252   0.726   1.680
24308WAT     H273167   7.145   0.716   1.557
24309WAT      O73168   5.003   7.926   1.084
24309WAT     H173169   4.912   7.917   1.126
24309WAT     H273170   5.066   7.863   1.128
24310WAT      O73171   4.629   3.424   2.132
24310WAT     H173172   4.620   3.324   2.129
24310WAT     H273173   4.635   3.454   2.227
24311WAT      O73174   4.798   8.462   0.413
24311WAT     H173175   4.892   8.493   0.398
24311WAT     H273176   4.780   8.455   0.511
24312WAT      O73177   1.428   2.914   5.863
24312WAT     H173178   1.440   2.854   5.783
24312WAT     H273179   1.446   3.009   5.836
24313WAT      O73180   6.574   5.742   1.390
24313WAT     H173181   6.578   5.778   1.484
24313WAT     H273182   6.609   5.811   1.327
24314WAT      O73183   8.209   5.677   1.517
24314WAT     H173184   8.290   5.653   1.463
24314WAT     H273185   8.134   5.615   1.494
24315WAT      O73186   1.920   7.407   2.777
24315WAT     H173187   1.951   7.393   2.871
24315WAT     H273188   1.991   7.376   2.713
24316WAT      O73189   5.968   4.286   6.259
24316WAT     H173190   6.041   4.333   6.208
24316WAT     H273191   5.895   4.350   6.280
24317WAT      O73192   5.730   1.351   9.319
24317WAT     H173193   5.640   1.310   9.332
24317WAT     H273194   5.721   1.451   9.320
24318WAT      O73195   1.602   7.494   1.790
24318WAT     H173196   1.626   7.554   1.715
24318WAT     H273197   1.638   7.530   1.876
24319WAT      O73198   7.772   3.712   4.737
24319WAT     H173199   7.844   3.735   4.672
24319WAT     H273200   7.733   3.796   4.775
24320WAT      O73201   4.440   2.863   4.568
24320WAT     H173202   4.387   2.912   4.499
24320WAT     H273203   4.537   2.889   4.559
24321WAT      O73204   3.837   2.055   8.429
24321WAT     H173205   3.751   2.009   8.451
24321WAT     H273206   3.900   2.047   8.506
24322WAT      O73207   5.306   1.787   6.527
24322WAT     H173208   5.299   1.847   6.447
24322WAT     H273209   5.373   1.715   6.508
24323WAT      O73210   2.363   2.924   9.350
24323WAT     H173211   2.424   2.943   9.427
24323WAT     H273212   2.402   2.851   9.294
24324WAT      O73213   9.783   3.645   8.427
24324WAT     H173214   9.696   3.625   8.381
24324WAT     H273215   9.858   3.639   8.360
24325WAT      O73216   6.806   2.262   2.600
24325WAT     H173217   6.886   2.204   2.610
24325WAT     H273218   6.768   2.282   2.691
24326WAT      O73219   3.478   0.040   7.073
24326WAT     H173220   3.524   0.080   7.152
24326WAT     H273221   3.530   0.061   6.990
24327WAT      O73222   0.301   0.771   5.079
24327WAT     H173223   0.348   0.803   5.161
24327WAT     H273224   0.227   0.835   5.056
24328WAT      O73225   8.378   0.777   3.375
24328WAT     H173226   8.371   0.682   3.344
24328WAT     H273227   8.349   0.783   3.470
24329WAT      O73228   2.610   5.453   2.982
24329WAT     H173229   2.657   5.539   2.963
24329WAT     H273230   2.675   5.388   3.021
24330WAT      O73231   9.581   3.940   2.046
24330WAT     H173232   9.631   3.971   2.126
24330WAT     H273233   9.535   4.019   2.003
24331WAT      O73234   5.207   6.873   4.984
24331WAT     H173235   5.268   6.806   5.026
24331WAT     H273236   5.113   6.854   5.012
24332WAT      O73237   0.276   6.203   9.817
24332WAT     H173238   0.223   6.243   9.743
24332WAT     H273239   0.318   6.117   9.786
24333WAT      O73240   2.503   7.329   1.680
24333WAT     H173241   2.445   7.402   1.644
24333WAT     H273242   2.549   7.282   1.604
24334WAT      O73243   8.810   4.302   2.146
24334WAT     H173244   8.760   4.358   2.079
24334WAT     H273245   8.878   4.359   2.192
24335WAT      O73246   5.539   6.801   3.706
24335WAT     H173247   5.589   6.887   3.703
24335WAT     H273248   5.480   6.798   3.786
24336WAT      O73249   9.041   8.556   4.710
24336WAT     H173250   9.094   8.640   4.698
24336WAT     H273251   9.082   8.501   4.783
24337WAT      O73252   0.019   1.142   8.694
24337WAT     H173253   0.019   1.057   8.641
24337WAT     H273254  -0.046   1.206   8.654
24338WAT      O73255   8.984   5.278   3.798
24338WAT     H173256   8.901   5.322   3.834
24338WAT     H273257   9.060   5.294   3.861
24339WAT      O73258   2.042   3.117   7.464
24339WAT     H173259   2.004   3.099   7.555
24339WAT     H273260   2.141   3.124   7.470
24340WAT      O73261   8.579   7.729   2.746
24340WAT     H173262   8.526   7.659   2.795
24340WAT     H273263   8.652   7.685   2.694
24341WAT      O73264   0.536   7.431   9.045
24341WAT     H173265   0.496   7.431   9.137
24341WAT     H273266   0.559   7.337   9.020
24342WAT      O73267   7.375   6.852   4.011
24342WAT     H173268   7.307   6.788   4.047
24342WAT     H273269   7.335   6.905   3.936
24343WAT      O73270   9.709   0.387   5.947
24343WAT     H173271   9.731   0.293   5.975
24343WAT     H273272   9.774   0.417   5.876
24344WAT      O73273   2.895   8.482   9.039
24344WAT     H173274   2.832   8.406   9.024
24344WAT     H273275   2.936   8.474   9.130
24345WAT      O73276   3.470   4.640   0.548
24345WAT     H173277   3.415   4.634   0.631
24345WAT     H273278   3.415   4.679   0.474
24346WAT      O73279   9.212   8.677   3.074
24346WAT     H173280   9.226   8.757   3.016
24346WAT     H273281   9.212   8.594   3.017
24347WAT      O73282   4.790   6.482   1.874
24347WAT     H173283   4.693   6.461   1.889
24347WAT     H273284   4.812   6.570   1.916
24348WAT      O73285   0.310   8.235   8.835
24348WAT     H173286   0.386   8.243   8.900
24348WAT     H273287   0.224   8.224   8.885
24349WAT      O73288   4.282   2.963   9.547
24349WAT     H173289   4.223   2.931   9.473
24349WAT     H273290   4.357   2.898   9.559
24350WAT      O73291   2.551   0.386   3.883
24350WAT     H173292   2.477   0.410   3.946
24350WAT     H273293   2.585   0.295   3.904
24351WAT      O73294   7.778   7.322   6.983
24351WAT     H173295   7.851   7.381   6.949
24351WAT     H273296   7.691   7.351   6.944
24352WAT      O73297   7.912   7.622   0.507
24352WAT     H173298   7.874   7.537   0.473
24352WAT     H273299   7.951   7.608   0.598
24353WAT      O73300   4.560   7.976   5.748
24353WAT     H173301   4.469   7.944   5.719
24353WAT     H273302   4.569   8.074   5.727
24354WAT      O73303   4.190   5.006   4.676
24354WAT     H173304   4.156   4.963   4.593
24354WAT     H273305   4.281   4.972   4.697
24355WAT      O73306   8.472   8.245   2.743
24355WAT     H173307   8.532   8.309   2.695
24355WAT     H273308   8.468   8.269   2.840
24356WAT      O73309   3.070   7.714   7.050
24356WAT     H173310   3.160   7.733   7.090
24356WAT     H273311   3.077   7.716   6.950
24357WAT      O73312   5.996   9.426   5.023
24357WAT     H173313   6.033   9.518   5.018
24357WAT     H273314   5.929   9.412   4.950
24358WAT      O73315   8.831   3.259   5.318
24358WAT     H173316   8.846   3.329   5.248
24358WAT     H273317   8.844   3.300   5.409
24359WAT      O73318   2.975   1.134   5.385
24359WAT     H173319   3.021   1.058   5.339
24359WAT     H273320   2.967   1.115   5.483
24360WAT      O73321   1.041   6.977   6.666
24360WAT     H173322   1.063   7.055   6.725
24360WAT     H273323   0.949   6.987   6.629
24361WAT      O73324   1.488   0.290   7.868
24361WAT     H173325   1.552   0.240   7.811
24361WAT     H273326   1.404   0.237   7.879
24362WAT      O73327   3.524   4.752   1.119
24362WAT     H173328   3.557   4.834   1.072
24362WAT     H273329   3.600   4.688   1.133
24363WAT      O73330   8.476   7.036   2.191
24363WAT     H173331   8.413   7.106   2.225
24363WAT     H273332   8.484   7.044   2.092
24364WAT      O73333   3.169   0.616   7.050
24364WAT     H173334   3.230   0.691   7.024
24364WAT     H273335   3.225   0.535   7.070
24365WAT      O73336   1.597   7.720   7.077
24365WAT     H173337   1.521   7.782   7.099
24365WAT     H273338   1.680   7.751   7.125
24366WAT      O73339   6.331   4.206   3.009
24366WAT     H173340   6.246   4.163   2.978
24366WAT     H273341   6.406   4.177   2.951
24367WAT      O73342   3.085   8.489   8.746
24367WAT     H173343   3.044   8.557   8.686
24367WAT     H273344   3.066   8.514   8.842
24368WAT      O73345   1.265   3.538   5.245
24368WAT     H173346   1.272   3.455   5.301
24368WAT     H273347   1.222   3.515   5.158
24369WAT      O73348   4.209   6.358   9.055
24369WAT     H173349   4.183   6.341   9.150
24369WAT     H273350   4.272   6.286   9.024
24370WAT      O73351   2.964   0.266   8.494
24370WAT     H173352   2.921   0.353   8.468
24370WAT     H273353   2.913   0.226   8.570
24371WAT      O73354   6.279   2.714   3.779
24371WAT     H173355   6.247   2.669   3.696
24371WAT     H273356   6.374   2.743   3.766
24372WAT      O73357   1.869   9.710   6.327
24372WAT     H173358   1.790   9.657   6.295
24372WAT     H273359   1.902   9.672   6.414
24373WAT      O73360   8.608   5.224   0.943
24373WAT     H173361   8.602   5.321   0.969
24373WAT     H273362   8.527   5.176   0.978
24374WAT      O73363   2.832   6.862   9.121
24374WAT     H173364   2.751   6.841   9.066
24374WAT     H273365   2.821   6.824   9.213
24375WAT      O73366   1.395   7.594   7.774
24375WAT     H173367   1.410   7.674   7.833
24375WAT     H273368   1.328   7.534   7.817
24376WAT      O73369   6.766   2.718   6.357
24376WAT     H173370   6.855   2.747   6.391
24376WAT     H273371   6.777   2.672   6.269
24377WAT      O73372   5.850   3.104   7.649
24377WAT     H173373   5.772   3.114   7.588
24377WAT     H273374   5.932   3.136   7.603
24378WAT      O73375   6.657   9.656   9.870
24378WAT     H173376   6.749   9.671   9.906
24378WAT     H273377   6.595   9.636   9.945
24379WAT      O73378   2.990   3.058   3.029
24379WAT     H173379   3.001   3.124   3.103
24379WAT     H273380   2.922   3.091   2.964
24380WAT      O73381   3.629   3.687   4.725
24380WAT     H173382   3.679   3.608   4.757
24380WAT     H273383   3.581   3.731   4.801
24381WAT      O73384   7.109   7.725   4.638
24381WAT     H173385   7.105   7.651   4.706
24381WAT     H273386   7.104   7.685   4.546
24382WAT      O73387   3.497   7.347   2.142
24382WAT     H173388   3.412   7.398   2.129
24382WAT     H273389   3.534   7.321   2.053
24383WAT      O73390   5.060   0.708   8.115
24383WAT     H173391   5.019   0.780   8.059
24383WAT     H273392   5.006   0.697   8.199
24384WAT      O73393   7.699   5.862   9.679
24384WAT     H173394   7.769   5.899   9.740
24384WAT     H273395   7.609   5.874   9.720
24385WAT      O73396   2.342   0.475   6.361
24385WAT     H173397   2.366   0.498   6.267
24385WAT     H273398   2.367   0.552   6.421
24386WAT      O73399   7.725   7.986   6.247
24386WAT     H173400   7.800   7.979   6.181
24386WAT     H273401   7.698   7.895   6.278
24387WAT      O73402   4.509   9.023   5.575
24387WAT     H173403   4.412   8.999   5.570
24387WAT     H273404   4.555   8.963   5.641
24388WAT      O73405   6.805   8.736   6.066
24388WAT     H173406   6.817   8.649   6.112
24388WAT     H273407   6.850   8.734   5.976
24389WAT      O73408   8.499   4.380   5.841
24389WAT     H173409   8.490   4.398   5.743
24389WAT     H273410   8.408   4.367   5.881
24390WAT      O73411   2.014   6.323   8.233
24390WAT     H173412   2.035   6.345   8.138
24390WAT     H273413   2.057   6.391   8.293
24391WAT      O73414   5.025   5.053   6.153
24391WAT     H173415   4.998   4.957   6.168
24391WAT     H273416   5.102   5.075   6.214
24392WAT      O73417   7.125   7.250   1.951
24392WAT     H173418   7.030   7.221   1.942
24392WAT     H273419   7.156   7.290   1.865
24393WAT      O73420   6.362   7.563   1.936
24393WAT     H173421   6.440   7.510   1.903
24393WAT     H273422   6.284   7.549   1.876
24394WAT      O73423   0.683   9.543   6.537
24394WAT     H173424   0.696   9.582   6.446
24394WAT     H273425   0.630   9.459   6.530
24395WAT      O73426   1.177   3.811   1.690
24395WAT     H173427   1.114   3.737   1.709
24395WAT     H273428   1.220   3.841   1.776
24396WAT      O73429   1.149   8.693   1.962
24396WAT     H173430   1.129   8.763   2.031
24396WAT     H273431   1.119   8.725   1.872
24397WAT      O73432   1.940   6.582   3.988
24397WAT     H173433   1.865   6.517   3.997
24397WAT     H273434   2.027   6.536   4.005
24398WAT      O73435   3.305   5.192   8.941
24398WAT     H173436   3.245   5.115   8.916
24398WAT     H273437   3.340   5.234   8.857
24399WAT      O73438   7.054   3.464   1.876
24399WAT     H173439   7.078   3.490   1.782
24399WAT     H273440   6.981   3.523   1.909
24400WAT      O73441   9.143   8.834   3.683
24400WAT     H173442   9.234   8.824   3.723
24400WAT     H273443   9.148   8.898   3.605
24401WAT      O73444   5.877   1.780   8.520
24401WAT     H173445   5.867   1.706   8.587
24401WAT     H273446   5.819   1.857   8.548
24402WAT      O73447   8.293   8.799   7.401
24402WAT     H173448   8.355   8.775   7.476
24402WAT     H273449   8.299   8.897   7.383
24403WAT      O73450   5.846   7.843   5.559
24403WAT     H173451   5.855   7.744   5.550
24403WAT     H273452   5.934   7.882   5.588
24404WAT      O73453   5.381   9.803   8.645
24404WAT     H173454   5.440   9.742   8.591
24404WAT     H273455   5.324   9.857   8.583
24405WAT      O73456   1.611   9.337   6.614
24405WAT     H173457   1.602   9.265   6.682
24405WAT     H273458   1.659   9.303   6.534
24406WAT      O73459   5.763   2.773   4.789
24406WAT     H173460   5.730   2.835   4.861
24406WAT     H273461   5.817   2.825   4.722
24407WAT      O73462   3.957   3.575   8.581
24407WAT     H173463   3.896   3.642   8.540
24407WAT     H273464   3.976   3.600   8.676
24408WAT      O73465   4.365   8.858   0.565
24408WAT     H173466   4.418   8.801   0.628
24408WAT     H273467   4.420   8.938   0.539
24409WAT      O73468   7.368   8.929   2.213
24409WAT     H173469   7.286   8.904   2.162
24409WAT     H273470   7.347   9.002   2.278
24410WAT      O73471   9.508   4.421   1.601
24410WAT     H173472   9.456   4.471   1.670
24410WAT     H273473   9.497   4.323   1.616
24411WAT      O73474   1.158   4.878   0.633
24411WAT     H173475   1.059   4.895   0.637
24411WAT     H273476   1.205   4.942   0.693
24412WAT      O73477   1.278   0.665   0.104
24412WAT     H173478   1.367   0.702   0.132
24412WAT     H273479   1.212   0.677   0.178
24413WAT      O73480   4.829   3.380   5.878
24413WAT     H173481   4.920   3.396   5.917
24413WAT     H273482   4.761   3.432   5.931
24414WAT      O73483   5.460   6.184   0.005
24414WAT     H173484   5.398   6.170  -0.072
24414WAT     H273485   5.468   6.282   0.024
24415WAT      O73486   0.938   3.250   7.584
24415WAT     H173487   0.947   3.191   7.664
24415WAT     H273488   1.009   3.226   7.517
24416WAT      O73489   1.952   8.103   6.859
24416WAT     H173490   2.042   8.146   6.868
24416WAT     H273491   1.963   8.011   6.822
24417WAT      O73492   1.045   4.783   8.064
24417WAT     H173493   0.949   4.809   8.062
24417WAT     H273494   1.084   4.792   7.972
24418WAT      O73495   1.404   9.527   1.888
24418WAT     H173496   1.413   9.494   1.982
24418WAT     H273497   1.412   9.450   1.825
24419WAT      O73498   4.356   9.563   4.824
24419WAT     H173499   4.455   9.575   4.813
24419WAT     H273500   4.323   9.626   4.895
24420WAT      O73501   5.022   1.329   1.949
24420WAT     H173502   5.059   1.419   1.924
24420WAT     H273503   5.070   1.258   1.898
24421WAT      O73504   3.904   2.945   2.298
24421WAT     H173505   3.879   2.961   2.203
24421WAT     H273506   3.912   3.032   2.346
24422WAT      O73507   5.429   6.870   9.613
24422WAT     H173508   5.507   6.815   9.641
24422WAT     H273509   5.413   6.942   9.680
24423WAT      O73510   9.106   3.314   5.774
24423WAT     H173511   9.177   3.384   5.768
24423WAT     H273512   9.120   3.246   5.702
24424WAT      O73513   7.618   5.378   3.785
24424WAT     H173514   7.676   5.386   3.704
24424WAT     H273515   7.638   5.291   3.831
24425WAT      O73516   2.360   7.070   5.082
24425WAT     H173517   2.382   6.973   5.079
24425WAT     H273518   2.326   7.094   5.173
24426WAT      O73519   0.311   5.705   8.116
24426WAT     H173520   0.384   5.650   8.075
24426WAT     H273521   0.323   5.706   8.216
24427WAT      O73522   9.755   4.892   5.954
24427WAT     H173523   9.850   4.861   5.944
24427WAT     H273524   9.712   4.842   6.029
24428WAT      O73525   4.284   3.174   5.555
24428WAT     H173526   4.208   3.205   5.497
24428WAT     H273527   4.286   3.074   5.557
24429WAT      O73528   0.755   6.596   7.173
24429WAT     H173529   0.754   6.587   7.073
24429WAT     H273530   0.712   6.515   7.214
24430WAT      O73531   7.121   0.848   4.227
24430WAT     H173532   7.188   0.786   4.268
24430WAT     H273533   7.033   0.838   4.275
24431WAT      O73534   3.752   7.145   2.362
24431WAT     H173535   3.799   7.181   2.281
24431WAT     H273536   3.657   7.178   2.363
24432WAT      O73537   6.459   3.113   6.905
24432WAT     H173538   6.463   3.029   6.959
24432WAT     H273539   6.518   3.183   6.947
24433WAT      O73540   6.340   0.885   4.209
24433WAT     H173541   6.271   0.866   4.140
24433WAT     H273542   6.339   0.983   4.231
24434WAT      O73543   0.159   3.633   7.244
24434WAT     H173544   0.228   3.696   7.208
24434WAT     H273545   0.163   3.633   7.344
24435WAT      O73546   5.336   8.852   6.586
24435WAT     H173547   5.392   8.863   6.504
24435WAT     H273548   5.393   8.820   6.661
24436WAT      O73549   5.937   6.905   8.349
24436WAT     H173550   6.001   6.828   8.347
24436WAT     H273551   5.910   6.928   8.256
24437WAT      O73552   0.509   0.267   5.010
24437WAT     H173553   0.460   0.213   5.078
24437WAT     H273554   0.606   0.242   5.011
24438WAT      O73555   3.043   3.640   3.667
24438WAT     H173556   2.950   3.649   3.632
24438WAT     H273557   3.040   3.615   3.764
24439WAT      O73558   5.033   8.953   2.103
24439WAT     H173559   5.052   8.867   2.151
24439WAT     H273560   5.113   8.980   2.050
24440WAT      O73561   9.102   6.870   5.757
24440WAT     H173562   9.097   6.938   5.684
24440WAT     H273563   9.050   6.789   5.730
24441WAT      O73564   1.267   3.626   8.025
24441WAT     H173565   1.186   3.569   8.010
24441WAT     H273566   1.272   3.651   8.122
24442WAT      O73567   3.796   9.720   5.861
24442WAT     H173568   3.749   9.632   5.868
24442WAT     H273569   3.826   9.734   5.767
24443WAT      O73570   2.738   4.926   7.190
24443WAT     H173571   2.804   4.852   7.205
24443WAT     H273572   2.730   4.944   7.092
24444WAT      O73573   5.507   5.561   2.767
24444WAT     H173574   5.568   5.482   2.756
24444WAT     H273575   5.412   5.532   2.753
24445WAT      O73576   5.609   1.025   9.449
24445WAT     H173577   5.693   0.987   9.410
24445WAT     H273578   5.582   1.106   9.397
24446WAT      O73579   8.687   0.153   9.062
24446WAT     H173580   8.749   0.231   9.049
24446WAT     H273581   8.715   0.079   9.000
24447WAT      O73582   8.856   4.878   6.954
24447WAT     H173583   8.825   4.791   6.991
24447WAT     H273584   8.856   4.947   7.027
24448WAT      O73585   7.854   2.517   3.028
24448WAT     H173586   7.809   2.457   3.094
24448WAT     H273587   7.788   2.549   2.960
24449WAT      O73588   6.205   8.241   1.802
24449WAT     H173589   6.266   8.309   1.844
24449WAT     H273590   6.130   8.289   1.756
24450WAT      O73591   3.624   3.058   1.280
24450WAT     H173592   3.681   2.981   1.251
24450WAT     H273593   3.641   3.076   1.377
24451WAT      O73594   8.544   9.005   4.889
24451WAT     H173595   8.492   8.928   4.926
24451WAT     H273596   8.491   9.090   4.900
24452WAT      O73597   3.784   3.319   7.240
24452WAT     H173598   3.705   3.285   7.292
24452WAT     H273599   3.757   3.398   7.186
24453WAT      O73600   4.917   6.725   3.590
24453WAT     H173601   4.897   6.651   3.526
24453WAT     H273602   5.006   6.765   3.567
24454WAT      O73603   5.987   4.575   6.440
24454WAT     H173604   5.933   4.578   6.356
24454WAT     H273605   6.038   4.660   6.450
24455WAT      O73606   5.551   0.795   8.189
24455WAT     H173607   5.628   0.753   8.238
24455WAT     H273608   5.577   0.888   8.161
24456WAT      O73609   2.747   4.755   2.015
24456WAT     H173610   2.798   4.799   1.942
24456WAT     H273611   2.722   4.822   2.084
24457WAT      O73612   7.854   8.527   6.299
24457WAT     H173613   7.904   8.581   6.231
24457WAT     H273614   7.762   8.564   6.310
24458WAT      O73615   6.714   8.515   2.202
24458WAT     H173616   6.670   8.591   2.154
24458WAT     H273617   6.803   8.497   2.160
24459WAT      O73618   5.676   7.927   2.788
24459WAT     H173619   5.633   7.846   2.827
24459WAT     H273620   5.607   7.998   2.774
24460WAT      O73621   7.023   9.078   4.446
24460WAT     H173622   6.949   9.012   4.452
24460WAT     H273623   6.997   9.163   4.493
24461WAT      O73624   5.104   9.024   1.162
24461WAT     H173625   5.204   9.019   1.160
24461WAT     H273626   5.072   9.014   1.256
24462WAT      O73627   4.778   0.564   7.867
24462WAT     H173628   4.730   0.613   7.939
24462WAT     H273629   4.755   0.466   7.872
24463WAT      O73630   9.450   9.472   1.348
24463WAT     H173631   9.531   9.526   1.371
24463WAT     H273632   9.415   9.428   1.431
24464WAT      O73633   0.212   4.852   1.237
24464WAT     H173634   0.117   4.870   1.214
24464WAT     H273635   0.217   4.802   1.323
24465WAT      O73636   9.763   0.063   5.640
24465WAT     H173637   9.676   0.078   5.592
24465WAT     H273638   9.827   0.016   5.579
24466WAT      O73639   3.318   5.619   1.201
24466WAT     H173640   3.375   5.539   1.182
24466WAT     H273641   3.334   5.651   1.294
24467WAT      O73642   0.191   7.006   8.156
24467WAT     H173643   0.218   6.993   8.060
24467WAT     H273644   0.096   7.038   8.159
24468WAT      O73645   8.881   5.113   2.223
24468WAT     H173646   8.967   5.163   2.235
24468WAT     H273647   8.804   5.176   2.230
24469WAT      O73648   7.033   5.200   5.323
24469WAT     H173649   7.086   5.267   5.271
24469WAT     H273650   6.939   5.197   5.286
24470WAT      O73651   2.734   7.270   5.777
24470WAT     H173652   2.764   7.318   5.694
24470WAT     H273653   2.751   7.172   5.767
24471WAT      O73654   9.691   7.450   6.085
24471WAT     H173655   9.785   7.458   6.051
24471WAT     H273656   9.646   7.373   6.040
24472WAT      O73657   9.466   9.801   1.490
24472WAT     H173658   9.385   9.743   1.494
24472WAT     H273659   9.464   9.866   1.566
24473WAT      O73660   5.581   6.332   7.672
24473WAT     H173661   5.616   6.376   7.589
24473WAT     H273662   5.523   6.255   7.646
24474WAT      O73663   2.780   2.081   3.878
24474WAT     H173664   2.841   2.130   3.816
24474WAT     H273665   2.688   2.120   3.872
24475WAT      O73666   2.176   4.191   9.074
24475WAT     H173667   2.136   4.202   8.983
24475WAT     H273668   2.273   4.168   9.065
24476WAT      O73669   7.069   6.743   8.899
24476WAT     H173670   6.989   6.704   8.852
24476WAT     H273671   7.089   6.833   8.861
24477WAT      O73672   0.999   1.429   4.151
24477WAT     H173673   0.973   1.375   4.071
24477WAT     H273674   1.064   1.378   4.207
24478WAT      O73675   1.849   0.638   0.681
24478WAT     H173676   1.871   0.593   0.767
24478WAT     H273677   1.921   0.705   0.659
24479WAT      O73678   4.087   5.649   3.586
24479WAT     H173679   4.040   5.693   3.663
24479WAT     H273680   4.184   5.639   3.608
24480WAT      O73681   1.213   7.936   7.777
24480WAT     H173682   1.176   7.934   7.684
24480WAT     H273683   1.137   7.940   7.843
24481WAT      O73684   6.913   6.778   8.067
24481WAT     H173685   6.851   6.700   8.065
24481WAT     H273686   6.905   6.824   8.155
24482WAT      O73687   4.014   7.288   9.701
24482WAT     H173688   3.914   7.285   9.703
24482WAT     H273689   4.045   7.382   9.717
24483WAT      O73690   4.613   7.612   5.433
24483WAT     H173691   4.607   7.611   5.334
24483WAT     H273692   4.574   7.697   5.468
24484WAT      O73693   2.952   9.721   3.312
24484WAT     H173694   2.950   9.694   3.408
24484WAT     H273695   2.898   9.804   3.299
24485WAT      O73696   8.493   0.420   8.757
24485WAT     H173697   8.406   0.458   8.725
24485WAT     H273698   8.487   0.403   8.856
24486WAT      O73699   1.045   0.273   8.138
24486WAT     H173700   1.024   0.337   8.064
24486WAT     H273701   1.144   0.274   8.155
24487WAT      O73702   2.850   3.530   0.110
24487WAT     H173703   2.789   3.512   0.188
24487WAT     H273704   2.902   3.614   0.128
24488WAT      O73705   6.361   4.796   9.526
24488WAT     H173706   6.326   4.712   9.487
24488WAT     H273707   6.299   4.872   9.504
24489WAT      O73708   5.497   0.449   0.822
24489WAT     H173709   5.458   0.500   0.899
24489WAT     H273710   5.523   0.357   0.852
24490WAT      O73711   1.228   1.385   1.053
24490WAT     H173712   1.137   1.406   1.091
24490WAT     H273713   1.283   1.468   1.050
24491WAT      O73714   8.060   5.857   0.140
24491WAT     H173715   8.160   5.865   0.140
24491WAT     H273716   8.030   5.816   0.227
24492WAT      O73717   4.758   6.839   6.656
24492WAT     H173718   4.815   6.780   6.714
24492WAT     H273719   4.716   6.783   6.584
24493WAT      O73720   6.748   7.582   8.961
24493WAT     H173721   6.774   7.679   8.966
24493WAT     H273722   6.663   7.569   9.012
24494WAT      O73723   6.416   5.072   4.243
24494WAT     H173724   6.323   5.035   4.237
24494WAT     H273725   6.433   5.132   4.164
24495WAT      O73726   0.285   8.878   3.878
24495WAT     H173727   0.361   8.879   3.814
24495WAT     H273728   0.293   8.800   3.939
24496WAT      O73729   6.333   6.332   2.343
24496WAT     H173730   6.297   6.288   2.425
24496WAT     H273731   6.296   6.425   2.336
24497WAT      O73732   0.080   4.126   4.421
24497WAT     H173733   0.176   4.135   4.397
24497WAT     H273734   0.061   4.031   4.448
24498WAT      O73735   3.935   3.559   9.445
24498WAT     H173736   3.934   3.520   9.352
24498WAT     H273737   4.007   3.627   9.452
24499WAT      O73738   9.315   0.096   7.629
24499WAT     H173739   9.287   0.001   7.647
24499WAT     H273740   9.277   0.156   7.700
24500WAT      O73741   1.546   4.592   8.365
24500WAT     H173742   1.495   4.570   8.282
24500WAT     H273743   1.568   4.508   8.414
24501WAT      O73744   3.517   2.178   4.726
24501WAT     H173745   3.563   2.196   4.639
24501WAT     H273746   3.562   2.101   4.773
24502WAT      O73747   0.403   8.894   0.728
24502WAT     H173748   0.319   8.948   0.729
24502WAT     H273749   0.482   8.953   0.744
24503WAT      O73750   9.434   3.638   7.156
24503WAT     H173751   9.381   3.690   7.223
24503WAT     H273752   9.470   3.555   7.198
24504WAT      O73753   7.194   0.255   5.096
24504WAT     H173754   7.165   0.164   5.068
24504WAT     H273755   7.122   0.299   5.148
24505WAT      O73756   4.653   5.892   8.806
24505WAT     H173757   4.564   5.854   8.828
24505WAT     H273758   4.719   5.866   8.876
24506WAT      O73759   0.980   3.052   6.129
24506WAT     H173760   0.960   3.130   6.070
24506WAT     H273761   1.079   3.038   6.134
24507WAT      O73762   7.531   8.973   3.010
24507WAT     H173763   7.442   9.016   3.029
24507WAT     H273764   7.520   8.903   2.940
24508WAT      O73765   7.917   6.843   2.273
24508WAT     H173766   7.828   6.887   2.262
24508WAT     H273767   7.956   6.824   2.182
24509WAT      O73768   3.817   1.041   8.828
24509WAT     H173769   3.852   0.982   8.756
24509WAT     H273770   3.726   1.074   8.804
24510WAT      O73771   9.408   7.798   2.999
24510WAT     H173772   9.353   7.828   3.077
24510WAT     H273773   9.420   7.699   3.002
24511WAT      O73774   6.160   7.128   8.106
24511WAT     H173775   6.074   7.178   8.116
24511WAT     H273776   6.222   7.181   8.048
24512WAT      O73777   2.982   6.657   6.464
24512WAT     H173778   2.998   6.629   6.369
24512WAT     H273779   3.047   6.729   6.489
24513WAT      O73780   6.661   3.487   7.994
24513WAT     H173781   6.568   3.490   8.031
24513WAT     H273782   6.657   3.482   7.894
24514WAT      O73783   4.540   5.736   4.552
24514WAT     H173784   4.579   5.645   4.569
24514WAT     H273785   4.440   5.730   4.559
24515WAT      O73786   4.029   8.469   0.051
24515WAT     H173787   4.055   8.374   0.033
24515WAT     H273788   3.972   8.503  -0.025
24516WAT      O73789   7.249   1.020   1.507
24516WAT     H173790   7.166   1.066   1.478
24516WAT     H273791   7.226   0.943   1.567
24517WAT      O73792   9.719   5.813   4.859
24517WAT     H173793   9.744   5.836   4.953
24517WAT     H273794   9.768   5.873   4.795
24518WAT      O73795   3.546   2.948   0.646
24518WAT     H173796   3.557   2.886   0.724
24518WAT     H273797   3.488   3.025   0.674
24519WAT      O73798   7.795   1.327   0.750
24519WAT     H173799   7.861   1.272   0.697
24519WAT     H273800   7.835   1.351   0.838
24520WAT      O73801   4.817   8.085   6.686
24520WAT     H173802   4.775   8.048   6.603
24520WAT     H273803   4.881   8.158   6.661
24521WAT      O73804   9.406   7.393   7.293
24521WAT     H173805   9.387   7.406   7.390
24521WAT     H273806   9.439   7.300   7.278
24522WAT      O73807   2.849   7.007   2.651
24522WAT     H173808   2.930   7.051   2.689
24522WAT     H273809   2.845   6.912   2.682
24523WAT      O73810   3.603   8.762   1.636
24523WAT     H173811   3.646   8.699   1.701
24523WAT     H273812   3.504   8.764   1.654
24524WAT      O73813   9.602   0.749   4.659
24524WAT     H173814   9.640   0.749   4.566
24524WAT     H273815   9.676   0.734   4.725
24525WAT      O73816   2.953   2.483   2.398
24525WAT     H173817   3.042   2.437   2.408
24525WAT     H273818   2.896   2.431   2.334
24526WAT      O73819   5.621   6.152   2.745
24526WAT     H173820   5.601   6.117   2.654
24526WAT     H273821   5.693   6.222   2.739
24527WAT      O73822   8.310   8.389   7.767
24527WAT     H173823   8.391   8.386   7.825
24527WAT     H273824   8.240   8.327   7.803
24528WAT      O73825   8.412   4.998   4.353
24528WAT     H173826   8.408   5.097   4.341
24528WAT     H273827   8.444   4.977   4.445
24529WAT      O73828   7.229   4.444   1.166
24529WAT     H173829   7.263   4.351   1.154
24529WAT     H273830   7.256   4.500   1.087
24530WAT      O73831   4.079   6.388   5.808
24530WAT     H173832   4.035   6.462   5.758
24530WAT     H273833   4.173   6.376   5.776
24531WAT      O73834   0.098   9.484   2.851
24531WAT     H173835   0.052   9.537   2.921
24531WAT     H273836   0.192   9.516   2.840
24532WAT      O73837   5.632   0.065   5.086
24532WAT     H173838   5.586   0.075   5.174
24532WAT     H273839   5.566   0.079   5.012
24533WAT      O73840   6.011   2.118   6.060
24533WAT     H173841   5.978   2.192   6.001
24533WAT     H273842   5.990   2.030   6.018
24534WAT      O73843   7.350   4.574   9.571
24534WAT     H173844   7.408   4.518   9.631
24534WAT     H273845   7.255   4.568   9.600
24535WAT      O73846   8.903   7.244   9.253
24535WAT     H173847   8.851   7.167   9.291
24535WAT     H273848   8.926   7.308   9.326
24536WAT      O73849   4.387   9.699   9.561
24536WAT     H173850   4.439   9.783   9.575
24536WAT     H273851   4.438   9.622   9.599
24537WAT      O73852   9.757   3.002   9.082
24537WAT     H173853   9.722   2.970   8.994
24537WAT     H273854   9.832   3.066   9.066
24538WAT      O73855   0.836   5.914   0.169
24538WAT     H173856   0.911   5.979   0.178
24538WAT     H273857   0.873   5.821   0.160
24539WAT      O73858   6.728   8.143   5.645
24539WAT     H173859   6.761   8.221   5.699
24539WAT     H273860   6.688   8.075   5.706
24540WAT      O73861   7.362   7.313   6.744
24540WAT     H173862   7.283   7.370   6.767
24540WAT     H273863   7.389   7.329   6.649
24541WAT      O73864   0.069   7.182   8.826
24541WAT     H173865   0.079   7.262   8.885
24541WAT     H273866  -0.023   7.181   8.788
24542WAT      O73867   9.812   3.742   1.188
24542WAT     H173868   9.893   3.794   1.216
24542WAT     H273869   9.835   3.645   1.181
24543WAT      O73870   8.563   2.346   2.353
24543WAT     H173871   8.479   2.366   2.304
24543WAT     H273872   8.615   2.276   2.303
24544WAT      O73873   4.800   3.328   5.605
24544WAT     H173874   4.811   3.335   5.705
24544WAT     H273875   4.784   3.420   5.568
24545WAT      O73876   2.486   1.908   9.732
24545WAT     H173877   2.518   2.000   9.712
24545WAT     H273878   2.561   1.854   9.771
24546WAT      O73879   3.246   5.581   8.948
24546WAT     H173880   3.222   5.508   9.011
24546WAT     H273881   3.284   5.658   8.999
24547WAT      O73882   0.700   9.399   5.435
24547WAT     H173883   0.601   9.395   5.427
24547WAT     H273884   0.739   9.309   5.418
24548WAT      O73885   4.618   7.915   7.887
24548WAT     H173886   4.590   8.001   7.929
24548WAT     H273887   4.598   7.918   7.789
24549WAT      O73888   1.186   7.049   7.434
24549WAT     H173889   1.102   7.080   7.390
24549WAT     H273890   1.168   6.963   7.483
24550WAT      O73891   2.545   2.201   5.372
24550WAT     H173892   2.528   2.114   5.326
24550WAT     H273893   2.640   2.228   5.358
24551WAT      O73894   0.831   4.963   4.893
24551WAT     H173895   0.735   4.971   4.919
24551WAT     H273896   0.870   4.881   4.935
24552WAT      O73897   8.824   8.049   0.321
24552WAT     H173898   8.782   8.105   0.249
24552WAT     H273899   8.905   8.097   0.356
24553WAT      O73900   6.576   6.745   4.758
24553WAT     H173901   6.655   6.684   4.771
24553WAT     H273902   6.555   6.752   4.661
24554WAT      O73903   5.422   3.754   8.052
24554WAT     H173904   5.404   3.851   8.037
24554WAT     H273905   5.335   3.707   8.067
24555WAT      O73906   5.373   2.577   9.211
24555WAT     H173907   5.291   2.529   9.180
24555WAT     H273908   5.429   2.601   9.132
24556WAT      O73909   0.664   5.836   6.714
24556WAT     H173910   0.714   5.771   6.770
24556WAT     H273911   0.604   5.891   6.772
24557WAT      O73912   2.221   2.604   0.888
24557WAT     H173913   2.158   2.640   0.819
24557WAT     H273914   2.175   2.604   0.977
24558WAT      O73915   6.589   0.923   8.737
24558WAT     H173916   6.632   0.941   8.825
24558WAT     H273917   6.592   1.005   8.680
24559WAT      O73918   0.583   5.023   1.423
24559WAT     H173919   0.521   5.086   1.471
24559WAT     H273920   0.555   5.016   1.327
24560WAT      O73921   2.013   3.914   6.703
24560WAT     H173922   1.977   3.976   6.633
24560WAT     H273923   1.961   3.926   6.787
24561WAT      O73924   3.257   3.389   3.451
24561WAT     H173925   3.280   3.392   3.549
24561WAT     H273926   3.336   3.354   3.400
24562WAT      O73927   2.889   9.372   0.938
24562WAT     H173928   2.835   9.453   0.914
24562WAT     H273929   2.846   9.325   1.015
24563WAT      O73930   5.655   0.704   2.504
24563WAT     H173931   5.594   0.745   2.572
24563WAT     H273932   5.740   0.756   2.499
24564WAT      O73933   3.070   9.173   7.625
24564WAT     H173934   2.987   9.210   7.582
24564WAT     H273935   3.046   9.093   7.681
24565WAT      O73936   5.050   9.179   7.438
24565WAT     H173937   5.009   9.269   7.452
24565WAT     H273938   5.091   9.146   7.523
24566WAT      O73939   6.964   8.713   5.443
24566WAT     H173940   7.020   8.730   5.362
24566WAT     H273941   6.886   8.775   5.443
24567WAT      O73942   8.568   2.902   9.578
24567WAT     H173943   8.472   2.927   9.584
24567WAT     H273944   8.624   2.985   9.575
24568WAT      O73945   0.694   5.183   3.156
24568WAT     H173946   0.625   5.116   3.181
24568WAT     H273947   0.651   5.271   3.138
24569WAT      O73948   5.821   7.019  -0.001
24569WAT     H173949   5.882   7.079  -0.053
24569WAT     H273950   5.786   7.069   0.079
24570WAT      O73951   8.582   9.416   6.832
24570WAT     H173952   8.561   9.362   6.914
24570WAT     H273953   8.507   9.479   6.814
24571WAT      O73954   1.216   2.929   1.894
24571WAT     H173955   1.172   2.936   1.983
24571WAT     H273956   1.298   2.985   1.893
24572WAT      O73957   0.116   3.410   9.581
24572WAT     H173958   0.097   3.314   9.598
24572WAT     H273959   0.196   3.438   9.633
24573WAT      O73960   3.962   7.636   3.770
24573WAT     H173961   3.900   7.558   3.757
24573WAT     H273962   4.056   7.606   3.753
24574WAT      O73963   6.017   6.961   5.277
24574WAT     H173964   5.980   7.051   5.257
24574WAT     H273965   5.943   6.900   5.305
24575WAT      O73966   5.700   0.165   7.434
24575WAT     H173967   5.762   0.086   7.432
24575WAT     H273968   5.753   0.249   7.424
24576WAT      O73969   5.554   2.409   5.822
24576WAT     H173970   5.542   2.360   5.736
24576WAT     H273971   5.576   2.344   5.895
24577WAT      O73972   1.486   5.291   4.292
24577WAT     H173973   1.585   5.290   4.277
24577WAT     H273974   1.439   5.301   4.204
24578WAT      O73975   1.459   0.954   9.823
24578WAT     H173976   1.407   1.006   9.891
24578WAT     H273977   1.395   0.900   9.768
24579WAT      O73978   7.841   2.972   3.044
24579WAT     H173979   7.844   2.902   2.972
24579WAT     H273980   7.864   3.061   3.004
24580WAT      O73981   6.256   5.019   9.398
24580WAT     H173982   6.174   5.052   9.350
24580WAT     H273983   6.334   5.023   9.335
24581WAT      O73984   4.349   1.265   0.547
24581WAT     H173985   4.330   1.293   0.640
24581WAT     H273986   4.433   1.210   0.544
24582WAT      O73987   3.222   2.816   6.660
24582WAT     H173988   3.157   2.827   6.735
24582WAT     H273989   3.187   2.860   6.578
24583WAT      O73990   9.430   0.921   1.042
24583WAT     H173991   9.336   0.887   1.042
24583WAT     H273992   9.489   0.855   1.089
24584WAT      O73993   5.587   5.731   1.933
24584WAT     H173994   5.614   5.642   1.897
24584WAT     H273995   5.599   5.732   2.032
24585WAT      O73996   8.261   9.085   9.722
24585WAT     H173997   8.216   9.064   9.809
24585WAT     H273998   8.338   9.146   9.738
24586WAT      O73999   4.893   8.178   7.008
24586WAT     H174000   4.959   8.167   6.933
24586WAT     H274001   4.847   8.266   7.000
24587WAT      O74002   0.928   4.658   1.430
24587WAT     H174003   0.964   4.688   1.518
24587WAT     H274004   1.003   4.631   1.370
24588WAT      O74005   9.605   1.481   6.650
24588WAT     H174006   9.523   1.512   6.600
24588WAT     H274007   9.684   1.483   6.589
24589WAT      O74008   5.911   8.697   4.321
24589WAT     H174009   5.911   8.643   4.405
24589WAT     H274010   5.986   8.666   4.262
24590WAT      O74011   0.022   8.199   6.405
24590WAT     H174012  -0.030   8.268   6.456
24590WAT     H274013  -0.039   8.127   6.374
24591WAT      O74014   8.787   2.404   4.211
24591WAT     H174015   8.833   2.369   4.129
24591WAT     H274016   8.737   2.488   4.187
24592WAT      O74017   9.832   4.589   0.847
24592WAT     H174018   9.925   4.624   0.840
24592WAT     H274019   9.783   4.639   0.919
24593WAT      O74020   0.701   7.740   3.096
24593WAT     H174021   0.713   7.817   3.033
24593WAT     H274022   0.778   7.678   3.088
24594WAT      O74023   1.851   4.536   5.189
24594WAT     H174024   1.924   4.506   5.128
24594WAT     H274025   1.877   4.519   5.284
24595WAT      O74026   1.134   0.876   2.051
24595WAT     H174027   1.042   0.916   2.055
24595WAT     H274028   1.129   0.780   2.078
24596WAT      O74029   7.052   5.687   1.179
24596WAT     H174030   7.099   5.766   1.139
24596WAT     H274031   6.991   5.719   1.253
24597WAT      O74032   3.403   1.838   0.810
24597WAT     H174033   3.489   1.787   0.807
24597WAT     H274034   3.397   1.888   0.897
24598WAT      O74035   4.791   3.021   9.604
24598WAT     H174036   4.782   3.119   9.621
24598WAT     H274037   4.732   2.970   9.667
24599WAT      O74038   6.658   8.541   1.445
24599WAT     H174039   6.594   8.484   1.496
24599WAT     H274040   6.687   8.618   1.502
24600WAT      O74041   8.842   6.313   3.043
24600WAT     H174042   8.907   6.277   2.977
24600WAT     H274043   8.884   6.316   3.133
24601WAT      O74044   5.558   0.733   9.392
24601WAT     H174045   5.512   0.716   9.305
24601WAT     H274046   5.585   0.830   9.396
24602WAT      O74047   9.393   5.707   4.789
24602WAT     H174048   9.491   5.693   4.772
24602WAT     H274049   9.351   5.747   4.707
24603WAT      O74050   5.889   9.347   1.771
24603WAT     H174051   5.821   9.348   1.698
24603WAT     H274052   5.890   9.257   1.814
24604WAT      O74053   7.701   6.783   1.319
24604WAT     H174054   7.614   6.782   1.270
24604WAT     H274055   7.724   6.877   1.344
24605WAT      O74056   5.889   6.664   0.526
24605WAT     H174057   5.902   6.759   0.557
24605WAT     H274058   5.850   6.664   0.433
24606WAT      O74059   0.181   7.468   0.971
24606WAT     H174060   0.102   7.443   0.916
24606WAT     H274061   0.260   7.413   0.943
24607WAT      O74062   9.346   2.588   4.245
24607WAT     H174063   9.303   2.677   4.230
24607WAT     H274064   9.435   2.601   4.289
24608WAT      O74065   6.775   8.492   3.848
24608WAT     H174066   6.848   8.526   3.907
24608WAT     H274067   6.689   8.491   3.899
24609WAT      O74068   9.587   1.664   8.066
24609WAT     H174069   9.636   1.699   8.146
24609WAT     H274070   9.625   1.575   8.041
24610WAT      O74071   5.777   2.740   7.552
24610WAT     H174072   5.863   2.779   7.518
24610WAT     H274073   5.705   2.753   7.485
24611WAT      O74074   7.708   3.233   1.921
24611WAT     H174075   7.662   3.319   1.899
24611WAT     H274076   7.807   3.246   1.921
24612WAT      O74077   1.533   8.611   5.407
24612WAT     H174078   1.454   8.670   5.389
24612WAT     H274079   1.607   8.666   5.445
24613WAT      O74080   4.421   1.437   5.307
24613WAT     H174081   4.365   1.457   5.387
24613WAT     H274082   4.494   1.506   5.299
24614WAT      O74083   2.294   0.049   8.528
24614WAT     H174084   2.381   0.036   8.576
24614WAT     H274085   2.313   0.084   8.436
24615WAT      O74086   3.010   9.289   6.500
24615WAT     H174087   3.021   9.383   6.467
24615WAT     H274088   3.006   9.227   6.422
24616WAT      O74089   6.519   5.513   6.970
24616WAT     H174090   6.499   5.418   6.995
24616WAT     H274091   6.586   5.514   6.895
24617WAT      O74092   4.753   8.834   6.575
24617WAT     H174093   4.783   8.927   6.599
24617WAT     H274094   4.681   8.805   6.637
24618WAT      O74095   4.951   6.627   4.771
24618WAT     H174096   4.883   6.622   4.698
24618WAT     H274097   4.911   6.671   4.851
24619WAT      O74098   6.457   4.894   8.732
24619WAT     H174099   6.404   4.924   8.811
24619WAT     H274100   6.398   4.890   8.651
24620WAT      O74101   9.073   1.574   5.665
24620WAT     H174102   9.123   1.625   5.596
24620WAT     H274103   9.122   1.490   5.688
24621WAT      O74104   7.109   3.279   7.931
24621WAT     H174105   7.011   3.276   7.909
24621WAT     H274106   7.151   3.193   7.901
24622WAT      O74107   2.361   6.428   2.600
24622WAT     H174108   2.426   6.354   2.584
24622WAT     H274109   2.331   6.466   2.512
24623WAT      O74110   8.753   8.625   7.319
24623WAT     H174111   8.839   8.649   7.364
24623WAT     H274112   8.725   8.700   7.258
24624WAT      O74113   0.783   3.351   6.301
24624WAT     H174114   0.752   3.258   6.323
24624WAT     H274115   0.855   3.378   6.365
24625WAT      O74116   3.790   8.182   6.308
24625WAT     H174117   3.802   8.172   6.406
24625WAT     H274118   3.771   8.092   6.267
24626WAT      O74119   5.607   8.447   5.814
24626WAT     H174120   5.513   8.458   5.845
24626WAT     H274121   5.668   8.502   5.871
24627WAT      O74122   9.066   1.803   1.131
24627WAT     H174123   9.109   1.739   1.194
24627WAT     H274124   8.971   1.777   1.115
24628WAT      O74125   2.477   9.289   6.264
24628WAT     H174126   2.479   9.346   6.182
24628WAT     H274127   2.436   9.340   6.339
24629WAT      O74128   8.956   3.668   2.729
24629WAT     H174129   9.017   3.600   2.688
24629WAT     H274130   8.996   3.759   2.718
24630WAT      O74131   6.485   4.494   3.357
24630WAT     H174132   6.433   4.469   3.275
24630WAT     H274133   6.490   4.416   3.418
24631WAT      O74134   1.092   5.329   0.987
24631WAT     H174135   1.086   5.234   1.015
24631WAT     H274136   1.094   5.334   0.887
24632WAT      O74137   3.205   3.244   8.053
24632WAT     H174138   3.194   3.344   8.046
24632WAT     H274139   3.211   3.204   7.962
24633WAT      O74140   0.286   4.306   7.710
24633WAT     H174141   0.207   4.316   7.650
24633WAT     H274142   0.369   4.298   7.654
24634WAT      O74143   9.556   6.382   6.790
24634WAT     H174144   9.495   6.315   6.747
24634WAT     H274145   9.647   6.342   6.801
24635WAT      O74146   6.281   8.690   7.575
24635WAT     H174147   6.273   8.613   7.638
24635WAT     H274148   6.198   8.697   7.520
24636WAT      O74149   0.151   8.601   1.506
24636WAT     H174150   0.222   8.614   1.437
24636WAT     H274151   0.176   8.524   1.565
24637WAT      O74152   0.049   9.675   0.339
24637WAT     H174153   0.130   9.623   0.312
24637WAT     H274154  -0.028   9.652   0.279
24638WAT      O74155  -0.000   0.473   0.275
24638WAT     H174156   0.071   0.528   0.319
24638WAT     H274157   0.037   0.383   0.252
24639WAT      O74158   2.666   0.601   2.681
24639WAT     H174159   2.711   0.656   2.752
24639WAT     H274160   2.653   0.657   2.599
24640WAT      O74161   0.098   3.114   5.778
24640WAT     H174162   0.092   3.209   5.806
24640WAT     H274163   0.153   3.063   5.844
24641WAT      O74164   1.997   2.131   2.130
24641WAT     H174165   2.004   2.046   2.077
24641WAT     H274166   1.945   2.114   2.214
24642WAT      O74167   6.784   2.851   9.374
24642WAT     H174168   6.834   2.914   9.314
24642WAT     H274169   6.804   2.757   9.348
24643WAT      O74170   6.076   8.642   1.002
24643WAT     H174171   6.008   8.602   1.063
24643WAT     H274172   6.167   8.610   1.029
24644WAT      O74173   9.122   0.477   3.452
24644WAT     H174174   9.197   0.436   3.401
24644WAT     H274175   9.035   0.460   3.404
24645WAT      O74176   4.052   2.391   5.997
24645WAT     H174177   3.999   2.325   5.943
24645WAT     H274178   4.103   2.342   6.068
24646WAT      O74179   5.756   1.202   0.787
24646WAT     H174180   5.825   1.140   0.823
24646WAT     H274181   5.667   1.157   0.787
24647WAT      O74182   1.872   3.018   3.592
24647WAT     H174183   1.825   3.068   3.520
24647WAT     H274184   1.953   3.069   3.620
24648WAT      O74185   8.039   7.880   7.833
24648WAT     H174186   7.940   7.886   7.819
24648WAT     H274187   8.084   7.955   7.784
24649WAT      O74188   4.584   8.004   8.667
24649WAT     H174189   4.661   7.943   8.686
24649WAT     H274190   4.535   8.022   8.753
24650WAT      O74191   4.867   2.097   4.020
24650WAT     H174192   4.876   2.163   3.946
24650WAT     H274193   4.838   2.009   3.982
24651WAT      O74194   5.540   5.298   8.884
24651WAT     H174195   5.453   5.312   8.930
24651WAT     H274196   5.583   5.387   8.867
24652WAT      O74197   6.623   1.422   5.405
24652WAT     H174198   6.533   1.462   5.421
24652WAT     H274199   6.655   1.377   5.489
24653WAT      O74200   4.380   0.032   1.313
24653WAT     H174201   4.314   0.070   1.377
24653WAT     H274202   4.472   0.037   1.352
24654WAT      O74203   6.627   1.680   2.827
24654WAT     H174204   6.674   1.728   2.900
24654WAT     H274205   6.665   1.707   2.739
24655WAT      O74206   7.329   2.765   9.379
24655WAT     H174207   7.393   2.835   9.413
24655WAT     H274208   7.242   2.773   9.427
24656WAT      O74209   6.510   1.185   8.870
24656WAT     H174210   6.432   1.167   8.809
24656WAT     H274211   6.542   1.099   8.909
24657WAT      O74212   7.902   4.721   0.163
24657WAT     H174213   7.812   4.761   0.185
24657WAT     H274214   7.890   4.628   0.130
24658WAT      O74215   9.604   8.597   0.991
24658WAT     H174216   9.561   8.686   1.008
24658WAT     H274217   9.533   8.529   0.974
24659WAT      O74218   6.574   6.189   2.123
24659WAT     H174219   6.481   6.169   2.152
24659WAT     H274220   6.621   6.103   2.099
24660WAT      O74221   3.619   5.527   8.057
24660WAT     H174222   3.610   5.573   7.968
24660WAT     H274223   3.560   5.446   8.059
24661WAT      O74224   6.064   4.882   3.754
24661WAT     H174225   5.981   4.923   3.715
24661WAT     H274226   6.038   4.808   3.816
24662WAT      O74227   7.359   2.511   5.164
24662WAT     H174228   7.442   2.458   5.145
24662WAT     H274229   7.279   2.453   5.149
24663WAT      O74230   9.399   7.663   5.639
24663WAT     H174231   9.455   7.627   5.565
24663WAT     H274232   9.345   7.740   5.605
24664WAT      O74233   0.996   9.259   6.974
24664WAT     H174234   1.051   9.213   7.044
24664WAT     H274235   0.946   9.190   6.921
24665WAT      O74236   3.324   3.925   7.692
24665WAT     H174237   3.232   3.887   7.703
24665WAT     H274238   3.318   4.025   7.683
24666WAT      O74239   2.495   5.872   8.781
24666WAT     H174240   2.548   5.806   8.834
24666WAT     H274241   2.398   5.851   8.788
24667WAT      O74242   1.005   5.461   7.365
24667WAT     H174243   0.969   5.549   7.396
24667WAT     H274244   0.929   5.399   7.344
24668WAT      O74245   7.863   9.505   2.198
24668WAT     H174246   7.917   9.586   2.175
24668WAT     H274247   7.868   9.439   2.123
24669WAT      O74248   3.133   3.469   2.259
24669WAT     H174249   3.079   3.447   2.178
24669WAT     H274250   3.216   3.413   2.260
24670WAT      O74251   8.983   8.341   8.398
24670WAT     H174252   8.901   8.378   8.354
24670WAT     H274253   9.034   8.416   8.442
24671WAT      O74254   3.184   1.056   8.889
24671WAT     H174255   3.166   1.054   8.790
24671WAT     H274256   3.246   1.130   8.910
24672WAT      O74257   8.237   5.959   7.056
24672WAT     H174258   8.265   5.879   7.003
24672WAT     H274259   8.277   6.042   7.015
24673WAT      O74260   0.070   9.279   8.210
24673WAT     H174261   0.103   9.365   8.247
24673WAT     H274262   0.093   9.204   8.272
24674WAT      O74263   0.841   4.005   4.789
24674WAT     H174264   0.926   4.052   4.813
24674WAT     H274265   0.798   4.051   4.712
24675WAT      O74266   4.431   4.406   8.469
24675WAT     H174267   4.412   4.496   8.428
24675WAT     H274268   4.528   4.386   8.462
24676WAT      O74269   4.216   7.492   7.391
24676WAT     H174270   4.197   7.435   7.472
24676WAT     H274271   4.295   7.550   7.410
24677WAT      O74272   4.088   9.512   7.299
24677WAT     H174273   4.165   9.509   7.235
24677WAT     H274274   4.025   9.437   7.279
24678WAT      O74275   0.354   8.632   3.971
24678WAT     H174276   0.404   8.598   4.051
24678WAT     H274277   0.361   8.565   3.897
24679WAT      O74278   1.105   7.615   2.919
24679WAT     H174279   1.106   7.701   2.867
24679WAT     H274280   1.143   7.631   3.010
24680WAT      O74281   5.234   8.650   2.480
24680WAT     H174282   5.214   8.639   2.383
24680WAT     H274283   5.306   8.585   2.507
24681WAT      O74284   0.073   8.472   6.275
24681WAT     H174285  -0.003   8.537   6.278
24681WAT     H274286   0.054   8.394   6.334
24682WAT      O74287   8.028   4.384   9.057
24682WAT     H174288   8.114   4.359   9.012
24682WAT     H274289   8.012   4.482   9.046
24683WAT      O74290   7.392   7.209   5.941
24683WAT     H174291   7.477   7.210   5.993
24683WAT     H274292   7.373   7.302   5.908
24684WAT      O74293   7.088   8.640   6.910
24684WAT     H174294   7.152   8.564   6.919
24684WAT     H274295   7.108   8.690   6.826
24685WAT      O74296   8.864   2.182   9.487
24685WAT     H174297   8.875   2.215   9.581
24685WAT     H274298   8.769   2.196   9.458
24686WAT      O74299   7.136   3.147   0.165
24686WAT     H174300   7.137   3.095   0.250
24686WAT     H274301   7.045   3.139   0.123
24687WAT      O74302   9.774   5.255   8.717
24687WAT     H174303   9.840   5.321   8.754
24687WAT     H274304   9.683   5.276   8.752
24688WAT      O74305   0.833   3.357   8.416
24688WAT     H174306   0.912   3.347   8.356
24688WAT     H274307   0.778   3.273   8.415
24689WAT      O74308   9.145   4.276   9.372
24689WAT     H174309   9.225   4.221   9.396
24689WAT     H274310   9.073   4.217   9.336
24690WAT      O74311   4.080   3.183   1.472
24690WAT     H174312   4.030   3.096   1.471
24690WAT     H274313   4.019   3.256   1.503
24691WAT      O74314   6.410   5.558   9.300
24691WAT     H174315   6.413   5.545   9.399
24691WAT     H274316   6.380   5.651   9.278
24692WAT      O74317   0.635   9.290   7.967
24692WAT     H174318   0.592   9.303   8.057
24692WAT     H274319   0.614   9.369   7.909
24693WAT      O74320   3.902   7.781   0.092
24693WAT     H174321   3.872   7.702   0.039
24693WAT     H274322   3.937   7.851   0.030
24694WAT      O74323   9.561   1.602   7.668
24694WAT     H174324   9.551   1.503   7.658
24694WAT     H274325   9.542   1.646   7.580
24695WAT      O74326   8.070   4.927   2.732
24695WAT     H174327   8.148   4.897   2.788
24695WAT     H274328   8.101   4.993   2.664
24696WAT      O74329   9.481   7.443   0.570
24696WAT     H174330   9.427   7.368   0.531
24696WAT     H274331   9.511   7.505   0.497
24697WAT      O74332   3.058   5.019   3.794
24697WAT     H174333   3.042   5.079   3.872
24697WAT     H274334   3.019   4.929   3.812
24698WAT      O74335   0.863   0.473   6.115
24698WAT     H174336   0.836   0.508   6.204
24698WAT     H274337   0.856   0.546   6.046
24699WAT      O74338   7.214   8.408   4.853
24699WAT     H174339   7.222   8.507   4.839
24699WAT     H274340   7.260   8.361   4.778
24700WAT      O74341   2.788   5.943   7.981
24700WAT     H174342   2.740   5.860   7.953
24700WAT     H274343   2.793   5.946   8.081
24701WAT      O74344   5.861   0.073   3.879
24701WAT     H174345   5.896   0.008   3.946
24701WAT     H274346   5.833   0.024   3.796
24702WAT      O74347   5.808   1.881   6.287
24702WAT     H174348   5.747   1.839   6.220
24702WAT     H274349   5.903   1.862   6.263
24703WAT      O74350   3.683   7.112   7.352
24703WAT     H174351   3.705   7.033   7.409
24703WAT     H274352   3.768   7.151   7.315
24704WAT      O74353   8.057   2.166   3.334
24704WAT     H174354   8.014   2.255   3.344
24704WAT     H274355   8.020   2.103   3.403
24705WAT      O74356   4.477   9.593   4.190
24705WAT     H174357   4.410   9.628   4.125
24705WAT     H274358   4.434   9.524   4.248
24706WAT      O74359   2.782   7.270   4.925
24706WAT     H174360   2.708   7.203   4.915
24706WAT     H274361   2.854   7.249   4.859
24707WAT      O74362   7.768   0.334   6.407
24707WAT     H174363   7.812   0.424   6.413
24707WAT     H274364   7.686   0.334   6.465
24708WAT      O74365   0.266   6.618   2.137
24708WAT     H174366   0.329   6.665   2.076
24708WAT     H274367   0.174   6.622   2.099
24709WAT      O74368   6.588   4.879   0.089
24709WAT     H174369   6.559   4.809   0.155
24709WAT     H274370   6.543   4.862   0.001
24710WAT      O74371   2.415   5.175   8.175
24710WAT     H174372   2.422   5.087   8.223
24710WAT     H274373   2.357   5.237   8.228
24711WAT      O74374   8.832   8.239   9.510
24711WAT     H174375   8.840   8.315   9.445
24711WAT     H274376   8.853   8.153   9.463
24712WAT      O74377   4.233   7.095   3.343
24712WAT     H174378   4.306   7.035   3.311
24712WAT     H274379   4.206   7.157   3.270
24713WAT      O74380   0.856   9.056   6.872
24713WAT     H174381   0.770   9.034   6.918
24713WAT     H274382   0.839   9.078   6.776
24714WAT      O74383   3.644   4.680   9.186
24714WAT     H174384   3.633   4.780   9.188
24714WAT     H274385   3.709   4.652   9.256
24715WAT      O74386   9.383   3.227   4.996
24715WAT     H174387   9.408   3.134   4.968
24715WAT     H274388   9.464   3.286   4.992
24716WAT      O74389   4.397   1.099   0.311
24716WAT     H174390   4.323   1.046   0.270
24716WAT     H274391   4.365   1.192   0.328
24717WAT      O74392   6.186   5.399   7.537
24717WAT     H174393   6.133   5.347   7.604
24717WAT     H274394   6.271   5.352   7.517
24718WAT      O74395   6.204   6.518   3.553
24718WAT     H174396   6.163   6.427   3.558
24718WAT     H274397   6.215   6.544   3.457
24719WAT      O74398   4.498   8.956   4.386
24719WAT     H174399   4.399   8.943   4.393
24719WAT     H274400   4.521   8.985   4.294
24720WAT      O74401   3.141   0.926   6.898
24720WAT     H174402   3.140   1.006   6.838
24720WAT     H274403   3.220   0.870   6.877
24721WAT      O74404   6.112   3.889   2.868
24721WAT     H174405   6.207   3.870   2.845
24721WAT     H274406   6.075   3.812   2.921
24722WAT      O74407   1.157   1.405   5.979
24722WAT     H174408   1.173   1.321   6.030
24722WAT     H274409   1.235   1.423   5.919
24723WAT      O74410   3.808   9.144   8.330
24723WAT     H174411   3.772   9.180   8.416
24723WAT     H274412   3.904   9.170   8.321
24724WAT      O74413   2.551   8.902   9.743
24724WAT     H174414   2.509   8.859   9.663
24724WAT     H274415   2.479   8.937   9.803
24725WAT      O74416   8.134   4.933   4.318
24725WAT     H174417   8.089   5.001   4.375
24725WAT     H274418   8.233   4.939   4.328
24726WAT      O74419   2.379   9.599   8.725
24726WAT     H174420   2.373   9.603   8.825
24726WAT     H274421   2.431   9.678   8.691
24727WAT      O74422   2.824   3.350   7.394
24727WAT     H174423   2.869   3.392   7.315
24727WAT     H274424   2.764   3.417   7.437
24728WAT      O74425   0.547   7.164   9.046
24728WAT     H174426   0.565   7.102   8.970
24728WAT     H274427   0.604   7.139   9.124
24729WAT      O74428   4.143   4.427   6.438
24729WAT     H174429   4.069   4.373   6.480
24729WAT     H274430   4.131   4.523   6.463
24730WAT      O74431   0.853   5.366   6.229
24730WAT     H174432   0.943   5.370   6.184
24730WAT     H274433   0.782   5.351   6.161
24731WAT      O74434   3.380   8.927   7.715
24731WAT     H174435   3.368   9.020   7.680
24731WAT     H274436   3.463   8.923   7.770
24732WAT      O74437   3.747   7.281   2.705
24732WAT     H174438   3.821   7.234   2.656
24732WAT     H274439   3.718   7.226   2.783
24733WAT      O74440   2.630   8.392   6.893
24733WAT     H174441   2.611   8.469   6.832
24733WAT     H274442   2.716   8.407   6.940
24734WAT      O74443   0.847   4.474   0.762
24734WAT     H174444   0.760   4.504   0.723
24734WAT     H274445   0.879   4.393   0.713
24735WAT      O74446   2.050   3.623   3.267
24735WAT     H174447   2.128   3.675   3.233
24735WAT     H274448   2.031   3.650   3.362
24736WAT      O74449   2.815   0.773   6.565
24736WAT     H174450   2.802   0.865   6.603
24736WAT     H274451   2.912   0.749   6.570
24737WAT      O74452   3.325   0.255   8.216
24737WAT     H174453   3.337   0.347   8.254
24737WAT     H274454   3.229   0.239   8.195
24738WAT      O74455   4.328   0.423   9.695
24738WAT     H174456   4.401   0.488   9.675
24738WAT     H274457   4.340   0.386   9.787
24739WAT      O74458   2.684   8.716   4.182
24739WAT     H174459   2.641   8.785   4.240
24739WAT     H274460   2.715   8.758   4.097
24740WAT      O74461   1.403   0.066   4.831
24740WAT     H174462   1.347   0.112   4.900
24740WAT     H274463   1.392  -0.033   4.839
24741WAT      O74464   6.671   0.092   6.881
24741WAT     H174465   6.700   0.164   6.818
24741WAT     H274466   6.685   0.003   6.838
24742WAT      O74467   4.256   7.780   6.181
24742WAT     H174468   4.157   7.783   6.196
24742WAT     H274469   4.298   7.863   6.218
24743WAT      O74470   3.228   7.707   9.570
24743WAT     H174471   3.245   7.648   9.491
24743WAT     H274472   3.187   7.653   9.644
24744WAT      O74473   8.100   4.863   0.738
24744WAT     H174474   8.084   4.837   0.642
24744WAT     H274475   8.183   4.917   0.744
24745WAT      O74476   8.782   8.576   4.815
24745WAT     H174477   8.855   8.555   4.750
24745WAT     H274478   8.702   8.611   4.766
24746WAT      O74479   2.732   3.390   9.604
24746WAT     H174480   2.730   3.374   9.702
24746WAT     H274481   2.639   3.405   9.570
24747WAT      O74482   2.905   4.331   4.155
24747WAT     H174483   2.964   4.411   4.161
24747WAT     H274484   2.952   4.258   4.105
24748WAT      O74485   1.759   2.324   1.846
24748WAT     H174486   1.695   2.248   1.852
24748WAT     H274487   1.738   2.380   1.765
24749WAT      O74488   6.546   7.402   0.703
24749WAT     H174489   6.603   7.400   0.621
24749WAT     H274490   6.550   7.313   0.748
24750WAT      O74491   5.268   9.170   1.481
24750WAT     H174492   5.347   9.216   1.441
24750WAT     H274493   5.274   9.071   1.464
24751WAT      O74494   3.574   0.475   4.699
24751WAT     H174495   3.661   0.458   4.747
24751WAT     H274496   3.593   0.504   4.605
24752WAT      O74497   2.307   8.558   2.294
24752WAT     H174498   2.315   8.541   2.195
24752WAT     H274499   2.391   8.602   2.326
24753WAT      O74500   9.581   6.217   9.646
24753WAT     H174501   9.673   6.178   9.639
24753WAT     H274502   9.587   6.316   9.655
24754WAT      O74503   8.666   3.532   8.590
24754WAT     H174504   8.758   3.560   8.617
24754WAT     H274505   8.649   3.439   8.623
24755WAT      O74506   3.265   8.338   8.186
24755WAT     H174507   3.208   8.401   8.238
24755WAT     H274508   3.331   8.389   8.131
24756WAT      O74509   2.150   7.806   8.755
24756WAT     H174510   2.200   7.720   8.768
24756WAT     H274511   2.216   7.881   8.752
24757WAT      O74512   2.233   3.756   6.070
24757WAT     H174513   2.177   3.685   6.112
24757WAT     H274514   2.199   3.776   5.978
24758WAT      O74515   8.249   4.318   8.254
24758WAT     H174516   8.306   4.397   8.231
24758WAT     H274517   8.169   4.348   8.305
24759WAT      O74518   5.242   6.680   5.694
24759WAT     H174519   5.238   6.700   5.596
24759WAT     H274520   5.206   6.588   5.711
24760WAT      O74521   6.459   3.782   5.544
24760WAT     H174522   6.440   3.700   5.597
24760WAT     H274523   6.506   3.757   5.459
24761WAT      O74524   8.881   7.808   6.384
24761WAT     H174525   8.974   7.802   6.347
24761WAT     H274526   8.856   7.721   6.426
24762WAT      O74527   6.016   9.689   7.884
24762WAT     H174528   5.950   9.640   7.827
24762WAT     H274529   6.099   9.706   7.831
24763WAT      O74530   3.011   4.100   1.959
24763WAT     H174531   3.109   4.109   1.939
24763WAT     H274532   2.999   4.065   2.052
24764WAT      O74533   7.124   2.854   0.774
24764WAT     H174534   7.192   2.803   0.828
24764WAT     H274535   7.056   2.790   0.739
24765WAT      O74536   3.784   1.395   1.665
24765WAT     H174537   3.756   1.343   1.746
24765WAT     H274538   3.710   1.394   1.598
24766WAT      O74539   0.604   2.553   9.639
24766WAT     H174540   0.582   2.521   9.547
24766WAT     H274541   0.609   2.653   9.639
24767WAT      O74542   0.586   7.572   8.493
24767WAT     H174543   0.507   7.627   8.470
24767WAT     H274544   0.668   7.611   8.451
24768WAT      O74545   3.435   1.688   5.539
24768WAT     H174546   3.360   1.734   5.492
24768WAT     H274547   3.412   1.592   5.554
24769WAT      O74548   4.895   0.514   9.838
24769WAT     H174549   4.812   0.489   9.788
24769WAT     H274550   4.973   0.464   9.802
24770WAT      O74551   4.651   5.885   8.327
24770WAT     H174552   4.607   5.930   8.250
24770WAT     H274553   4.731   5.938   8.357
24771WAT      O74554   5.262   6.694   2.206
24771WAT     H174555   5.352   6.726   2.236
24771WAT     H274556   5.230   6.622   2.268
24772WAT      O74557   2.139   0.427   1.051
24772WAT     H174558   2.181   0.485   1.120
24772WAT     H274559   2.210   0.391   0.990
24773WAT      O74560   4.318   8.175   8.571
24773WAT     H174561   4.245   8.108   8.582
24773WAT     H274562   4.402   8.141   8.614
24774WAT      O74563   7.194   1.856   1.350
24774WAT     H174564   7.238   1.804   1.423
24774WAT     H274565   7.097   1.866   1.371
24775WAT      O74566   6.396   4.285   4.741
24775WAT     H174567   6.483   4.292   4.790
24775WAT     H274568   6.373   4.188   4.729
24776WAT      O74569   3.538   2.669   0.318
24776WAT     H174570   3.542   2.764   0.351
24776WAT     H274571   3.612   2.616   0.359
24777WAT      O74572   6.351   2.820   7.485
24777WAT     H174573   6.330   2.839   7.581
24777WAT     H274574   6.364   2.907   7.437
24778WAT      O74575   4.921   4.311   5.838
24778WAT     H174576   4.894   4.251   5.763
24778WAT     H274577   4.906   4.406   5.812
24779WAT      O74578   8.892   1.119   7.808
24779WAT     H174579   8.935   1.201   7.770
24779WAT     H274580   8.868   1.056   7.733
24780WAT      O74581   9.513   8.566   0.082
24780WAT     H174582   9.599   8.564   0.031
24780WAT     H274583   9.483   8.661   0.092
24781WAT      O74584   0.631   7.195   2.418
24781WAT     H174585   0.611   7.267   2.484
24781WAT     H274586   0.579   7.112   2.441
24782WAT      O74587   2.543   3.489   3.448
24782WAT     H174588   2.610   3.552   3.409
24782WAT     H274589   2.465   3.480   3.387
24783WAT      O74590   1.580   0.909   7.370
24783WAT     H174591   1.522   0.939   7.294
24783WAT     H274592   1.526   0.902   7.453
24784WAT      O74593   9.407   1.986   6.518
24784WAT     H174594   9.350   1.944   6.589
24784WAT     H274595   9.379   2.081   6.504
24785WAT      O74596   1.520   2.499   9.198
24785WAT     H174597   1.567   2.478   9.284
24785WAT     H274598   1.422   2.507   9.215
24786WAT      O74599   7.919   4.907   8.863
24786WAT     H174600   8.000   4.955   8.830
24786WAT     H274601   7.851   4.901   8.790
24787WAT      O74602   7.321   8.886   3.488
24787WAT     H174603   7.416   8.908   3.464
24787WAT     H274604   7.320   8.808   3.551
24788WAT      O74605   4.900   1.565   9.364
24788WAT     H174606   4.952   1.497   9.312
24788WAT     H274607   4.932   1.567   9.458
24789WAT      O74608   6.447   0.013   5.902
24789WAT     H174609   6.508   0.032   5.825
24789WAT     H274610   6.364   0.067   5.893
24790WAT      O74611   3.131   7.627   1.312
24790WAT     H174612   3.142   7.712   1.260
24790WAT     H274613   3.057   7.638   1.378
24791WAT      O74614   0.951   2.025   9.559
24791WAT     H174615   0.874   1.981   9.512
24791WAT     H274616   1.035   2.009   9.507
24792WAT      O74617   0.084   2.916   7.794
24792WAT     H174618   0.133   2.985   7.847
24792WAT     H274619   0.052   2.956   7.708
24793WAT      O74620   8.475   3.445   3.378
24793WAT     H174621   8.409   3.510   3.417
24793WAT     H274622   8.444   3.416   3.288
24794WAT      O74623   2.445   2.626   8.442
24794WAT     H174624   2.395   2.664   8.520
24794WAT     H274625   2.380   2.588   8.376
24795WAT      O74626   3.080   0.343   5.955
24795WAT     H174627   2.996   0.307   5.915
24795WAT     H274628   3.155   0.332   5.890
24796WAT      O74629   2.904   8.611   6.803
24796WAT     H174630   2.943   8.652   6.886
24796WAT     H274631   2.978   8.592   6.738
24797WAT      O74632   0.562   8.055   8.808
24797WAT     H174633   0.585   8.023   8.716
24797WAT     H274634   0.579   7.981   8.874
24798WAT      O74635   9.277   3.973   4.206
24798WAT     H174636   9.336   4.026   4.267
24798WAT     H274637   9.333   3.908   4.154
24799WAT      O74638   5.119   8.739   6.709
24799WAT     H174639   5.033   8.757   6.663
24799WAT     H274640   5.194   8.778   6.656
24800WAT      O74641   1.689   9.358   5.161
24800WAT     H174642   1.636   9.412   5.097
24800WAT     H274643   1.748   9.294   5.111
24801WAT      O74644   1.291   0.754   4.335
24801WAT     H174645   1.292   0.704   4.249
24801WAT     H274646   1.292   0.853   4.317
24802WAT      O74647   4.146   2.866   4.579
24802WAT     H174648   4.122   2.769   4.584
24802WAT     H274649   4.245   2.876   4.579
24803WAT      O74650   4.007   1.733   2.705
24803WAT     H174651   3.949   1.789   2.646
24803WAT     H274652   4.004   1.638   2.674
24804WAT      O74653   6.263   9.699   7.747
24804WAT     H174654   6.309   9.622   7.791
24804WAT     H274655   6.295   9.707   7.652
24805WAT      O74656   5.975   3.014   8.127
24805WAT     H174657   6.058   2.968   8.096
24805WAT     H274658   5.982   3.033   8.225
24806WAT      O74659   2.029   4.306   3.203
24806WAT     H174660   1.934   4.313   3.234
24806WAT     H274661   2.083   4.257   3.270
24807WAT      O74662   1.155   1.182   6.130
24807WAT     H174663   1.208   1.098   6.122
24807WAT     H274664   1.060   1.164   6.103
24808WAT      O74665   8.072   7.904   6.618
24808WAT     H174666   8.021   7.850   6.685
24808WAT     H274667   8.070   8.001   6.645
24809WAT      O74668   4.303   6.648   5.174
24809WAT     H174669   4.319   6.729   5.118
24809WAT     H274670   4.262   6.576   5.118
24810WAT      O74671   8.726   1.737   0.026
24810WAT     H174672   8.814   1.736   0.074
24810WAT     H274673   8.742   1.751  -0.071
24811WAT      O74674   1.002   1.408   9.174
24811WAT     H174675   1.078   1.437   9.232
24811WAT     H274676   1.009   1.452   9.085
24812WAT      O74677   2.853   3.004   6.070
24812WAT     H174678   2.944   3.021   6.108
24812WAT     H274679   2.840   2.906   6.056
24813WAT      O74680   2.035   6.182   0.425
24813WAT     H174681   1.978   6.245   0.372
24813WAT     H274682   2.057   6.102   0.369
24814WAT      O74683   7.177   4.586   1.564
24814WAT     H174684   7.252   4.526   1.593
24814WAT     H274685   7.158   4.652   1.636
24815WAT      O74686   5.374   4.051   0.042
24815WAT     H174687   5.348   3.954   0.041
24815WAT     H274688   5.452   4.065  -0.020
24816WAT      O74689   2.072   3.441   9.801
24816WAT     H174690   2.099   3.346   9.784
24816WAT     H274691   2.027   3.478   9.720
24817WAT      O74692   8.562   6.585   8.999
24817WAT     H174693   8.589   6.652   8.930
24817WAT     H274694   8.484   6.532   8.966
24818WAT      O74695   1.580   7.661   2.224
24818WAT     H174696   1.522   7.579   2.218
24818WAT     H274697   1.613   7.670   2.318
24819WAT      O74698   3.546   1.087   8.761
24819WAT     H174699   3.502   1.060   8.676
24819WAT     H274700   3.485   1.146   8.813
24820WAT      O74701   6.098   3.277   5.100
24820WAT     H174702   6.100   3.375   5.083
24820WAT     H274703   6.016   3.256   5.155
24821WAT      O74704   6.763   3.548   6.735
24821WAT     H174705   6.768   3.578   6.830
24821WAT     H274706   6.670   3.558   6.701
24822WAT      O74707   5.209   4.274   6.526
24822WAT     H174708   5.297   4.318   6.509
24822WAT     H274709   5.170   4.242   6.439
24823WAT      O74710   5.846   3.374   1.848
24823WAT     H174711   5.850   3.274   1.848
24823WAT     H274712   5.752   3.404   1.859
24824WAT      O74713   5.466   8.103   2.751
24824WAT     H174714   5.369   8.097   2.773
24824WAT     H274715   5.494   8.199   2.746
24825WAT      O74716   1.512   9.368   0.079
24825WAT     H174717   1.556   9.346   0.165
24825WAT     H274718   1.570   9.430   0.026
24826WAT      O74719   8.700   6.408   4.903
24826WAT     H174720   8.762   6.332   4.922
24826WAT     H274721   8.618   6.373   4.857
24827WAT      O74722   0.059   9.787   2.222
24827WAT     H174723   0.104   9.875   2.211
24827WAT     H274724   0.104   9.735   2.296
24828WAT      O74725   1.662   6.988   5.073
24828WAT     H174726   1.712   7.061   5.119
24828WAT     H274727   1.700   6.974   4.981
24829WAT      O74728   4.115   6.115   7.935
24829WAT     H174729   4.176   6.036   7.920
24829WAT     H274730   4.063   6.133   7.852
24830WAT      O74731   3.205   0.022   0.404
24830WAT     H174732   3.113   0.039   0.367
24830WAT     H274733   3.228   0.094   0.469
24831WAT      O74734   7.728   1.839   0.946
24831WAT     H174735   7.680   1.896   0.880
24831WAT     H274736   7.818   1.814   0.909
24832WAT      O74737   9.831   5.659   1.144
24832WAT     H174738   9.878   5.571   1.138
24832WAT     H274739   9.861   5.719   1.070
24833WAT      O74740   3.484   4.275   8.422
24833WAT     H174741   3.550   4.341   8.456
24833WAT     H274742   3.502   4.185   8.463
24834WAT      O74743   9.786   8.707   9.520
24834WAT     H174744   9.761   8.619   9.560
24834WAT     H274745   9.728   8.725   9.440
24835WAT      O74746   1.295   7.047   9.543
24835WAT     H174747   1.216   7.108   9.540
24835WAT     H274748   1.306   7.012   9.636
24836WAT      O74749   5.864   0.047   6.004
24836WAT     H174750   5.816  -0.039   5.986
24836WAT     H274751   5.797   0.121   6.013
24837WAT      O74752   7.840   7.002   3.583
24837WAT     H174753   7.808   6.945   3.507
24837WAT     H274754   7.777   6.993   3.660
24838WAT      O74755   3.385   3.141   6.313
24838WAT     H174756   3.423   3.233   6.319
24838WAT     H274757   3.399   3.104   6.221
24839WAT      O74758   8.363   4.085   2.567
24839WAT     H174759   8.343   4.173   2.524
24839WAT     H274760   8.410   4.099   2.654
24840WAT      O74761   7.475   4.945   3.826
24840WAT     H174762   7.505   4.978   3.736
24840WAT     H274763   7.531   4.866   3.853
24841WAT      O74764   6.729   1.753   5.046
24841WAT     H174765   6.706   1.707   4.961
24841WAT     H274766   6.828   1.766   5.051
24842WAT      O74767   2.440   8.667   1.916
24842WAT     H174768   2.463   8.718   1.999
24842WAT     H274769   2.451   8.726   1.836
24843WAT      O74770   5.797   4.516   2.181
24843WAT     H174771   5.708   4.543   2.220
24843WAT     H274772   5.787   4.432   2.129
24844WAT      O74773   4.751   0.523   8.800
24844WAT     H174774   4.751   0.574   8.714
24844WAT     H274775   4.838   0.475   8.809
24845WAT      O74776   4.293   8.781   0.082
24845WAT     H174777   4.230   8.842   0.129
24845WAT     H274778   4.273   8.686   0.108
24846WAT      O74779   4.927   1.363   7.858
24846WAT     H174780   4.898   1.448   7.813
24846WAT     H274781   4.940   1.381   7.956
24847WAT      O74782   5.151   4.107   0.362
24847WAT     H174783   5.096   4.080   0.441
24847WAT     H274784   5.195   4.195   0.380
24848WAT      O74785   6.358   4.945   6.605
24848WAT     H174786   6.442   4.899   6.633
24848WAT     H274787   6.357   4.955   6.505
24849WAT      O74788   7.229   3.018   0.566
24849WAT     H174789   7.152   2.995   0.506
24849WAT     H274790   7.216   2.974   0.655
24850WAT      O74791   2.402   9.795   1.174
24850WAT     H174792   2.377   9.828   1.083
24850WAT     H274793   2.338   9.724   1.203
24851WAT      O74794   4.452   8.399   2.837
24851WAT     H174795   4.444   8.485   2.786
24851WAT     H274796   4.534   8.402   2.894
24852WAT      O74797   4.654   0.814   4.680
24852WAT     H174798   4.598   0.779   4.756
24852WAT     H274799   4.635   0.911   4.668
24853WAT      O74800   5.788   5.867   6.025
24853WAT     H174801   5.838   5.781   6.032
24853WAT     H274802   5.815   5.914   5.941
24854WAT      O74803   5.850   7.767   6.840
24854WAT     H174804   5.849   7.672   6.871
24854WAT     H274805   5.772   7.784   6.780
24855WAT      O74806   6.636   3.024   3.524
24855WAT     H174807   6.551   3.048   3.570
24855WAT     H274808   6.697   3.104   3.522
24856WAT      O74809   3.062   3.432   2.009
24856WAT     H174810   3.042   3.374   1.930
24856WAT     H274811   2.987   3.496   2.022
24857WAT      O74812   0.095   9.751   4.766
24857WAT     H174813   0.132   9.843   4.771
24857WAT     H274814   0.129   9.706   4.684
24858WAT      O74815   5.566   3.121   2.192
24858WAT     H174816   5.589   3.082   2.103
24858WAT     H274817   5.594   3.216   2.195
24859WAT      O74818   5.859   8.280   5.434
24859WAT     H174819   5.776   8.315   5.477
24859WAT     H274820   5.915   8.356   5.401
24860WAT      O74821   8.861   6.977   9.384
24860WAT     H174822   8.767   6.975   9.416
24860WAT     H274823   8.872   6.910   9.309
24861WAT      O74824   5.083   7.593   7.848
24861WAT     H174825   5.036   7.506   7.863
24861WAT     H274826   5.177   7.586   7.881
24862WAT      O74827   4.587   6.952   7.805
24862WAT     H174828   4.526   7.031   7.804
24862WAT     H274829   4.558   6.889   7.878
24863WAT      O74830   9.755   7.881   2.710
24863WAT     H174831   9.776   7.932   2.627
24863WAT     H274832   9.657   7.884   2.727
24864WAT      O74833   7.940   7.079   8.247
24864WAT     H174834   7.861   7.047   8.196
24864WAT     H274835   7.989   7.001   8.286
24865WAT      O74836   6.069   2.515   4.795
24865WAT     H174837   6.043   2.419   4.788
24865WAT     H274838   6.037   2.564   4.714
24866WAT      O74839   1.415   4.549   5.326
24866WAT     H174840   1.484   4.479   5.311
24866WAT     H274841   1.422   4.582   5.420
24867WAT      O74842   5.625   0.571   0.589
24867WAT     H174843   5.596   0.536   0.679
24867WAT     H274844   5.721   0.598   0.593
24868WAT      O74845   5.599   5.665   4.140
24868WAT     H174846   5.559   5.738   4.084
24868WAT     H274847   5.699   5.668   4.132
24869WAT      O74848   8.066   0.281   5.863
24869WAT     H174849   8.130   0.353   5.888
24869WAT     H274850   7.999   0.269   5.936
24870WAT      O74851   5.760   6.950   9.336
24870WAT     H174852   5.741   6.852   9.339
24870WAT     H274853   5.854   6.966   9.366
24871WAT      O74854   5.314   6.541   9.785
24871WAT     H174855   5.367   6.533   9.701
24871WAT     H274856   5.375   6.533   9.864
24872WAT      O74857   9.147   7.845   1.995
24872WAT     H174858   9.084   7.825   2.070
24872WAT     H274859   9.237   7.806   2.015
24873WAT      O74860   5.088   0.266   4.896
24873WAT     H174861   5.141   0.198   4.946
24873WAT     H274862   5.081   0.350   4.950
24874WAT      O74863   5.598   1.411   2.428
24874WAT     H174864   5.505   1.402   2.392
24874WAT     H274865   5.656   1.454   2.360
24875WAT      O74866   7.668   8.526   1.133
24875WAT     H174867   7.739   8.536   1.202
24875WAT     H274868   7.584   8.571   1.165
24876WAT      O74869   8.235   7.474   7.867
24876WAT     H174870   8.270   7.526   7.945
24876WAT     H274871   8.211   7.537   7.793
24877WAT      O74872   0.942   1.534   2.884
24877WAT     H174873   0.953   1.628   2.917
24877WAT     H274874   0.851   1.524   2.843
24878WAT      O74875   9.076   4.644   6.807
24878WAT     H174876   9.001   4.626   6.744
24878WAT     H274877   9.163   4.619   6.764
24879WAT      O74878   2.566   9.199   7.638
24879WAT     H174879   2.603   9.111   7.606
24879WAT     H274880   2.468   9.190   7.653
24880WAT      O74881   9.241   4.954   7.225
24880WAT     H174882   9.219   4.872   7.171
24880WAT     H274883   9.296   4.928   7.304
24881WAT      O74884   0.345   8.152   7.722
24881WAT     H174885   0.392   8.065   7.708
24881WAT     H274886   0.387   8.201   7.797
24882WAT      O74887   6.121   0.188   1.457
24882WAT     H174888   6.149   0.259   1.522
24882WAT     H274889   6.036   0.145   1.490
24883WAT      O74890   1.341   4.057   5.784
24883WAT     H174891   1.422   3.999   5.780
24883WAT     H274892   1.311   4.080   5.691
24884WAT      O74893   2.138   0.612   8.420
24884WAT     H174894   2.205   0.670   8.467
24884WAT     H274895   2.046   0.632   8.453
24885WAT      O74896   9.344   8.769   8.501
24885WAT     H174897   9.414   8.818   8.449
24885WAT     H274898   9.286   8.717   8.438
24886WAT      O74899   4.784   1.714   5.690
24886WAT     H174900   4.808   1.676   5.601
24886WAT     H274901   4.685   1.732   5.693
24887WAT      O74902   0.942   0.334   4.155
24887WAT     H174903   0.994   0.287   4.083
24887WAT     H274904   0.919   0.269   4.227
24888WAT      O74905   1.599   5.086   6.931
24888WAT     H174906   1.648   5.169   6.904
24888WAT     H274907   1.656   5.033   6.995
24889WAT      O74908   6.404   5.839   8.104
24889WAT     H174909   6.483   5.796   8.147
24889WAT     H274910   6.408   5.938   8.119
24890WAT      O74911   4.168   9.323   6.920
24890WAT     H174912   4.165   9.233   6.876
24890WAT     H274913   4.252   9.371   6.892
24891WAT      O74914   8.582   9.021   9.752
24891WAT     H174915   8.552   9.109   9.716
24891WAT     H274916   8.508   8.954   9.744
24892WAT      O74917   8.167   2.165   5.423
24892WAT     H174918   8.200   2.071   5.417
24892WAT     H274919   8.244   2.228   5.419
24893WAT      O74920   4.731   0.356   5.496
24893WAT     H174921   4.793   0.428   5.463
24893WAT     H274922   4.732   0.354   5.596
24894WAT      O74923   6.037   3.081   6.913
24894WAT     H174924   5.992   3.013   6.970
24894WAT     H274925   6.077   3.036   6.833
24895WAT      O74926   6.029   5.539   0.179
24895WAT     H174927   5.955   5.481   0.213
24895WAT     H274928   6.077   5.492   0.105
24896WAT      O74929   0.130   2.990   6.490
24896WAT     H174930   0.058   2.959   6.428
24896WAT     H274931   0.162   3.080   6.462
24897WAT      O74932   8.901   2.492   4.604
24897WAT     H174933   8.970   2.498   4.532
24897WAT     H274934   8.930   2.548   4.682
24898WAT      O74935   0.550   7.873   6.148
24898WAT     H174936   0.610   7.921   6.084
24898WAT     H274937   0.513   7.792   6.105
24899WAT      O74938   5.297   3.173   4.282
24899WAT     H174939   5.340   3.193   4.194
24899WAT     H274940   5.363   3.128   4.342
24900WAT      O74941   6.374   2.511   2.249
24900WAT     H174942   6.281   2.524   2.213
24900WAT     H274943   6.429   2.591   2.228
24901WAT      O74944   6.186   1.055   9.069
24901WAT     H174945   6.234   1.115   9.133
24901WAT     H274946   6.250   0.989   9.031
24902WAT      O74947   7.745   1.041   7.587
24902WAT     H174948   7.733   0.953   7.634
24902WAT     H274949   7.734   1.028   7.489
24903WAT      O74950   7.539   2.560   0.617
24903WAT     H174951   7.564   2.514   0.702
24903WAT     H274952   7.544   2.659   0.630
24904WAT      O74953   6.892   0.574   6.711
24904WAT     H174954   6.990   0.572   6.732
24904WAT     H274955   6.867   0.666   6.681
24905WAT      O74956   7.770   2.732   6.180
24905WAT     H174957   7.678   2.701   6.160
24905WAT     H274958   7.826   2.654   6.208
24906WAT      O74959   7.642   7.270   9.459
24906WAT     H174960   7.693   7.204   9.514
24906WAT     H274961   7.544   7.257   9.473
24907WAT      O74962   6.397   1.255   6.994
24907WAT     H174963   6.398   1.176   7.056
24907WAT     H274964   6.357   1.228   6.907
24908WAT      O74965   3.438   9.282   1.219
24908WAT     H174966   3.486   9.239   1.295
24908WAT     H274967   3.372   9.218   1.180
24909WAT      O74968   6.760   9.540   1.018
24909WAT     H174969   6.668   9.518   1.051
24909WAT     H274970   6.803   9.456   0.984
24910WAT      O74971   9.844   7.456   5.526
24910WAT     H174972   9.916   7.495   5.583
24910WAT     H274973   9.867   7.362   5.502
24911WAT      O74974   0.118   9.808   0.707
24911WAT     H174975   0.164   9.882   0.757
24911WAT     H274976   0.042   9.846   0.654
24912WAT      O74977   6.456   7.202   2.794
24912WAT     H174978   6.421   7.191   2.700
24912WAT     H274979   6.434   7.294   2.827
24913WAT      O74980   9.432   2.253   7.870
24913WAT     H174981   9.416   2.323   7.800
24913WAT     H274982   9.500   2.187   7.836
24914WAT      O74983   3.777   8.040   0.182
24914WAT     H174984   3.858   8.003   0.136
24914WAT     H274985   3.787   8.139   0.194
24915WAT      O74986   3.159   2.172   3.838
24915WAT     H174987   3.151   2.093   3.899
24915WAT     H274988   3.253   2.207   3.841
24916WAT      O74989   0.024   5.171   3.993
24916WAT     H174990   0.105   5.158   4.050
24916WAT     H274991   0.041   5.136   3.901
24917WAT      O74992   4.578   3.222   5.983
24917WAT     H174993   4.582   3.232   5.883
24917WAT     H274994   4.651   3.161   6.013
24918WAT      O74995   6.054   1.854   9.100
24918WAT     H174996   6.050   1.932   9.163
24918WAT     H274997   6.149   1.826   9.087
24919WAT      O74998   6.210   2.887   4.764
24919WAT     H174999   6.146   2.831   4.816
24919WAT     H275000   6.218   2.977   4.807
24920WAT      O75001   6.664   8.724   0.527
24920WAT     H175002   6.732   8.661   0.489
24920WAT     H275003   6.692   8.818   0.508
24921WAT      O75004   0.864   2.710   2.138
24921WAT     H175005   0.811   2.789   2.108
24921WAT     H275006   0.962   2.730   2.131
24922WAT      O75007   6.946   0.606   2.564
24922WAT     H175008   6.976   0.698   2.590
24922WAT     H275009   6.996   0.576   2.484
24923WAT      O75010   1.845   2.758   7.866
24923WAT     H175011   1.836   2.827   7.937
24923WAT     H275012   1.784   2.681   7.886
24924WAT      O75013   4.645   7.510   8.558
24924WAT     H175014   4.637   7.596   8.507
24924WAT     H275015   4.596   7.519   8.645
24925WAT      O75016   3.066   0.890   0.480
24925WAT     H175017   3.117   0.965   0.522
24925WAT     H275018   2.995   0.858   0.543
24926WAT      O75019   8.252   7.062   0.421
24926WAT     H175020   8.170   7.113   0.397
24926WAT     H275021   8.232   6.964   0.422
24927WAT      O75022   8.366   6.754   1.972
24927WAT     H175023   8.361   6.850   1.945
24927WAT     H275024   8.415   6.703   1.901
24928WAT      O75025   9.179   8.321   4.865
24928WAT     H175026   9.224   8.232   4.876
24928WAT     H275027   9.248   8.392   4.854
24929WAT      O75028   9.685   1.597   0.620
24929WAT     H175029   9.735   1.627   0.702
24929WAT     H275030   9.595   1.640   0.618
24930WAT      O75031   1.716   6.221   2.455
24930WAT     H175032   1.737   6.193   2.549
24930WAT     H275033   1.767   6.162   2.391
24931WAT      O75034   3.174   1.317   2.995
24931WAT     H175035   3.109   1.269   2.936
24931WAT     H275036   3.263   1.271   2.991
24932WAT      O75037   2.266   9.743   0.497
24932WAT     H175038   2.358   9.778   0.481
24932WAT     H275039   2.252   9.659   0.446
24933WAT      O75040   7.456   4.474   1.574
24933WAT     H175041   7.475   4.571   1.559
24933WAT     H275042   7.508   4.419   1.509
24934WAT      O75043   5.567   2.903   0.555
24934WAT     H175044   5.596   2.973   0.490
24934WAT     H275045   5.609   2.816   0.530
24935WAT      O75046   7.795   7.431   2.694
24935WAT     H175047   7.786   7.331   2.693
24935WAT     H275048   7.718   7.471   2.644
24936WAT      O75049   8.202   1.315   5.229
24936WAT     H175050   8.195   1.308   5.130
24936WAT     H275051   8.244   1.232   5.266
24937WAT      O75052   6.533   5.060   4.638
24937WAT     H175053   6.564   5.097   4.550
24937WAT     H275054   6.484   5.132   4.689
24938WAT      O75055   6.083   3.029   2.846
24938WAT     H175056   6.015   2.960   2.823
24938WAT     H275057   6.152   2.989   2.906
24939WAT      O75058   5.250   0.605   4.607
24939WAT     H175059   5.208   0.516   4.625
24939WAT     H275060   5.347   0.601   4.629
24940WAT      O75061   1.171   4.961   6.850
24940WAT     H175062   1.110   4.957   6.770
24940WAT     H275063   1.131   4.908   6.924
24941WAT      O75064   5.958   2.616   2.959
24941WAT     H175065   5.942   2.706   3.001
24941WAT     H275066   6.031   2.569   3.009
24942WAT      O75067   0.430   7.447   5.039
24942WAT     H175068   0.481   7.363   5.058
24942WAT     H275069   0.371   7.433   4.959
24943WAT      O75070   9.591   7.678   5.835
24943WAT     H175071   9.496   7.698   5.810
24943WAT     H275072   9.618   7.589   5.799
24944WAT      O75073   0.432   1.343   8.895
24944WAT     H175074   0.485   1.376   8.972
24944WAT     H275075   0.493   1.298   8.829
24945WAT      O75076   4.878   6.152   7.410
24945WAT     H175077   4.869   6.202   7.324
24945WAT     H275078   4.883   6.054   7.391
24946WAT      O75079   7.217   5.220   1.718
24946WAT     H175080   7.297   5.280   1.711
24946WAT     H275081   7.226   5.145   1.653
24947WAT      O75082   0.163   7.476   2.614
24947WAT     H175083   0.137   7.414   2.539
24947WAT     H275084   0.224   7.546   2.579
24948WAT      O75085   9.517   4.249   4.633
24948WAT     H175086   9.493   4.319   4.701
24948WAT     H275087   9.505   4.286   4.541
24949WAT      O75088   4.125   7.482   9.422
24949WAT     H175089   4.106   7.568   9.468
24949WAT     H275090   4.196   7.495   9.353
24950WAT      O75091   4.337   1.576   0.949
24950WAT     H175092   4.249   1.619   0.968
24950WAT     H275093   4.386   1.561   1.034
24951WAT      O75094   4.813   3.771   6.369
24951WAT     H175095   4.786   3.823   6.288
24951WAT     H275096   4.786   3.675   6.358
24952WAT      O75097   9.430   6.524   1.197
24952WAT     H175098   9.456   6.498   1.290
24952WAT     H275099   9.341   6.569   1.199
24953WAT      O75100   2.335   0.790   2.896
24953WAT     H175101   2.389   0.859   2.946
24953WAT     H275102   2.255   0.834   2.856
24954WAT      O75103   8.645   3.945   1.876
24954WAT     H175104   8.552   3.959   1.844
24954WAT     H275105   8.656   3.851   1.908
24955WAT      O75106   4.525   9.661   4.484
24955WAT     H175107   4.457   9.588   4.476
24955WAT     H275108   4.610   9.631   4.441
24956WAT      O75109   1.608   2.485   0.852
24956WAT     H175110   1.526   2.532   0.883
24956WAT     H275111   1.642   2.425   0.925
24957WAT      O75112   2.757   9.445   8.477
24957WAT     H175113   2.823   9.436   8.403
24957WAT     H275114   2.758   9.538   8.512
24958WAT      O75115   6.676   9.491   9.145
24958WAT     H175116   6.623   9.428   9.202
24958WAT     H275117   6.773   9.468   9.150
24959WAT      O75118   4.509   2.355   1.920
24959WAT     H175119   4.577   2.283   1.907
24959WAT     H275120   4.424   2.329   1.873
24960WAT      O75121   3.839   9.215   3.244
24960WAT     H175122   3.858   9.305   3.204
24960WAT     H275123   3.853   9.144   3.175
24961WAT      O75124   3.325   8.792   1.061
24961WAT     H175125   3.309   8.717   0.997
24961WAT     H275126   3.415   8.832   1.046
24962WAT      O75127   1.885   5.102   5.598
24962WAT     H175128   1.819   5.177   5.588
24962WAT     H275129   1.896   5.055   5.510
24963WAT      O75130   1.047   4.987   0.259
24963WAT     H175131   1.102   5.061   0.220
24963WAT     H275132   0.952   5.017   0.267
24964WAT      O75133   1.766   9.025   9.807
24964WAT     H175134   1.808   9.113   9.785
24964WAT     H275135   1.747   9.021   9.905
24965WAT      O75136   7.283   7.143   9.717
24965WAT     H175137   7.365   7.124   9.770
24965WAT     H275138   7.205   7.095   9.758
24966WAT      O75139   5.645   1.559   2.677
24966WAT     H175140   5.619   1.503   2.598
24966WAT     H275141   5.685   1.500   2.747
24967WAT      O75142   2.139   3.231   3.460
24967WAT     H175143   2.181   3.322   3.468
24967WAT     H275144   2.121   3.195   3.552
24968WAT      O75145   1.466   3.532   1.387
24968WAT     H175146   1.419   3.490   1.465
24968WAT     H275147   1.523   3.607   1.419
24969WAT      O75148   4.449   8.543   7.369
24969WAT     H175149   4.444   8.639   7.397
24969WAT     H275150   4.516   8.495   7.426
24970WAT      O75151   3.402   9.809   1.812
24970WAT     H175152   3.327   9.776   1.755
24970WAT     H275153   3.486   9.813   1.757
24971WAT      O75154   5.175   3.868   1.184
24971WAT     H175155   5.162   3.853   1.282
24971WAT     H275156   5.134   3.956   1.158
24972WAT      O75157   0.319   5.104   1.244
24972WAT     H175158   0.300   5.140   1.335
24972WAT     H275159   0.282   5.012   1.236
24973WAT      O75160   6.252   2.984   3.052
24973WAT     H175161   6.351   2.990   3.062
24973WAT     H275162   6.220   2.894   3.083
24974WAT      O75163   9.733   8.625   1.233
24974WAT     H175164   9.664   8.597   1.166
24974WAT     H275165   9.824   8.619   1.192
24975WAT      O75166   0.412   0.939   3.505
24975WAT     H175167   0.365   0.986   3.431
24975WAT     H275168   0.508   0.967   3.507
24976WAT      O75169   8.090   0.034   1.363
24976WAT     H175170   8.114  -0.060   1.389
24976WAT     H275171   8.155   0.067   1.295
24977WAT      O75172   4.369   6.776   9.138
24977WAT     H175173   4.348   6.704   9.204
24977WAT     H275174   4.467   6.797   9.142
24978WAT      O75175   1.492   6.310   2.816
24978WAT     H175176   1.415   6.322   2.754
24978WAT     H275177   1.479   6.368   2.897
24979WAT      O75178   4.770   2.905   9.331
24979WAT     H175179   4.683   2.953   9.321
24979WAT     H275180   4.805   2.918   9.424
24980WAT      O75181   3.931   3.284   4.582
24980WAT     H175182   4.027   3.291   4.609
24980WAT     H275183   3.890   3.375   4.582
24981WAT      O75184   9.022   1.350   2.125
24981WAT     H175185   9.086   1.425   2.139
24981WAT     H275186   9.041   1.277   2.191
24982WAT      O75187   4.187   0.767   9.195
24982WAT     H175188   4.240   0.727   9.269
24982WAT     H275189   4.247   0.818   9.133
24983WAT      O75190   8.628   2.937   3.663
24983WAT     H175191   8.700   3.002   3.638
24983WAT     H275192   8.538   2.976   3.641
24984WAT      O75193   2.042   6.526   9.396
24984WAT     H175194   1.970   6.467   9.433
24984WAT     H275195   2.047   6.516   9.297
24985WAT      O75196   3.149   1.936   1.171
24985WAT     H175197   3.070   1.961   1.227
24985WAT     H275198   3.174   1.841   1.188
24986WAT      O75199   0.358   0.010   9.663
24986WAT     H175200   0.320  -0.080   9.644
24986WAT     H275201   0.458   0.006   9.659
24987WAT      O75202   3.903   1.074   8.172
24987WAT     H175203   3.952   1.150   8.214
24987WAT     H275204   3.951   1.044   8.090
24988WAT      O75205   7.247   0.018   9.849
24988WAT     H175206   7.152  -0.005   9.870
24988WAT     H275207   7.298  -0.066   9.829
24989WAT      O75208   0.593   0.109   8.526
24989WAT     H175209   0.687   0.079   8.512
24989WAT     H275210   0.540   0.035   8.567
24990WAT      O75211   3.990   2.183   9.162
24990WAT     H175212   3.929   2.261   9.175
24990WAT     H275213   4.006   2.169   9.065
24991WAT      O75214   4.928   0.838   0.884
24991WAT     H175215   4.913   0.815   0.788
24991WAT     H275216   4.900   0.932   0.901
24992WAT      O75217   3.747   5.865   1.072
24992WAT     H175218   3.652   5.861   1.101
24992WAT     H275219   3.752   5.878   0.973
24993WAT      O75220   9.606   0.425   8.227
24993WAT     H175221   9.567   0.362   8.160
24993WAT     H275222   9.625   0.513   8.184
24994WAT      O75223   6.869   4.744   3.404
24994WAT     H175224   6.801   4.758   3.332
24994WAT     H275225   6.870   4.647   3.430
24995WAT      O75226   0.397   6.009   9.654
24995WAT     H175227   0.431   6.045   9.567
24995WAT     H275228   0.399   5.909   9.652
24996WAT      O75229   0.691   3.899   0.606
24996WAT     H175230   0.611   3.854   0.645
24996WAT     H275231   0.675   3.916   0.508
24997WAT      O75232   7.592   5.154   5.165
24997WAT     H175233   7.536   5.214   5.223
24997WAT     H275234   7.560   5.161   5.070
24998WAT      O75235   3.934   2.240   0.787
24998WAT     H175236   3.973   2.150   0.803
24998WAT     H275237   4.006   2.304   0.759
24999WAT      O75238   0.869   3.936   8.330
24999WAT     H175239   0.888   3.895   8.420
24999WAT     H275240   0.919   4.022   8.322
25000WAT      O75241   8.448   8.658   4.838
25000WAT     H175242   8.405   8.570   4.819
25000WAT     H275243   8.452   8.673   4.937
25001WAT      O75244   2.163   1.768   0.470
25001WAT     H175245   2.203   1.795   0.382
25001WAT     H275246   2.147   1.849   0.526
25002WAT      O75247   2.243   0.755   9.606
25002WAT     H175248   2.216   0.729   9.513
25002WAT     H275249   2.221   0.851   9.621
25003WAT      O75250   2.405   9.182   4.178
25003WAT     H175251   2.386   9.279   4.161
25003WAT     H275252   2.472   9.149   4.112
25004WAT      O75253   7.332   4.719   4.091
25004WAT     H175254   7.290   4.629   4.076
25004WAT     H275255   7.415   4.708   4.146
25005WAT      O75256   0.672   0.265   8.864
25005WAT     H175257   0.600   0.271   8.795
25005WAT     H275258   0.693   0.357   8.897
25006WAT      O75259   5.693   1.009   3.024
25006WAT     H175260   5.724   1.102   3.043
25006WAT     H275261   5.757   0.943   3.062
25007WAT      O75262   1.253   9.486   0.001
25007WAT     H175263   1.194   9.471   0.081
25007WAT     H275264   1.342   9.443   0.017
25008WAT      O75265   6.141   2.805   3.250
25008WAT     H175266   6.219   2.832   3.307
25008WAT     H275267   6.105   2.717   3.283
25009WAT      O75268   3.924   4.106   1.415
25009WAT     H175269   3.842   4.121   1.359
25009WAT     H275270   3.901   4.120   1.511
25010WAT      O75271   7.439   0.919   2.755
25010WAT     H175272   7.522   0.975   2.748
25010WAT     H275273   7.376   0.961   2.820
25011WAT      O75274   3.693   9.051   0.833
25011WAT     H175275   3.693   9.009   0.742
25011WAT     H275276   3.770   9.114   0.839
25012WAT      O75277   3.432   2.224   6.541
25012WAT     H175278   3.381   2.189   6.463
25012WAT     H275279   3.508   2.162   6.562
25013WAT      O75280   5.580   4.646   2.293
25013WAT     H175281   5.646   4.707   2.336
25013WAT     H275282   5.488   4.667   2.326
25014WAT      O75283   2.964   8.798   6.224
25014WAT     H175284   3.008   8.791   6.134
25014WAT     H275285   3.034   8.798   6.295
25015WAT      O75286   2.586   3.725   2.956
25015WAT     H175287   2.499   3.678   2.965
25015WAT     H275288   2.645   3.702   3.033
25016WAT      O75289   1.469   0.150   6.447
25016WAT     H175290   1.545   0.128   6.386
25016WAT     H275291   1.392   0.089   6.429
25017WAT      O75292   2.875   2.144   2.716
25017WAT     H175293   2.867   2.241   2.690
25017WAT     H275294   2.797   2.094   2.679
25018WAT      O75295   1.308   2.186   7.650
25018WAT     H175296   1.247   2.109   7.666
25018WAT     H275297   1.401   2.152   7.633
25019WAT      O75298   8.430   4.449   3.638
25019WAT     H175299   8.347   4.399   3.664
25019WAT     H275300   8.426   4.471   3.541
25020WAT      O75301   4.696   5.469   6.368
25020WAT     H175302   4.795   5.466   6.382
25020WAT     H275303   4.656   5.537   6.430
25021WAT      O75304   0.317   9.224   4.995
25021WAT     H175305   0.236   9.281   5.010
25021WAT     H275306   0.396   9.267   5.039
25022WAT      O75307   1.462   0.307   7.246
25022WAT     H175308   1.380   0.259   7.215
25022WAT     H275309   1.442   0.354   7.333
25023WAT      O75310   4.106   6.268   1.275
25023WAT     H175311   4.088   6.361   1.306
25023WAT     H275312   4.046   6.204   1.323
25024WAT      O75313   3.386   8.915   9.779
25024WAT     H175314   3.420   8.917   9.685
25024WAT     H275315   3.366   9.009   9.809
25025WAT      O75316   6.482   2.830   0.714
25025WAT     H175317   6.481   2.881   0.628
25025WAT     H275318   6.527   2.884   0.785
25026WAT      O75319   6.530   6.197   9.451
25026WAT     H175320   6.439   6.210   9.411
25026WAT     H275321   6.521   6.174   9.548
25027WAT      O75322   2.684   7.982   9.788
25027WAT     H175323   2.644   7.912   9.847
25027WAT     H275324   2.767   8.018   9.830
25028WAT      O75325   4.744   1.937   8.036
25028WAT     H175326   4.782   1.920   8.127
25028WAT     H275327   4.818   1.962   7.973
25029WAT      O75328   7.258   1.451   8.096
25029WAT     H175329   7.170   1.433   8.138
25029WAT     H275330   7.328   1.392   8.138
25030WAT      O75331   1.446   8.270   6.962
25030WAT     H175332   1.530   8.263   6.908
25030WAT     H275333   1.458   8.218   7.047
25031WAT      O75334   8.835   0.405   5.352
25031WAT     H175335   8.836   0.307   5.333
25031WAT     H275336   8.924   0.444   5.329
25032WAT      O75337   3.576   6.648   4.540
25032WAT     H175338   3.599   6.587   4.465
25032WAT     H275339   3.497   6.704   4.515
25033WAT      O75340   9.014   9.768   7.819
25033WAT     H175341   8.981   9.858   7.846
25033WAT     H275342   8.949   9.726   7.757
25034WAT      O75343   3.902   5.145   2.364
25034WAT     H175344   3.950   5.062   2.336
25034WAT     H275345   3.824   5.161   2.303
25035WAT      O75346   7.170   9.804   6.396
25035WAT     H175347   7.207   9.714   6.371
25035WAT     H275348   7.161   9.860   6.313
25036WAT      O75349   8.835   6.409   1.904
25036WAT     H175350   8.826   6.319   1.861
25036WAT     H275351   8.891   6.401   1.986
25037WAT      O75352   9.453   4.796   8.548
25037WAT     H175353   9.379   4.837   8.601
25037WAT     H275354   9.422   4.782   8.454
25038WAT      O75355   6.964   8.401   2.700
25038WAT     H175356   6.977   8.493   2.662
25038WAT     H275357   7.039   8.380   2.762
25039WAT      O75358   8.096   7.008   4.113
25039WAT     H175359   8.130   7.092   4.156
25039WAT     H275360   8.151   6.988   4.032
25040WAT      O75361   2.294   9.329   7.141
25040WAT     H175362   2.392   9.319   7.124
25040WAT     H275363   2.270   9.426   7.139
25041WAT      O75364   1.001   9.711   3.567
25041WAT     H175365   1.020   9.695   3.470
25041WAT     H275366   1.066   9.660   3.623
25042WAT      O75367   7.795   4.117   6.458
25042WAT     H175368   7.757   4.025   6.443
25042WAT     H275369   7.875   4.129   6.400
25043WAT      O75370   1.583   8.704   6.535
25043WAT     H175371   1.642   8.778   6.568
25043WAT     H275372   1.517   8.680   6.606
25044WAT      O75373   0.168   1.066   6.340
25044WAT     H175374   0.130   0.977   6.364
25044WAT     H275375   0.234   1.055   6.265
25045WAT      O75376   9.080   6.751   6.225
25045WAT     H175377   9.080   6.828   6.289
25045WAT     H275378   9.092   6.665   6.276
25046WAT      O75379   9.726   7.754   1.958
25046WAT     H175380   9.783   7.826   1.919
25046WAT     H275381   9.679   7.789   2.039
25047WAT      O75382   1.444   3.330   1.019
25047WAT     H175383   1.428   3.309   0.922
25047WAT     H275384   1.372   3.288   1.074
25048WAT      O75385   6.257   5.502   9.873
25048WAT     H175386   6.293   5.464   9.788
25048WAT     H275387   6.273   5.439   9.948
25049WAT      O75388   8.789   0.148   2.161
25049WAT     H175389   8.870   0.136   2.103
25049WAT     H275390   8.768   0.245   2.170
25050WAT      O75391   4.963   8.939   1.377
25050WAT     H175392   4.863   8.940   1.388
25050WAT     H275393   5.005   8.905   1.461
25051WAT      O75394   3.010   1.029   2.339
25051WAT     H175395   2.974   1.117   2.308
25051WAT     H275396   3.069   0.990   2.267
25052WAT      O75397   3.275   2.629   4.340
25052WAT     H175398   3.224   2.681   4.409
25052WAT     H275399   3.271   2.677   4.253
25053WAT      O75400   4.679   1.176   0.205
25053WAT     H175401   4.597   1.133   0.244
25053WAT     H275402   4.734   1.106   0.160
25054WAT      O75403   8.539   1.816   8.477
25054WAT     H175404   8.511   1.883   8.546
25054WAT     H275405   8.489   1.731   8.491
25055WAT      O75406   3.559   6.217   0.843
25055WAT     H175407   3.556   6.312   0.814
25055WAT     H275408   3.569   6.212   0.942
25056WAT      O75409   5.297   7.470   0.435
25056WAT     H175410   5.200   7.491   0.426
25056WAT     H275411   5.345   7.496   0.351
25057WAT      O75412   5.061   8.171   1.197
25057WAT     H175413   5.147   8.219   1.215
25057WAT     H275414   5.081   8.086   1.149
25058WAT      O75415   5.268   7.699   5.892
25058WAT     H175416   5.322   7.713   5.809
25058WAT     H275417   5.265   7.784   5.945
25059WAT      O75418   5.486   3.923   4.184
25059WAT     H175419   5.459   3.948   4.091
25059WAT     H275420   5.546   3.994   4.221
25060WAT      O75421   0.316   6.719   2.836
25060WAT     H175422   0.248   6.715   2.763
25060WAT     H275423   0.398   6.766   2.802
25061WAT      O75424   3.998   7.887   5.285
25061WAT     H175425   4.030   7.865   5.378
25061WAT     H275426   3.901   7.868   5.277
25062WAT      O75427   5.776   7.896   7.067
25062WAT     H175428   5.743   7.824   7.127
25062WAT     H275429   5.813   7.856   6.983
25063WAT      O75430   0.689   3.516   0.827
25063WAT     H175431   0.699   3.470   0.916
25063WAT     H275432   0.773   3.566   0.806
25064WAT      O75433   9.520   1.844   3.243
25064WAT     H175434   9.498   1.939   3.266
25064WAT     H275435   9.612   1.840   3.204
25065WAT      O75436   6.270   9.617   9.244
25065WAT     H175437   6.310   9.633   9.334
25065WAT     H275438   6.276   9.520   9.221
25066WAT      O75439   1.082   5.452   2.706
25066WAT     H175440   1.114   5.397   2.629
25066WAT     H275441   0.985   5.432   2.724
25067WAT      O75442   3.540   7.291   8.597
25067WAT     H175443   3.541   7.383   8.559
25067WAT     H275444   3.539   7.224   8.522
25068WAT      O75445   7.938   9.582   2.637
25068WAT     H175446   7.868   9.515   2.614
25068WAT     H275447   7.895   9.667   2.667
25069WAT      O75448   2.949   9.050   5.888
25069WAT     H175449   2.988   8.981   5.827
25069WAT     H275450   3.022   9.100   5.933
25070WAT      O75451   7.092   2.809   3.824
25070WAT     H175452   7.167   2.745   3.809
25070WAT     H275453   7.024   2.767   3.885
25071WAT      O75454   4.215   3.794   1.964
25071WAT     H175455   4.314   3.795   1.980
25071WAT     H275456   4.168   3.832   2.044
25072WAT      O75457   3.148   2.962   2.350
25072WAT     H175458   3.210   3.017   2.294
25072WAT     H275459   3.198   2.887   2.392
25073WAT      O75460   8.775   7.289   7.087
25073WAT     H175461   8.683   7.324   7.110
25073WAT     H275462   8.820   7.259   7.171
25074WAT      O75463   6.914   2.221   4.325
25074WAT     H175464   6.835   2.161   4.331
25074WAT     H275465   6.884   2.314   4.304
25075WAT      O75466   9.360   9.572   8.595
25075WAT     H175467   9.282   9.592   8.536
25075WAT     H275468   9.441   9.554   8.539
25076WAT      O75469   4.803   8.159   8.969
25076WAT     H175470   4.708   8.188   8.958
25076WAT     H275471   4.851   8.223   9.028
25077WAT      O75472   5.217   4.806   8.531
25077WAT     H175473   5.216   4.902   8.559
25077WAT     H275474   5.291   4.758   8.579
25078WAT      O75475   3.484   1.589   8.401
25078WAT     H175476   3.575   1.623   8.422
25078WAT     H275477   3.451   1.631   8.316
25079WAT      O75478   7.579   8.988   6.358
25079WAT     H175479   7.483   8.958   6.358
25079WAT     H275480   7.586   9.075   6.406
25080WAT      O75481   8.392   1.177   9.623
25080WAT     H175482   8.369   1.235   9.545
25080WAT     H275483   8.329   1.099   9.626
25081WAT      O75484   1.488   0.447   9.647
25081WAT     H175485   1.450   0.414   9.733
25081WAT     H275486   1.550   0.524   9.665
25082WAT      O75487   3.309   7.720   3.582
25082WAT     H175488   3.219   7.680   3.596
25082WAT     H275489   3.363   7.662   3.521
25083WAT      O75490   5.989   0.924   0.085
25083WAT     H175491   6.043   1.005   0.111
25083WAT     H275492   5.892   0.948   0.081
25084WAT      O75493   0.080   1.516   0.122
25084WAT     H175494   0.118   1.535   0.032
25084WAT     H275495   0.115   1.429   0.156
25085WAT      O75496   6.108   2.155   3.358
25085WAT     H175497   6.199   2.178   3.323
25085WAT     H275498   6.065   2.088   3.298
25086WAT      O75499   0.528   0.969   1.788
25086WAT     H175500   0.576   0.939   1.871
25086WAT     H275501   0.595   0.999   1.721
25087WAT      O75502   5.260   1.079   3.076
25087WAT     H175503   5.177   1.023   3.070
25087WAT     H275504   5.293   1.078   3.171
25088WAT      O75505   2.959   2.334   6.591
25088WAT     H175506   2.990   2.240   6.608
25088WAT     H275507   3.033   2.398   6.613
25089WAT      O75508   8.777   6.192   1.759
25089WAT     H175509   8.839   6.149   1.694
25089WAT     H275510   8.715   6.123   1.797
25090WAT      O75511   3.206   2.559   5.731
25090WAT     H175512   3.109   2.561   5.707
25090WAT     H275513   3.251   2.640   5.692
25091WAT      O75514   8.308   9.401   5.649
25091WAT     H175515   8.256   9.457   5.586
25091WAT     H275516   8.378   9.350   5.599
25092WAT      O75517   6.491   9.600   5.080
25092WAT     H175518   6.439   9.615   5.164
25092WAT     H275519   6.535   9.510   5.084
25093WAT      O75520   5.280   5.605   4.778
25093WAT     H175521   5.211   5.623   4.708
25093WAT     H275522   5.346   5.538   4.744
25094WAT      O75523   9.619   0.655   8.135
25094WAT     H175524   9.607   0.747   8.172
25094WAT     H275525   9.543   0.634   8.073
25095WAT      O75526   0.054   8.082   7.078
25095WAT     H175527   0.108   8.166   7.088
25095WAT     H275528   0.034   8.067   6.981
25096WAT      O75529   8.106   8.128   1.339
25096WAT     H175530   8.063   8.154   1.252
25096WAT     H275531   8.142   8.209   1.384
25097WAT      O75532   7.273   3.073   1.065
25097WAT     H175533   7.283   3.144   0.995
25097WAT     H275534   7.271   2.983   1.021
25098WAT      O75535   0.960   7.519   7.455
25098WAT     H175536   1.002   7.545   7.368
25098WAT     H275537   1.026   7.534   7.529
25099WAT      O75538   8.145   7.095   1.549
25099WAT     H175539   8.099   7.079   1.461
25099WAT     H275540   8.242   7.109   1.534
25100WAT      O75541   4.614   3.826   4.694
25100WAT     H175542   4.638   3.919   4.665
25100WAT     H275543   4.685   3.763   4.662
25101WAT      O75544   5.083   6.596   6.135
25101WAT     H175545   5.047   6.641   6.053
25101WAT     H275546   5.147   6.524   6.109
25102WAT      O75547   7.997   1.673   3.696
25102WAT     H175548   8.065   1.633   3.634
25102WAT     H275549   7.907   1.670   3.653
25103WAT      O75550   7.188   5.844   4.214
25103WAT     H175551   7.212   5.915   4.281
25103WAT     H275552   7.183   5.755   4.260
25104WAT      O75553   7.818   6.706   8.822
25104WAT     H175554   7.792   6.779   8.886
25104WAT     H275555   7.739   6.648   8.803
25105WAT      O75556   6.902   7.571   5.039
25105WAT     H175557   6.937   7.599   5.128
25105WAT     H275558   6.854   7.484   5.048
25106WAT      O75559   6.657   8.449   4.766
25106WAT     H175560   6.580   8.454   4.702
25106WAT     H275561   6.718   8.528   4.751
25107WAT      O75562   2.331   5.607   2.689
25107WAT     H175563   2.377   5.689   2.654
25107WAT     H275564   2.367   5.526   2.642
25108WAT      O75565   2.457   4.980   9.484
25108WAT     H175566   2.399   5.036   9.426
25108WAT     H275567   2.476   5.029   9.569
25109WAT      O75568   1.576   2.892   9.552
25109WAT     H175569   1.550   2.967   9.612
25109WAT     H275570   1.505   2.821   9.555
25110WAT      O75571   5.110   4.933   7.110
25110WAT     H175572   5.056   4.886   7.181
25110WAT     H275573   5.192   4.879   7.090
25111WAT      O75574   3.391   5.739   4.378
25111WAT     H175575   3.373   5.837   4.371
25111WAT     H275576   3.489   5.723   4.387
25112WAT      O75577   0.146   2.899   9.749
25112WAT     H175578   0.058   2.857   9.727
25112WAT     H275579   0.220   2.840   9.715
25113WAT      O75580   6.758   5.903   1.613
25113WAT     H175581   6.680   5.854   1.652
25113WAT     H275582   6.782   5.980   1.673
25114WAT      O75583   0.256   8.195   1.410
25114WAT     H175584   0.353   8.208   1.390
25114WAT     H275585   0.210   8.159   1.329
25115WAT      O75586   9.592   9.067   2.148
25115WAT     H175587   9.495   9.058   2.124
25115WAT     H275588   9.604   9.145   2.209
25116WAT      O75589   3.848   0.039   0.342
25116WAT     H175590   3.845   0.094   0.426
25116WAT     H275591   3.757   0.035   0.301
25117WAT      O75592   6.305   5.697   8.331
25117WAT     H175593   6.279   5.770   8.394
25117WAT     H275594   6.313   5.733   8.238
25118WAT      O75595   8.475   7.841   5.348
25118WAT     H175596   8.531   7.795   5.416
25118WAT     H275597   8.522   7.924   5.317
25119WAT      O75598   1.318   4.358   7.100
25119WAT     H175599   1.302   4.278   7.157
25119WAT     H275600   1.256   4.357   7.022
25120WAT      O75601   7.536   3.483   9.706
25120WAT     H175602   7.456   3.488   9.765
25120WAT     H275603   7.515   3.523   9.617
25121WAT      O75604   5.001   0.211   6.997
25121WAT     H175605   5.008   0.263   6.911
25121WAT     H275606   5.029   0.269   7.073
25122WAT      O75607   4.874   3.569   8.710
25122WAT     H175608   4.802   3.515   8.665
25122WAT     H275609   4.838   3.660   8.731
25123WAT      O75610   5.038   9.735   1.930
25123WAT     H175611   5.065   9.700   1.840
25123WAT     H275612   4.947   9.775   1.925
25124WAT      O75613   3.347   8.848   3.271
25124WAT     H175614   3.412   8.876   3.201
25124WAT     H275615   3.289   8.774   3.236
25125WAT      O75616   3.612   6.446   0.700
25125WAT     H175617   3.562   6.531   0.719
25125WAT     H275618   3.710   6.466   0.696
25126WAT      O75619   9.083   9.391   6.278
25126WAT     H175620   9.117   9.404   6.371
25126WAT     H275621   9.021   9.466   6.255
25127WAT      O75622   8.445   4.338   0.780
25127WAT     H175623   8.485   4.388   0.703
25127WAT     H275624   8.384   4.400   0.831
25128WAT      O75625   5.375   6.092   2.059
25128WAT     H175626   5.426   6.176   2.037
25128WAT     H275627   5.305   6.077   1.990
25129WAT      O75628   5.104   4.657   9.190
25129WAT     H175629   5.044   4.692   9.261
25129WAT     H275630   5.149   4.573   9.222
25130WAT      O75631   7.729   4.854   4.427
25130WAT     H175632   7.757   4.794   4.502
25130WAT     H275633   7.655   4.913   4.457
25131WAT      O75634   2.712   8.339   6.632
25131WAT     H175635   2.733   8.246   6.662
25131WAT     H275636   2.707   8.400   6.711
25132WAT      O75637   1.691   6.474   9.174
25132WAT     H175638   1.648   6.486   9.263
25132WAT     H275639   1.751   6.553   9.155
25133WAT      O75640   3.370   3.691   7.491
25133WAT     H175641   3.458   3.726   7.459
25133WAT     H275642   3.301   3.763   7.481
25134WAT      O75643   3.788   6.696   0.840
25134WAT     H175644   3.853   6.630   0.802
25134WAT     H275645   3.730   6.651   0.908
25135WAT      O75646   2.895   5.986   8.582
25135WAT     H175647   2.802   5.954   8.601
25135WAT     H275648   2.896   6.037   8.497
25136WAT      O75649   6.417   8.045   9.235
25136WAT     H175650   6.424   7.954   9.276
25136WAT     H275651   6.320   8.072   9.230
25137WAT      O75652   0.579   2.871   0.845
25137WAT     H175653   0.601   2.935   0.919
25137WAT     H275654   0.597   2.915   0.757
25138WAT      O75655   0.605   4.415   2.970
25138WAT     H175656   0.659   4.341   2.930
25138WAT     H275657   0.525   4.433   2.912
25139WAT      O75658   4.136   4.471   5.192
25139WAT     H175659   4.157   4.389   5.138
25139WAT     H275660   4.216   4.531   5.194
25140WAT      O75661   1.708   0.871   5.791
25140WAT     H175662   1.796   0.874   5.839
25140WAT     H275663   1.688   0.776   5.765
25141WAT      O75664   9.364   8.420   8.210
25141WAT     H175665   9.439   8.463   8.160
25141WAT     H275666   9.395   8.332   8.247
25142WAT      O75667   3.200   6.457   4.487
25142WAT     H175668   3.228   6.481   4.580
25142WAT     H275669   3.108   6.493   4.470
25143WAT      O75670   7.687   2.086   6.146
25143WAT     H175671   7.662   2.107   6.052
25143WAT     H275672   7.605   2.079   6.202
25144WAT      O75673   5.832   1.787   0.440
25144WAT     H175674   5.911   1.798   0.500
25144WAT     H275675   5.842   1.847   0.360
25145WAT      O75676   8.002   5.658   7.738
25145WAT     H175677   8.077   5.607   7.695
25145WAT     H275678   8.036   5.746   7.771
25146WAT      O75679   5.629   4.220   7.277
25146WAT     H175680   5.588   4.134   7.307
25146WAT     H275681   5.728   4.209   7.271
25147WAT      O75682   1.681   3.739   5.215
25147WAT     H175683   1.606   3.805   5.204
25147WAT     H275684   1.761   3.770   5.164
25148WAT      O75685   5.807   8.041   7.454
25148WAT     H175686   5.780   8.133   7.480
25148WAT     H275687   5.844   7.993   7.534
25149WAT      O75688   8.713   9.366   8.398
25149WAT     H175689   8.631   9.308   8.392
25149WAT     H275690   8.691   9.448   8.452
25150WAT      O75691   8.571   0.994   2.567
25150WAT     H175692   8.573   0.959   2.661
25150WAT     H275693   8.634   1.071   2.560
25151WAT      O75694   5.483   8.895   2.682
25151WAT     H175695   5.506   8.982   2.727
25151WAT     H275696   5.507   8.900   2.585
25152WAT      O75697   1.431   1.302   5.284
25152WAT     H175698   1.508   1.333   5.229
25152WAT     H275699   1.463   1.281   5.377
25153WAT      O75700   9.142   0.701   2.478
25153WAT     H175701   9.075   0.629   2.496
25153WAT     H275702   9.223   0.687   2.535
25154WAT      O75703   0.176   8.181   1.139
25154WAT     H175704   0.156   8.084   1.128
25154WAT     H275705   0.184   8.224   1.049
25155WAT      O75706   4.801   8.611   8.785
25155WAT     H175707   4.878   8.573   8.837
25155WAT     H275708   4.726   8.544   8.783
25156WAT      O75709   3.380   1.240   8.924
25156WAT     H175710   3.355   1.313   8.860
25156WAT     H275711   3.397   1.280   9.014
25157WAT      O75712   1.914   1.463   8.112
25157WAT     H175713   1.945   1.555   8.139
25157WAT     H275714   1.916   1.403   8.191
25158WAT      O75715   6.192   1.454   6.501
25158WAT     H175716   6.171   1.356   6.494
25158WAT     H275717   6.279   1.466   6.548
25159WAT      O75718   3.057   9.021   1.095
25159WAT     H175719   3.111   9.102   1.074
25159WAT     H275720   3.115   8.954   1.143
25160WAT      O75721   6.380   0.332   3.210
25160WAT     H175722   6.463   0.322   3.266
25160WAT     H275723   6.320   0.254   3.225
25161WAT      O75724   0.406   4.327   1.622
25161WAT     H175725   0.452   4.266   1.686
25161WAT     H275726   0.361   4.401   1.673
25162WAT      O75727   7.986   0.228   3.708
25162WAT     H175728   8.065   0.173   3.734
25162WAT     H275729   7.931   0.178   3.641
25163WAT      O75730   1.895   2.346   9.628
25163WAT     H175731   1.898   2.275   9.558
25163WAT     H275732   1.815   2.331   9.687
25164WAT      O75733   4.079   6.343   2.086
25164WAT     H175734   4.119   6.356   1.995
25164WAT     H275735   4.011   6.414   2.103
25165WAT      O75736   7.735   7.431   5.545
25165WAT     H175737   7.690   7.508   5.500
25165WAT     H275738   7.834   7.443   5.539
25166WAT      O75739   4.662   8.442   2.429
25166WAT     H175740   4.759   8.420   2.436
25166WAT     H275741   4.639   8.512   2.497
25167WAT      O75742   4.592   3.375   1.861
25167WAT     H175743   4.623   3.394   1.954
25167WAT     H275744   4.533   3.449   1.830
25168WAT      O75745   5.004   0.528   4.057
25168WAT     H175746   5.025   0.498   4.150
25168WAT     H275747   4.940   0.464   4.015
25169WAT      O75748   2.000   0.876   8.814
25169WAT     H175749   1.987   0.974   8.828
25169WAT     H275750   1.910   0.833   8.800
25170WAT      O75751   5.413   8.160   9.832
25170WAT     H175752   5.400   8.134   9.928
25170WAT     H275753   5.510   8.157   9.809
25171WAT      O75754   5.370   8.550   3.599
25171WAT     H175755   5.320   8.467   3.623
25171WAT     H275756   5.432   8.574   3.674
25172WAT      O75757   2.843   6.039   3.106
25172WAT     H175758   2.902   6.096   3.163
25172WAT     H275759   2.883   5.948   3.097
25173WAT      O75760   2.183   6.099   5.916
25173WAT     H175761   2.246   6.033   5.958
25173WAT     H275762   2.214   6.192   5.937
25174WAT      O75763   0.290   5.361   6.057
25174WAT     H175764   0.225   5.437   6.053
25174WAT     H275765   0.346   5.361   5.974
25175WAT      O75766   2.575   5.233   8.912
25175WAT     H175767   2.652   5.236   8.974
25175WAT     H275768   2.602   5.187   8.827
25176WAT      O75769   9.614   9.456   0.746
25176WAT     H175770   9.674   9.503   0.681
25176WAT     H275771   9.602   9.513   0.827
25177WAT      O75772   7.281   8.140   1.704
25177WAT     H175773   7.201   8.149   1.645
25177WAT     H275774   7.333   8.225   1.703
25178WAT      O75775   0.384   7.127   4.611
25178WAT     H175776   0.426   7.215   4.634
25178WAT     H275777   0.363   7.123   4.514
25179WAT      O75778   7.321   3.836   2.507
25179WAT     H175779   7.305   3.880   2.595
25179WAT     H275780   7.417   3.810   2.499
25180WAT      O75781   5.106   5.066   5.086
25180WAT     H175782   5.117   5.041   4.990
25180WAT     H275783   5.022   5.119   5.097
25181WAT      O75784   6.580   0.155   3.559
25181WAT     H175785   6.593   0.197   3.470
25181WAT     H275786   6.549   0.224   3.625
25182WAT      O75787   5.215   5.214   8.260
25182WAT     H175788   5.228   5.304   8.218
25182WAT     H275789   5.302   5.164   8.259
25183WAT      O75790   3.814   4.142   8.951
25183WAT     H175791   3.879   4.072   8.979
25183WAT     H275792   3.825   4.160   8.853
25184WAT      O75793   7.810   8.894   7.266
25184WAT     H175794   7.842   8.935   7.351
25184WAT     H275795   7.888   8.870   7.208
25185WAT      O75796   1.854   3.228   0.455
25185WAT     H175797   1.838   3.248   0.358
25185WAT     H275798   1.766   3.230   0.504
25186WAT      O75799   7.616   9.402   0.379
25186WAT     H175800   7.532   9.435   0.423
25186WAT     H275801   7.639   9.462   0.302
25187WAT      O75802   2.165   2.490   0.037
25187WAT     H175803   2.252   2.516  -0.006
25187WAT     H275804   2.090   2.532  -0.013
25188WAT      O75805   4.776   3.627   8.053
25188WAT     H175806   4.677   3.624   8.043
25188WAT     H275807   4.801   3.600   8.147
25189WAT      O75808   3.913   2.590   8.922
25189WAT     H175809   3.858   2.668   8.953
25189WAT     H275810   3.897   2.574   8.824
25190WAT      O75811   7.101   6.348   4.896
25190WAT     H175812   7.159   6.425   4.923
25190WAT     H275813   7.148   6.262   4.915
25191WAT      O75814   6.779   5.131   5.900
25191WAT     H175815   6.874   5.143   5.931
25191WAT     H275816   6.731   5.070   5.963
25192WAT      O75817   6.338   8.826   8.749
25192WAT     H175818   6.418   8.866   8.794
25192WAT     H275819   6.255   8.851   8.799
25193WAT      O75820   0.523   4.839   3.168
25193WAT     H175821   0.438   4.883   3.200
25193WAT     H275822   0.601   4.890   3.203
25194WAT      O75823   4.034   3.056   4.427
25194WAT     H175824   4.073   2.977   4.476
25194WAT     H275825   4.003   3.124   4.494
25195WAT      O75826   5.702   9.432   8.428
25195WAT     H175827   5.779   9.368   8.425
25195WAT     H275828   5.619   9.387   8.393
25196WAT      O75829   6.052   1.646   0.240
25196WAT     H175830   5.999   1.645   0.155
25196WAT     H275831   5.989   1.638   0.318
25197WAT      O75832   3.612   0.857   7.632
25197WAT     H175833   3.633   0.773   7.683
25197WAT     H275834   3.585   0.833   7.539
25198WAT      O75835   5.581   5.256   2.492
25198WAT     H175836   5.637   5.278   2.572
25198WAT     H275837   5.488   5.233   2.521
25199WAT      O75838   2.644   8.593   3.289
25199WAT     H175839   2.701   8.632   3.361
25199WAT     H275840   2.681   8.618   3.199
25200WAT      O75841   7.313   0.204   0.985
25200WAT     H175842   7.329   0.297   1.018
25200WAT     H275843   7.392   0.173   0.932
25201WAT      O75844   6.158   3.471   6.649
25201WAT     H175845   6.144   3.385   6.699
25201WAT     H275846   6.182   3.543   6.714
25202WAT      O75847   5.203   6.096   7.828
25202WAT     H175848   5.231   6.190   7.851
25202WAT     H275849   5.184   6.090   7.730
25203WAT      O75850   7.586   1.616   4.541
25203WAT     H175851   7.563   1.702   4.496
25203WAT     H275852   7.684   1.613   4.558
25204WAT      O75853   0.524   3.529   3.445
25204WAT     H175854   0.520   3.535   3.545
25204WAT     H275855   0.606   3.479   3.418
25205WAT      O75856   4.599   9.078   9.393
25205WAT     H175857   4.580   9.153   9.456
25205WAT     H275858   4.679   9.027   9.425
25206WAT      O75859   6.488   2.593   8.698
25206WAT     H175860   6.442   2.506   8.680
25206WAT     H275861   6.420   2.663   8.719
25207WAT      O75862   3.485   8.232   2.223
25207WAT     H175863   3.578   8.196   2.231
25207WAT     H275864   3.427   8.190   2.292
25208WAT      O75865   9.413   0.938   1.807
25208WAT     H175866   9.331   0.913   1.754
25208WAT     H275867   9.386   0.990   1.888
25209WAT      O75868   0.718   8.813   3.230
25209WAT     H175869   0.635   8.775   3.270
25209WAT     H275870   0.749   8.754   3.155
25210WAT      O75871   3.882   4.659   3.802
25210WAT     H175872   3.919   4.747   3.775
25210WAT     H275873   3.940   4.619   3.874
25211WAT      O75874   4.289   7.085   4.568
25211WAT     H175875   4.207   7.139   4.548
25211WAT     H275876   4.370   7.135   4.535
25212WAT      O75877   4.110   5.301   0.770
25212WAT     H175878   4.043   5.370   0.796
25212WAT     H275879   4.137   5.314   0.675
25213WAT      O75880   2.686   5.707   2.986
25213WAT     H175881   2.785   5.713   3.003
25213WAT     H275882   2.660   5.775   2.917
25214WAT      O75883   2.120   0.039   5.896
25214WAT     H175884   2.053   0.042   5.970
25214WAT     H275885   2.073   0.022   5.809
25215WAT      O75886   0.068   8.338   7.378
25215WAT     H175887  -0.002   8.278   7.339
25215WAT     H275888   0.024   8.423   7.409
25216WAT      O75889   2.476   2.556   8.933
25216WAT     H175890   2.535   2.589   8.860
25216WAT     H275891   2.432   2.471   8.904
25217WAT      O75892   8.417   7.662   0.470
25217WAT     H175893   8.481   7.693   0.400
25217WAT     H275894   8.356   7.592   0.431
25218WAT      O75895   1.600   3.250   0.531
25218WAT     H175896   1.616   3.285   0.624
25218WAT     H275897   1.554   3.162   0.537
25219WAT      O75898   7.339   4.118   5.790
25219WAT     H175899   7.351   4.033   5.739
25219WAT     H275900   7.253   4.162   5.763
25220WAT      O75901   8.105   9.253   2.719
25220WAT     H175902   8.009   9.273   2.700
25220WAT     H275903   8.136   9.180   2.658
25221WAT      O75904   4.669   2.654   9.092
25221WAT     H175905   4.753   2.708   9.086
25221WAT     H275906   4.592   2.714   9.113
25222WAT      O75907   1.592   3.717   0.670
25222WAT     H175908   1.580   3.665   0.755
25222WAT     H275909   1.560   3.811   0.685
25223WAT      O75910   6.090   6.535   6.790
25223WAT     H175911   6.044   6.454   6.753
25223WAT     H275912   6.189   6.523   6.785
25224WAT      O75913   3.634   2.936   8.177
25224WAT     H175914   3.571   2.998   8.130
25224WAT     H275915   3.700   2.990   8.231
25225WAT      O75916   9.550   6.063   8.199
25225WAT     H175917   9.498   6.145   8.221
25225WAT     H275918   9.488   5.985   8.190
25226WAT      O75919   8.472   7.122   7.612
25226WAT     H175920   8.397   7.125   7.679
25226WAT     H275921   8.496   7.027   7.594
25227WAT      O75922   4.816   8.981   5.176
25227WAT     H175923   4.829   8.951   5.081
25227WAT     H275924   4.799   9.079   5.177
25228WAT      O75925   4.106   3.414   0.795
25228WAT     H175926   4.077   3.395   0.702
25228WAT     H275927   4.061   3.351   0.858
25229WAT      O75928   9.126   8.897   9.709
25229WAT     H175929   9.033   8.886   9.675
25229WAT     H275930   9.140   8.836   9.787
25230WAT      O75931   3.564   0.554   2.353
25230WAT     H175932   3.580   0.497   2.272
25230WAT     H275933   3.494   0.622   2.332
25231WAT      O75934   4.514   1.979   2.563
25231WAT     H175935   4.484   1.885   2.580
25231WAT     H275936   4.608   1.990   2.594
25232WAT      O75937   9.023   2.845   1.609
25232WAT     H175938   8.986   2.780   1.675
25232WAT     H275939   8.952   2.871   1.543
25233WAT      O75940   9.372   6.405   8.725
25233WAT     H175941   9.336   6.405   8.818
25233WAT     H275942   9.457   6.458   8.722
25234WAT      O75943   6.612   2.622   1.051
25234WAT     H175944   6.552   2.620   1.131
25234WAT     H275945   6.562   2.592   0.971
25235WAT      O75946   5.035   7.566   0.375
25235WAT     H175947   4.976   7.490   0.400
25235WAT     H275948   5.018   7.643   0.436
25236WAT      O75949   3.445   7.815   6.885
25236WAT     H175950   3.540   7.795   6.859
25236WAT     H275951   3.407   7.884   6.823
25237WAT      O75952   5.155   0.833   7.239
25237WAT     H175953   5.075   0.774   7.253
25237WAT     H275954   5.143   0.918   7.290
25238WAT      O75955   2.437   4.076   5.832
25238WAT     H175956   2.418   4.033   5.920
25238WAT     H275957   2.471   4.169   5.847
25239WAT      O75958   5.287   8.287   1.822
25239WAT     H175959   5.383   8.312   1.810
25239WAT     H275960   5.234   8.368   1.848
25240WAT      O75961   9.791   6.612   4.656
25240WAT     H175962   9.856   6.647   4.723
25240WAT     H275963   9.800   6.664   4.571
25241WAT      O75964   0.751   1.701   4.515
25241WAT     H175965   0.711   1.785   4.478
25241WAT     H275966   0.706   1.678   4.601
25242WAT      O75967   4.625   7.604   4.175
25242WAT     H175968   4.708   7.659   4.172
25242WAT     H275969   4.578   7.619   4.262
25243WAT      O75970   2.942   4.250   3.587
25243WAT     H175971   2.943   4.334   3.642
25243WAT     H275972   3.036   4.220   3.572
25244WAT      O75973   2.015   6.715   6.257
25244WAT     H175974   2.108   6.690   6.284
25244WAT     H275975   2.011   6.727   6.158
25245WAT      O75976   5.153   2.550   4.515
25245WAT     H175977   5.203   2.463   4.523
25245WAT     H275978   5.186   2.613   4.585
25246WAT      O75979   9.350   8.678   0.781
25246WAT     H175980   9.425   8.730   0.740
25246WAT     H275981   9.355   8.684   0.880
25247WAT      O75982   8.218   5.815   6.734
25247WAT     H175983   8.257   5.900   6.769
25247WAT     H275984   8.137   5.836   6.680
25248WAT      O75985   6.407   5.939   2.198
25248WAT     H175986   6.475   5.929   2.271
25248WAT     H275987   6.320   5.967   2.237
25249WAT      O75988   7.469   5.758   4.369
25249WAT     H175989   7.402   5.794   4.434
25249WAT     H275990   7.430   5.680   4.320
25250WAT      O75991   6.165   2.632   8.575
25250WAT     H175992   6.163   2.651   8.673
25250WAT     H275993   6.078   2.659   8.533
25251WAT      O75994   2.769   3.154   2.849
25251WAT     H175995   2.787   3.225   2.781
25251WAT     H275996   2.699   3.092   2.814
25252WAT      O75997   9.718   1.368   8.061
25252WAT     H175998   9.664   1.285   8.044
25252WAT     H275999   9.813   1.352   8.034
25253WAT      O76000   8.882   0.530   8.407
25253WAT     H176001   8.880   0.620   8.363
25253WAT     H276002   8.789   0.501   8.428
25254WAT      O76003   9.089   3.530   4.986
25254WAT     H176004   9.151   3.580   5.045
25254WAT     H276005   9.092   3.568   4.893
25255WAT      O76006   1.541   8.979   3.020
25255WAT     H176007   1.541   8.903   2.956
25255WAT     H276008   1.468   9.043   2.996
25256WAT      O76009   9.206   6.794   4.506
25256WAT     H176010   9.185   6.836   4.594
25256WAT     H276011   9.303   6.772   4.501
25257WAT      O76012   7.154   1.233   2.967
25257WAT     H176013   7.093   1.295   2.919
25257WAT     H276014   7.218   1.285   3.024
25258WAT      O76015   1.687   3.607   3.177
25258WAT     H176016   1.769   3.553   3.158
25258WAT     H276017   1.701   3.664   3.257
25259WAT      O76018   0.975   1.341   4.642
25259WAT     H176019   0.979   1.280   4.721
25259WAT     H276020   1.066   1.353   4.603
25260WAT      O76021   2.692   4.497   4.063
25260WAT     H176022   2.761   4.428   4.087
25260WAT     H276023   2.605   4.452   4.043
25261WAT      O76024   6.934   6.780   1.178
25261WAT     H176025   6.886   6.843   1.239
25261WAT     H276026   6.926   6.812   1.083
25262WAT      O76027   5.558   6.436   6.725
25262WAT     H176028   5.558   6.474   6.817
25262WAT     H276029   5.535   6.507   6.658
25263WAT      O76030   6.713   7.321   6.316
25263WAT     H176031   6.663   7.291   6.234
25263WAT     H276032   6.648   7.350   6.386
25264WAT      O76033   2.027   4.498   8.438
25264WAT     H176034   2.005   4.418   8.383
25264WAT     H276035   1.943   4.540   8.472
25265WAT      O76036   1.258   9.157   7.356
25265WAT     H176037   1.215   9.167   7.446
25265WAT     H276038   1.354   9.133   7.368
25266WAT      O76039   6.791   8.822   8.096
25266WAT     H176040   6.700   8.793   8.127
25266WAT     H276041   6.859   8.758   8.129
25267WAT      O76042   8.739   5.116   7.484
25267WAT     H176043   8.811   5.086   7.547
25267WAT     H276044   8.709   5.039   7.428
25268WAT      O76045   2.093   9.090   0.152
25268WAT     H176046   2.002   9.121   0.127
25268WAT     H276047   2.087   9.036   0.236
25269WAT      O76048   9.065   6.641   3.692
25269WAT     H176049   9.134   6.683   3.751
25269WAT     H276050   9.094   6.648   3.596
25270WAT      O76051   0.445   2.120   9.863
25270WAT     H176052   0.497   2.161   9.788
25270WAT     H276053   0.394   2.192   9.911
25271WAT      O76054   1.719   9.747   9.389
25271WAT     H176055   1.801   9.716   9.438
25271WAT     H276056   1.739   9.753   9.291
25272WAT      O76057   0.834   4.419   6.415
25272WAT     H176058   0.772   4.347   6.383
25272WAT     H276059   0.794   4.508   6.393
25273WAT      O76060   6.716   4.928   4.815
25273WAT     H176061   6.665   5.014   4.810
25273WAT     H276062   6.729   4.892   4.723
25274WAT      O76063   4.540   7.767   9.717
25274WAT     H176064   4.478   7.841   9.689
25274WAT     H276065   4.627   7.806   9.746
25275WAT      O76066   3.246   1.788   8.073
25275WAT     H176067   3.312   1.808   8.144
25275WAT     H276068   3.214   1.693   8.082
25276WAT      O76069   7.051   6.708   5.367
25276WAT     H176070   7.092   6.724   5.457
25276WAT     H276071   7.021   6.795   5.327
25277WAT      O76072   9.836   9.596   3.903
25277WAT     H176073   9.777   9.516   3.915
25277WAT     H276074   9.790   9.663   3.846
25278WAT      O76075   1.215   4.976   4.941
25278WAT     H176076   1.186   4.882   4.961
25278WAT     H276077   1.264   5.013   5.020
25279WAT      O76078   6.617   7.984   3.111
25279WAT     H176079   6.538   7.967   3.170
25279WAT     H276080   6.685   8.038   3.160
25280WAT      O76081   3.314   4.643   8.770
25280WAT     H176082   3.226   4.658   8.816
25280WAT     H276083   3.374   4.721   8.787
25281WAT      O76084   8.347   6.818   7.152
25281WAT     H176085   8.434   6.768   7.146
25281WAT     H276086   8.272   6.758   7.125
25282WAT      O76087   4.184   2.925   5.083
25282WAT     H176088   4.228   2.898   4.998
25282WAT     H276089   4.237   2.997   5.128
25283WAT      O76090   3.533   6.238   3.777
25283WAT     H176091   3.454   6.262   3.720
25283WAT     H276092   3.521   6.277   3.869
25284WAT      O76093   9.298   2.381   1.653
25284WAT     H176094   9.234   2.378   1.730
25284WAT     H276095   9.252   2.423   1.574
25285WAT      O76096   4.710   3.242   0.381
25285WAT     H176097   4.692   3.217   0.476
25285WAT     H276098   4.678   3.334   0.363
25286WAT      O76099   4.214   3.304   7.185
25286WAT     H176100   4.184   3.295   7.090
25286WAT     H276101   4.305   3.345   7.188
25287WAT      O76102   0.301   5.747   9.192
25287WAT     H176103   0.326   5.699   9.276
25287WAT     H276104   0.248   5.829   9.215
25288WAT      O76105   3.793   7.334   0.106
25288WAT     H176106   3.770   7.240   0.129
25288WAT     H276107   3.885   7.356   0.140
25289WAT      O76108   3.273   8.267   6.517
25289WAT     H176109   3.298   8.226   6.604
25289WAT     H276110   3.230   8.198   6.459
25290WAT      O76111   3.473   6.009   8.593
25290WAT     H176112   3.447   6.054   8.679
25290WAT     H276113   3.393   6.005   8.533
25291WAT      O76114   6.726   7.136   2.408
25291WAT     H176115   6.794   7.093   2.348
25291WAT     H276116   6.751   7.119   2.503
25292WAT      O76117   0.123   6.321   9.620
25292WAT     H176118   0.183   6.386   9.574
25292WAT     H276119   0.075   6.367   9.695
25293WAT      O76120   1.787   5.425   7.055
25293WAT     H176121   1.716   5.404   7.122
25293WAT     H276122   1.760   5.387   6.966
25294WAT      O76123   6.732   7.529   0.079
25294WAT     H176124   6.664   7.488   0.140
25294WAT     H276125   6.823   7.521   0.121
25295WAT      O76126   6.325   1.789   3.556
25295WAT     H176127   6.349   1.753   3.646
25295WAT     H276128   6.256   1.730   3.513
25296WAT      O76129   5.963   8.551   4.554
25296WAT     H176130   5.890   8.498   4.598
25296WAT     H276131   5.985   8.630   4.611
25297WAT      O76132   0.378   9.460   5.944
25297WAT     H176133   0.339   9.452   5.852
25297WAT     H276134   0.474   9.432   5.942
25298WAT      O76135   9.718   7.159   8.572
25298WAT     H176136   9.774   7.240   8.591
25298WAT     H276137   9.621   7.181   8.585
25299WAT      O76138   4.955   4.137   3.502
25299WAT     H176139   4.890   4.093   3.441
25299WAT     H276140   5.007   4.068   3.551
25300WAT      O76141   8.437   7.539   8.283
25300WAT     H176142   8.376   7.610   8.318
25300WAT     H276143   8.421   7.453   8.332
25301WAT      O76144   1.856   3.406   1.091
25301WAT     H176145   1.785   3.407   1.160
25301WAT     H276146   1.835   3.473   1.020
25302WAT      O76147   1.400   9.288   1.726
25302WAT     H176148   1.322   9.227   1.736
25302WAT     H276149   1.440   9.278   1.635
25303WAT      O76150   5.703   9.109   0.362
25303WAT     H176151   5.765   9.074   0.432
25303WAT     H276152   5.626   9.157   0.406
25304WAT      O76153   3.710   9.457   3.049
25304WAT     H176154   3.729   9.534   3.111
25304WAT     H276155   3.623   9.415   3.075
25305WAT      O76156   1.093   5.700   1.901
25305WAT     H176157   1.049   5.785   1.931
25305WAT     H276158   1.185   5.722   1.866
25306WAT      O76159   1.005   5.660   8.667
25306WAT     H176160   1.059   5.741   8.686
25306WAT     H276161   0.914   5.669   8.709
25307WAT      O76162   0.569   8.376   6.145
25307WAT     H176163   0.480   8.384   6.099
25307WAT     H276164   0.625   8.456   6.124
25308WAT      O76165   9.350   4.719   4.971
25308WAT     H176166   9.345   4.771   4.886
25308WAT     H276167   9.433   4.742   5.020
25309WAT      O76168   3.044   8.295   1.182
25309WAT     H176169   3.106   8.279   1.260
25309WAT     H276170   3.058   8.388   1.147
25310WAT      O76171   4.942   2.651   3.494
25310WAT     H176172   5.012   2.580   3.492
25310WAT     H276173   4.986   2.741   3.501
25311WAT      O76174   9.459   7.439   7.022
25311WAT     H176175   9.384   7.494   6.985
25311WAT     H276176   9.457   7.441   7.122
25312WAT      O76177   0.864   3.397   0.504
25312WAT     H176178   0.897   3.444   0.586
25312WAT     H276179   0.883   3.300   0.512
25313WAT      O76180   5.957   9.710   6.817
25313WAT     H176181   6.055   9.695   6.802
25313WAT     H276182   5.943   9.800   6.858
25314WAT      O76183   4.766   2.644   9.423
25314WAT     H176184   4.748   2.722   9.363
25314WAT     H276185   4.721   2.562   9.386
25315WAT      O76186   6.434   6.636   3.698
25315WAT     H176187   6.499   6.560   3.695
25315WAT     H276188   6.346   6.606   3.661
25316WAT      O76189   6.692   8.578   2.845
25316WAT     H176190   6.673   8.535   2.757
25316WAT     H276191   6.605   8.597   2.892
25317WAT      O76192   0.647   6.265   5.728
25317WAT     H176193   0.712   6.192   5.706
25317WAT     H276194   0.590   6.283   5.647
25318WAT      O76195   7.916   3.862   2.561
25318WAT     H176196   7.936   3.776   2.514
25318WAT     H276197   8.000   3.914   2.572
25319WAT      O76198   7.416   4.505   2.385
25319WAT     H176199   7.449   4.523   2.293
25319WAT     H276200   7.471   4.557   2.451
25320WAT      O76201   8.580   0.222   4.306
25320WAT     H176202   8.558   0.265   4.219
25320WAT     H276203   8.541   0.130   4.309
25321WAT      O76204   3.690   0.952   4.776
25321WAT     H176205   3.756   1.024   4.794
25321WAT     H276206   3.597   0.988   4.789
25322WAT      O76207   3.741   7.930   7.047
25322WAT     H176208   3.817   7.948   6.985
25322WAT     H276209   3.658   7.974   7.013
25323WAT      O76210   7.796   5.474   1.657
25323WAT     H176211   7.802   5.435   1.748
25323WAT     H276212   7.747   5.412   1.596
25324WAT      O76213   0.022   6.421   0.754
25324WAT     H176214   0.038   6.431   0.852
25324WAT     H276215   0.010   6.324   0.732
25325WAT      O76216   8.356   4.762   0.416
25325WAT     H176217   8.316   4.677   0.381
25325WAT     H276218   8.426   4.740   0.484
25326WAT      O76219   8.253   8.819   9.136
25326WAT     H176220   8.159   8.788   9.120
25326WAT     H276221   8.275   8.892   9.072
25327WAT      O76222   6.839   5.014   9.042
25327WAT     H176223   6.783   5.051   8.967
25327WAT     H276224   6.796   5.038   9.130
25328WAT      O76225   9.507   6.819   7.002
25328WAT     H176226   9.474   6.803   6.909
25328WAT     H276227   9.438   6.869   7.054
25329WAT      O76228   3.287   3.349   3.108
25329WAT     H176229   3.227   3.311   3.178
25329WAT     H276230   3.234   3.373   3.028
25330WAT      O76231   5.937   8.580   8.945
25330WAT     H176232   5.963   8.661   8.892
25330WAT     H276233   5.888   8.516   8.887
25331WAT      O76234   9.339   3.784   9.684
25331WAT     H176235   9.374   3.808   9.775
25331WAT     H276236   9.240   3.799   9.681
25332WAT      O76237   4.247   2.682   0.909
25332WAT     H176238   4.258   2.593   0.954
25332WAT     H276239   4.292   2.753   0.964
25333WAT      O76240   1.810   4.636   3.740
25333WAT     H176241   1.774   4.626   3.833
25333WAT     H276242   1.905   4.667   3.744
25334WAT      O76243   5.046   7.392   0.744
25334WAT     H176244   5.011   7.322   0.682
25334WAT     H276245   5.064   7.351   0.834
25335WAT      O76246   6.049   6.097   1.985
25335WAT     H176247   6.031   6.001   1.966
25335WAT     H276248   6.107   6.136   1.914
25336WAT      O76249   8.757   3.135   6.995
25336WAT     H176250   8.675   3.079   7.008
25336WAT     H276251   8.812   3.134   7.079
25337WAT      O76252   4.039   8.991   0.687
25337WAT     H176253   4.130   9.029   0.670
25337WAT     H276254   3.980   9.063   0.724
25338WAT      O76255   6.346   3.578   1.358
25338WAT     H176256   6.279   3.513   1.395
25338WAT     H276257   6.391   3.626   1.434
25339WAT      O76258   3.110   9.671   9.526
25339WAT     H176259   3.059   9.725   9.593
25339WAT     H276260   3.169   9.605   9.574
25340WAT      O76261   2.958   3.811   8.041
25340WAT     H176262   2.899   3.731   8.032
25340WAT     H276263   3.041   3.798   7.987
25341WAT      O76264   7.736   1.428   0.447
25341WAT     H176265   7.747   1.401   0.542
25341WAT     H276266   7.710   1.524   0.443
25342WAT      O76267   4.593   2.786   1.286
25342WAT     H176268   4.496   2.796   1.267
25342WAT     H276269   4.646   2.834   1.216
25343WAT      O76270   3.481   6.949   4.279
25343WAT     H176271   3.513   6.873   4.222
25343WAT     H276272   3.434   6.913   4.359
25344WAT      O76273   6.421   7.759   5.054
25344WAT     H176274   6.466   7.730   4.969
25344WAT     H276275   6.373   7.681   5.094
25345WAT      O76276   7.917   2.338   2.475
25345WAT     H176277   8.008   2.379   2.474
25345WAT     H276278   7.873   2.357   2.562
25346WAT      O76279   7.583   5.775   0.498
25346WAT     H176280   7.632   5.779   0.585
25346WAT     H276281   7.523   5.855   0.490
25347WAT      O76282   8.099   3.273   9.273
25347WAT     H176283   8.155   3.233   9.201
25347WAT     H276284   8.122   3.230   9.361
25348WAT      O76285   8.477   3.643   9.197
25348WAT     H176286   8.482   3.740   9.219
25348WAT     H276287   8.469   3.631   9.098
25349WAT      O76288   7.036   9.143   2.265
25349WAT     H176289   6.973   9.202   2.315
25349WAT     H276290   7.105   9.107   2.327
25350WAT      O76291   9.516   2.797   7.512
25350WAT     H176292   9.442   2.832   7.571
25350WAT     H276293   9.534   2.702   7.536
25351WAT      O76294   5.905   9.006   7.129
25351WAT     H176295   5.972   9.080   7.120
25351WAT     H276296   5.889   8.987   7.226
25352WAT      O76297   9.660   2.222   2.486
25352WAT     H176298   9.676   2.220   2.387
25352WAT     H276299   9.589   2.289   2.507
25353WAT      O76300   0.820   9.172   5.383
25353WAT     H176301   0.881   9.113   5.329
25353WAT     H276302   0.749   9.115   5.425
25354WAT      O76303   2.593   1.350   0.275
25354WAT     H176304   2.546   1.286   0.214
25354WAT     H276305   2.691   1.336   0.267
25355WAT      O76306   2.251   1.284   3.500
25355WAT     H176307   2.208   1.353   3.557
25355WAT     H276308   2.181   1.231   3.453
25356WAT      O76309   3.044   5.139   3.572
25356WAT     H176310   2.972   5.103   3.513
25356WAT     H276311   3.041   5.091   3.660
25357WAT      O76312   4.505   5.607   0.826
25357WAT     H176313   4.417   5.652   0.809
25357WAT     H276314   4.501   5.555   0.911
25358WAT      O76315   3.157   3.976   1.683
25358WAT     H176316   3.180   4.051   1.744
25358WAT     H276317   3.134   4.012   1.592
25359WAT      O76318   4.697   1.998   8.822
25359WAT     H176319   4.737   2.084   8.854
25359WAT     H276320   4.696   1.932   8.898
25360WAT      O76321   3.393   4.599   3.170
25360WAT     H176322   3.395   4.662   3.248
25360WAT     H276323   3.459   4.629   3.102
25361WAT      O76324   0.169   3.733   8.372
25361WAT     H176325   0.250   3.726   8.313
25361WAT     H276326   0.108   3.803   8.336
25362WAT      O76327   3.112   6.053   9.185
25362WAT     H176328   3.183   6.019   9.123
25362WAT     H276329   3.154   6.095   9.265
25363WAT      O76330   8.731   6.656   5.346
25363WAT     H176331   8.762   6.748   5.368
25363WAT     H276332   8.758   6.632   5.252
25364WAT      O76333   9.755   9.184   1.371
25364WAT     H176334   9.680   9.213   1.430
25364WAT     H276335   9.793   9.098   1.405
25365WAT      O76336   0.329   7.404   1.533
25365WAT     H176337   0.263   7.345   1.579
25365WAT     H276338   0.308   7.500   1.553
25366WAT      O76339   4.197   5.644   2.971
25366WAT     H176340   4.115   5.667   3.023
25366WAT     H276341   4.272   5.705   2.997
25367WAT      O76342   8.226   6.775   1.550
25367WAT     H176343   8.295   6.843   1.573
25367WAT     H276344   8.142   6.794   1.601
25368WAT      O76345   1.677   4.683   7.569
25368WAT     H176346   1.590   4.637   7.585
25368WAT     H276347   1.680   4.715   7.474
25369WAT      O76348   6.259   0.332   0.834
25369WAT     H176349   6.320   0.366   0.763
25369WAT     H276350   6.169   0.315   0.795
25370WAT      O76351   4.594   6.576   5.189
25370WAT     H176352   4.541   6.499   5.226
25370WAT     H276353   4.543   6.661   5.201
25371WAT      O76354   6.333   6.196   5.837
25371WAT     H176355   6.408   6.167   5.778
25371WAT     H276356   6.315   6.126   5.905
25372WAT      O76357   8.771   9.603   6.760
25372WAT     H176358   8.716   9.520   6.766
25372WAT     H276359   8.804   9.627   6.851
25373WAT      O76360   8.584   1.799   7.138
25373WAT     H176361   8.595   1.811   7.237
25373WAT     H276362   8.573   1.888   7.095
25374WAT      O76363   7.807   3.751   8.832
25374WAT     H176364   7.809   3.814   8.910
25374WAT     H276365   7.740   3.678   8.850
25375WAT      O76366   9.596   6.714   9.800
25375WAT     H176367   9.561   6.674   9.885
25375WAT     H276368   9.681   6.764   9.818
25376WAT      O76369   1.155   8.519   5.107
25376WAT     H176370   1.230   8.585   5.103
25376WAT     H276371   1.155   8.462   5.025
25377WAT      O76372   8.295   3.883   4.384
25377WAT     H176373   8.281   3.812   4.454
25377WAT     H276374   8.225   3.953   4.394
25378WAT      O76375   2.305   6.856   3.994
25378WAT     H176376   2.228   6.822   3.939
25378WAT     H276377   2.318   6.953   3.975
25379WAT      O76378   7.852   2.732   7.549
25379WAT     H176379   7.777   2.789   7.518
25379WAT     H276380   7.820   2.671   7.622
25380WAT      O76381   5.663   7.384   0.545
25380WAT     H176382   5.718   7.374   0.462
25380WAT     H276383   5.709   7.447   0.608
25381WAT      O76384   0.546   4.814   4.278
25381WAT     H176385   0.508   4.903   4.302
25381WAT     H276386   0.483   4.766   4.216
25382WAT      O76387   7.564   1.499   8.208
25382WAT     H176388   7.508   1.577   8.236
25382WAT     H276389   7.595   1.512   8.114
25383WAT      O76390   1.070   7.443   0.840
25383WAT     H176391   1.010   7.505   0.890
25383WAT     H276392   1.057   7.457   0.742
25384WAT      O76393   5.833   3.886   2.008
25384WAT     H176394   5.755   3.907   1.950
25384WAT     H276395   5.804   3.831   2.086
25385WAT      O76396   6.452   4.149   2.554
25385WAT     H176397   6.502   4.066   2.529
25385WAT     H276398   6.368   4.125   2.602
25386WAT      O76399   2.892   7.600   4.153
25386WAT     H176400   2.964   7.574   4.217
25386WAT     H276401   2.833   7.669   4.195
25387WAT      O76402   2.070   5.067   8.309
25387WAT     H176403   2.139   5.050   8.380
25387WAT     H276404   1.993   5.117   8.349
25388WAT      O76405   8.375   0.241   5.786
25388WAT     H176406   8.426   0.156   5.777
25388WAT     H276407   8.382   0.294   5.701
25389WAT      O76408   1.372   8.811   5.346
25389WAT     H176409   1.285   8.828   5.393
25389WAT     H276410   1.441   8.874   5.381
25390WAT      O76411   8.499   5.389   1.456
25390WAT     H176412   8.488   5.334   1.539
25390WAT     H276413   8.572   5.351   1.400
25391WAT      O76414   8.734   5.986   2.493
25391WAT     H176415   8.806   5.989   2.423
25391WAT     H276416   8.645   5.977   2.449
25392WAT      O76417   1.952   4.011   6.949
25392WAT     H176418   1.881   4.082   6.940
25392WAT     H276419   1.961   3.985   7.045
25393WAT      O76420   7.492   7.378   1.160
25393WAT     H176421   7.498   7.292   1.110
25393WAT     H276422   7.407   7.425   1.136
25394WAT      O76423   5.175   3.436   9.318
25394WAT     H176424   5.080   3.435   9.350
25394WAT     H276425   5.198   3.527   9.285
25395WAT      O76426   1.338   6.439   8.597
25395WAT     H176427   1.327   6.533   8.563
25395WAT     H276428   1.433   6.424   8.625
25396WAT      O76429   2.685   9.358   4.894
25396WAT     H176430   2.604   9.370   4.953
25396WAT     H276431   2.656   9.359   4.798
25397WAT      O76432   2.165   9.620   5.629
25397WAT     H176433   2.192   9.604   5.723
25397WAT     H276434   2.114   9.541   5.595
25398WAT      O76435   4.844   8.819   8.616
25398WAT     H176436   4.942   8.837   8.607
25398WAT     H276437   4.829   8.744   8.681
25399WAT      O76438   5.453   2.236   3.493
25399WAT     H176439   5.367   2.215   3.540
25399WAT     H276440   5.434   2.302   3.420
25400WAT      O76441   7.593   4.299   6.337
25400WAT     H176442   7.589   4.303   6.237
25400WAT     H276443   7.684   4.326   6.368
25401WAT      O76444   6.706   9.385   7.677
25401WAT     H176445   6.798   9.391   7.637
25401WAT     H276446   6.702   9.304   7.735
25402WAT      O76447   4.630   7.477   0.243
25402WAT     H176448   4.610   7.488   0.340
25402WAT     H276449   4.560   7.523   0.188
25403WAT      O76450   2.861   4.144   9.065
25403WAT     H176451   2.904   4.159   9.154
25403WAT     H276452   2.906   4.068   9.018
25404WAT      O76453   3.420   7.528   8.974
25404WAT     H176454   3.391   7.622   8.989
25404WAT     H276455   3.372   7.467   9.036
25405WAT      O76456   6.519   1.676   7.404
25405WAT     H176457   6.572   1.714   7.329
25405WAT     H276458   6.449   1.614   7.368
25406WAT      O76459   7.722   0.576   7.937
25406WAT     H176460   7.755   0.577   7.843
25406WAT     H276461   7.800   0.562   7.999
25407WAT      O76462   7.432   6.400   6.151
25407WAT     H176463   7.462   6.421   6.244
25407WAT     H276464   7.384   6.312   6.150
25408WAT      O76465   0.986   2.828   9.476
25408WAT     H176466   0.899   2.786   9.451
25408WAT     H276467   1.031   2.863   9.393
25409WAT      O76468   9.365   9.659   9.329
25409WAT     H176469   9.292   9.725   9.342
25409WAT     H276470   9.418   9.683   9.248
25410WAT      O76471   5.043   4.721   7.499
25410WAT     H176472   5.127   4.668   7.514
25410WAT     H276473   4.965   4.670   7.534
25411WAT      O76474   5.703   9.659   0.489
25411WAT     H176475   5.703   9.758   0.499
25411WAT     H276476   5.615   9.630   0.450
25412WAT      O76477   2.057   6.923   3.391
25412WAT     H176478   2.074   6.824   3.394
25412WAT     H276479   1.981   6.945   3.452
25413WAT      O76480   9.242   7.559   3.521
25413WAT     H176481   9.276   7.522   3.608
25413WAT     H276482   9.318   7.598   3.470
25414WAT      O76483   3.824   1.691   6.077
25414WAT     H176484   3.762   1.656   6.147
25414WAT     H276485   3.813   1.637   5.993
25415WAT      O76486   0.599   6.884   5.519
25415WAT     H176487   0.698   6.870   5.509
25415WAT     H276488   0.551   6.808   5.474
25416WAT      O76489   1.975   0.900   4.968
25416WAT     H176490   1.957   0.973   4.902
25416WAT     H276491   1.904   0.830   4.961
25417WAT      O76492   4.461   0.055   0.026
25417WAT     H176493   4.480   0.028  -0.069
25417WAT     H276494   4.419   0.146   0.027
25418WAT      O76495   0.616   6.081   7.906
25418WAT     H176496   0.667   6.166   7.917
25418WAT     H276497   0.524   6.092   7.945
25419WAT      O76498   0.638   7.834   5.470
25419WAT     H176499   0.710   7.855   5.403
25419WAT     H276500   0.651   7.740   5.503
25420WAT      O76501   7.746   6.460   2.487
25420WAT     H176502   7.669   6.514   2.452
25420WAT     H276503   7.829   6.484   2.436
25421WAT      O76504   2.778   5.300   8.552
25421WAT     H176505   2.699   5.359   8.565
25421WAT     H276506   2.851   5.350   8.506
25422WAT      O76507   1.418   2.644   9.767
25422WAT     H176508   1.438   2.669   9.673
25422WAT     H276509   1.491   2.677   9.827
25423WAT      O76510   8.681   7.649   3.242
25423WAT     H176511   8.717   7.608   3.158
25423WAT     H276512   8.654   7.743   3.225
25424WAT      O76513   1.053   2.921   2.704
25424WAT     H176514   1.008   3.009   2.689
25424WAT     H276515   1.064   2.874   2.616
25425WAT      O76516   8.037   3.292   4.584
25425WAT     H176517   8.113   3.270   4.523
25425WAT     H276518   8.001   3.208   4.624
25426WAT      O76519   1.211   8.129   9.735
25426WAT     H176520   1.285   8.143   9.801
25426WAT     H276521   1.221   8.039   9.692
25427WAT      O76522   4.994   2.951   6.185
25427WAT     H176523   4.985   2.946   6.284
25427WAT     H276524   4.903   2.951   6.143
25428WAT      O76525   8.385   3.798   9.540
25428WAT     H176526   8.380   3.698   9.548
25428WAT     H276527   8.425   3.823   9.452
25429WAT      O76528   5.369   5.681   3.457
25429WAT     H176529   5.405   5.768   3.424
25429WAT     H276530   5.270   5.689   3.470
25430WAT      O76531   4.511   6.319   2.195
25430WAT     H176532   4.504   6.342   2.292
25430WAT     H276533   4.455   6.238   2.176
25431WAT      O76534   2.396   2.695   9.173
25431WAT     H176535   2.321   2.638   9.206
25431WAT     H276536   2.428   2.661   9.084
25432WAT      O76537   1.550   8.089   5.008
25432WAT     H176538   1.527   8.186   5.013
25432WAT     H276539   1.610   8.072   4.930
25433WAT      O76540   3.050   8.942   3.000
25433WAT     H176541   3.123   9.001   3.032
25433WAT     H276542   3.030   8.872   3.068
25434WAT      O76543   3.772   8.422   8.279
25434WAT     H176544   3.729   8.339   8.243
25434WAT     H276545   3.728   8.502   8.238
25435WAT      O76546   1.404   6.051   1.571
25435WAT     H176547   1.332   6.022   1.635
25435WAT     H276548   1.364   6.112   1.503
25436WAT      O76549   3.759   5.166   7.798
25436WAT     H176550   3.745   5.082   7.746
25436WAT     H276551   3.749   5.245   7.737
25437WAT      O76552   2.506   3.295   7.098
25437WAT     H176553   2.599   3.264   7.121
25437WAT     H276554   2.477   3.363   7.165
25438WAT      O76555   8.357   1.940   7.467
25438WAT     H176556   8.442   1.887   7.456
25438WAT     H276557   8.331   1.980   7.379
25439WAT      O76558   9.537   2.751   4.414
25439WAT     H176559   9.626   2.727   4.453
25439WAT     H276560   9.467   2.743   4.485
25440WAT      O76561   5.274   3.574   3.328
25440WAT     H176562   5.319   3.507   3.387
25440WAT     H276563   5.175   3.563   3.335
25441WAT      O76564   9.873   9.535   0.875
25441WAT     H176565   9.849   9.438   0.869
25441WAT     H276566   9.947   9.556   0.811
25442WAT      O76567   5.495   7.065   4.773
25442WAT     H176568   5.550   6.994   4.729
25442WAT     H276569   5.400   7.058   4.744
25443WAT      O76570   2.551   5.463   1.859
25443WAT     H176571   2.510   5.412   1.934
25443WAT     H276572   2.479   5.497   1.798
25444WAT      O76573   6.840   3.044   0.851
25444WAT     H176574   6.775   2.969   0.863
25444WAT     H276575   6.852   3.061   0.753
25445WAT      O76576   8.824   6.914   5.430
25445WAT     H176577   8.881   6.961   5.362
25445WAT     H276578   8.845   6.949   5.521
25446WAT      O76579   7.749   0.979   7.915
25446WAT     H176580   7.677   0.917   7.945
25446WAT     H276581   7.787   0.948   7.828
25447WAT      O76582   7.146   4.269   0.589
25447WAT     H176583   7.115   4.226   0.673
25447WAT     H276584   7.098   4.356   0.576
25448WAT      O76585   3.606   5.725   7.850
25448WAT     H176586   3.695   5.759   7.818
25448WAT     H276587   3.547   5.802   7.873
25449WAT      O76588   8.027   4.327   2.073
25449WAT     H176589   8.123   4.354   2.063
25449WAT     H276590   7.969   4.408   2.067
25450WAT      O76591   8.837   2.709   6.057
25450WAT     H176592   8.758   2.770   6.052
25450WAT     H276593   8.915   2.752   6.011
25451WAT      O76594   1.795   2.698   6.283
25451WAT     H176595   1.842   2.777   6.322
25451WAT     H276596   1.855   2.618   6.288
25452WAT      O76597   7.118   3.669   9.612
25452WAT     H176598   7.131   3.632   9.520
25452WAT     H276599   7.024   3.652   9.642
25453WAT      O76600   3.126   6.808   7.498
25453WAT     H176601   3.181   6.763   7.427
25453WAT     H276602   3.180   6.879   7.543
25454WAT      O76603   0.370   0.850   6.626
25454WAT     H176604   0.460   0.824   6.658
25454WAT     H276605   0.356   0.816   6.532
25455WAT      O76606   7.453   2.894   4.805
25455WAT     H176607   7.466   2.913   4.707
25455WAT     H276608   7.491   2.969   4.858
25456WAT      O76609   9.679   2.648   2.656
25456WAT     H176610   9.745   2.716   2.686
25456WAT     H276611   9.646   2.672   2.564
25457WAT      O76612   3.969   3.841   7.493
25457WAT     H176613   3.901   3.781   7.535
25457WAT     H276614   3.923   3.920   7.453
25458WAT      O76615   3.247   7.412   6.133
25458WAT     H176616   3.182   7.390   6.206
25458WAT     H276617   3.225   7.359   6.051
25459WAT      O76618   9.178   6.927   4.214
25459WAT     H176619   9.190   6.907   4.311
25459WAT     H276620   9.259   6.899   4.164
25460WAT      O76621   3.403   9.028   4.098
25460WAT     H176622   3.452   8.993   4.178
25460WAT     H276623   3.358   8.953   4.050
25461WAT      O76624   7.203   1.136   0.655
25461WAT     H176625   7.302   1.149   0.651
25461WAT     H276626   7.162   1.208   0.711
25462WAT      O76627   3.250   5.677   8.594
25462WAT     H176628   3.318   5.622   8.643
25462WAT     H276629   3.197   5.730   8.659
25463WAT      O76630   2.695   3.026   5.238
25463WAT     H176631   2.636   2.949   5.214
25463WAT     H276632   2.728   3.014   5.332
25464WAT      O76633   1.103   1.704   4.228
25464WAT     H176634   1.062   1.616   4.208
25464WAT     H276635   1.103   1.760   4.145
25465WAT      O76636   3.354   6.082   5.684
25465WAT     H176637   3.385   6.027   5.607
25465WAT     H276638   3.254   6.088   5.683
25466WAT      O76639   4.804   4.849   8.209
25466WAT     H176640   4.779   4.903   8.289
25466WAT     H276641   4.903   4.854   8.194
25467WAT      O76642   9.183   0.408   5.791
25467WAT     H176643   9.181   0.406   5.691
25467WAT     H276644   9.277   0.405   5.823
25468WAT      O76645   1.768   9.846   5.515
25468WAT     H176646   1.864   9.839   5.542
25468WAT     H276647   1.748   9.778   5.445
25469WAT      O76648   9.327   9.736   9.752
25469WAT     H176649   9.259   9.669   9.723
25469WAT     H276650   9.283   9.824   9.766
25470WAT      O76651   5.293   7.616   5.550
25470WAT     H176652   5.320   7.618   5.454
25470WAT     H276653   5.283   7.521   5.580
25471WAT      O76654   6.133   7.823   5.863
25471WAT     H176655   6.073   7.845   5.940
25471WAT     H276656   6.108   7.879   5.784
25472WAT      O76657   0.821   7.762   5.828
25472WAT     H176658   0.784   7.847   5.865
25472WAT     H276659   0.858   7.778   5.737
25473WAT      O76660   8.122   1.012   1.752
25473WAT     H176661   8.165   1.071   1.684
25473WAT     H276662   8.170   1.022   1.839
25474WAT      O76663   1.957   1.578   4.123
25474WAT     H176664   2.017   1.498   4.118
25474WAT     H276665   1.874   1.555   4.173
25475WAT      O76666   7.593   9.521   4.426
25475WAT     H176667   7.663   9.589   4.448
25475WAT     H276668   7.579   9.518   4.327
25476WAT      O76669   9.317   4.990   7.797
25476WAT     H176670   9.260   4.922   7.843
25476WAT     H276671   9.412   4.959   7.795
25477WAT      O76672   4.658   3.764   9.030
25477WAT     H176673   4.671   3.666   9.039
25477WAT     H276674   4.700   3.811   9.108
25478WAT      O76675   4.909   7.314   1.170
25478WAT     H176676   4.814   7.337   1.191
25478WAT     H276677   4.950   7.264   1.246
25479WAT      O76678   5.812   1.824   6.672
25479WAT     H176679   5.757   1.755   6.719
25479WAT     H276680   5.757   1.872   6.604
25480WAT      O76681   2.062   4.483   9.169
25480WAT     H176682   2.037   4.387   9.184
25480WAT     H276683   2.162   4.491   9.167
25481WAT      O76684   8.610   8.611   9.451
25481WAT     H176685   8.552   8.582   9.528
25481WAT     H276686   8.565   8.587   9.365
25482WAT      O76687   3.508   9.389   5.224
25482WAT     H176688   3.475   9.480   5.250
25482WAT     H276689   3.484   9.371   5.129
25483WAT      O76690   2.573   2.045   7.124
25483WAT     H176691   2.563   2.115   7.194
25483WAT     H276692   2.550   2.084   7.035
25484WAT      O76693   3.926   3.036   5.648
25484WAT     H176694   3.841   3.013   5.599
25484WAT     H276695   3.903   3.077   5.736
25485WAT      O76696   4.347   8.039   6.710
25485WAT     H176697   4.365   8.038   6.808
25485WAT     H276698   4.327   7.946   6.679
25486WAT      O76699   5.453   4.505   7.751
25486WAT     H176700   5.400   4.552   7.823
25486WAT     H276701   5.539   4.471   7.790
25487WAT      O76702   8.352   3.979   8.952
25487WAT     H176703   8.373   3.996   9.048
25487WAT     H276704   8.309   4.060   8.912
25488WAT      O76705   7.078   1.377   5.483
25488WAT     H176706   6.999   1.333   5.440
25488WAT     H276707   7.085   1.471   5.451
25489WAT      O76708   6.543   9.039   6.590
25489WAT     H176709   6.463   9.098   6.602
25489WAT     H276710   6.579   9.050   6.498
25490WAT      O76711   8.039   5.480   1.442
25490WAT     H176712   8.099   5.448   1.368
25490WAT     H276713   7.944   5.468   1.414
25491WAT      O76714   4.092   8.172   3.506
25491WAT     H176715   4.011   8.228   3.489
25491WAT     H276716   4.158   8.223   3.560
25492WAT      O76717   4.742   4.097   3.300
25492WAT     H176718   4.774   4.052   3.216
25492WAT     H276719   4.721   4.193   3.281
25493WAT      O76720   8.048   1.447   2.117
25493WAT     H176721   8.071   1.515   2.185
25493WAT     H276722   8.010   1.366   2.162
25494WAT      O76723   4.040   4.646   1.506
25494WAT     H176724   3.998   4.722   1.554
25494WAT     H276725   4.134   4.633   1.538
25495WAT      O76726   8.641   9.016   0.298
25495WAT     H176727   8.656   8.917   0.289
25495WAT     H276728   8.661   9.061   0.211
25496WAT      O76729   2.810   5.549   9.178
25496WAT     H176730   2.813   5.569   9.080
25496WAT     H276731   2.864   5.467   9.197
25497WAT      O76732   9.599   7.819   4.968
25497WAT     H176733   9.629   7.907   4.930
25497WAT     H276734   9.500   7.820   4.979
25498WAT      O76735   2.268   1.794   5.389
25498WAT     H176736   2.346   1.842   5.428
25498WAT     H276737   2.185   1.850   5.400
25499WAT      O76738   4.292   4.562   1.632
25499WAT     H176739   4.271   4.465   1.621
25499WAT     H276740   4.361   4.574   1.703
25500WAT      O76741   8.238   3.144   5.106
25500WAT     H176742   8.311   3.127   5.173
25500WAT     H276743   8.160   3.086   5.128
25501WAT      O76744   4.422   2.493   2.260
25501WAT     H176745   4.437   2.406   2.213
25501WAT     H276746   4.507   2.544   2.264
25502WAT      O76747   9.461   5.977   5.625
25502WAT     H176748   9.456   6.056   5.687
25502WAT     H276749   9.555   5.966   5.593
25503WAT      O76750   5.518   8.722   2.871
25503WAT     H176751   5.436   8.666   2.883
25503WAT     H276752   5.507   8.780   2.791
25504WAT      O76753   0.121   6.200   2.025
25504WAT     H176754   0.022   6.192   2.030
25504WAT     H276755   0.163   6.110   2.042
25505WAT      O76756   6.618   9.624   3.128
25505WAT     H176757   6.670   9.688   3.072
25505WAT     H276758   6.669   9.605   3.212
25506WAT      O76759   1.540   9.732   1.938
25506WAT     H176760   1.485   9.663   1.891
25506WAT     H276761   1.528   9.721   2.037
25507WAT      O76762   3.447   6.818   8.293
25507WAT     H176763   3.530   6.780   8.334
25507WAT     H276764   3.467   6.908   8.256
25508WAT      O76765   9.456   8.201   1.270
25508WAT     H176766   9.400   8.284   1.270
25508WAT     H276767   9.548   8.222   1.236
25509WAT      O76768   7.455   5.352   5.316
25509WAT     H176769   7.447   5.354   5.416
25509WAT     H276770   7.517   5.425   5.286
25510WAT      O76771   7.923   5.149   1.761
25510WAT     H176772   7.829   5.137   1.728
25510WAT     H276773   7.983   5.163   1.683
25511WAT      O76774   1.213   6.681   8.515
25511WAT     H176775   1.138   6.615   8.512
25511WAT     H276776   1.191   6.759   8.457
25512WAT      O76777   6.766   7.915   4.285
25512WAT     H176778   6.851   7.965   4.266
25512WAT     H276779   6.777   7.819   4.258
25513WAT      O76780   5.171   9.335   7.739
25513WAT     H176781   5.264   9.322   7.703
25513WAT     H276782   5.171   9.318   7.837
25514WAT      O76783   7.980   2.574   6.257
25514WAT     H176784   7.975   2.474   6.259
25514WAT     H276785   7.997   2.608   6.349
25515WAT      O76786   2.071   7.723   5.655
25515WAT     H176787   1.989   7.742   5.600
25515WAT     H276788   2.076   7.789   5.730
25516WAT      O76789   5.887   3.991   7.726
25516WAT     H176790   5.962   4.055   7.742
25516WAT     H276791   5.894   3.916   7.792
25517WAT      O76792   8.605   7.821   3.589
25517WAT     H176793   8.594   7.887   3.515
25517WAT     H276794   8.648   7.866   3.667
25518WAT      O76795   6.554   5.454   4.515
25518WAT     H176796   6.652   5.468   4.502
25518WAT     H276797   6.527   5.366   4.476
25519WAT      O76798   5.020   1.877   4.756
25519WAT     H176799   5.071   1.832   4.830
25519WAT     H276800   5.021   1.819   4.675
25520WAT      O76801   6.946   4.600   6.185
25520WAT     H176802   6.850   4.627   6.193
25520WAT     H276803   7.003   4.669   6.230
25521WAT      O76804   1.721   3.209   0.179
25521WAT     H176805   1.671   3.127   0.151
25521WAT     H276806   1.694   3.286   0.121
25522WAT      O76807   3.459   7.640   5.861
25522WAT     H176808   3.440   7.678   5.952
25522WAT     H276809   3.546   7.677   5.828
25523WAT      O76810   0.368   5.052   8.053
25523WAT     H176811   0.377   5.073   8.150
25523WAT     H276812   0.276   5.017   8.035
25524WAT      O76813   8.190   2.248   1.927
25524WAT     H176814   8.203   2.292   1.838
25524WAT     H276815   8.148   2.158   1.914
25525WAT      O76816   9.377   7.770   2.152
25525WAT     H176817   9.465   7.808   2.178
25525WAT     H276818   9.311   7.784   2.226
25526WAT      O76819   0.777   0.387   1.777
25526WAT     H176820   0.813   0.339   1.857
25526WAT     H276821   0.750   0.480   1.804
25527WAT      O76822   3.367   3.586   9.290
25527WAT     H176823   3.302   3.630   9.351
25527WAT     H276824   3.334   3.591   9.196
25528WAT      O76825   2.431   7.318   6.394
25528WAT     H176826   2.336   7.315   6.424
25528WAT     H276827   2.456   7.229   6.355
25529WAT      O76828   2.810   8.046   4.772
25529WAT     H176829   2.804   8.000   4.861
25529WAT     H276830   2.882   8.003   4.717
25530WAT      O76831   5.245   7.269   3.299
25530WAT     H176832   5.267   7.254   3.203
25530WAT     H276833   5.205   7.359   3.311
25531WAT      O76834   2.703   9.171   8.520
25531WAT     H176835   2.705   9.266   8.491
25531WAT     H276836   2.700   9.111   8.439
25532WAT      O76837   9.171   5.850   3.419
25532WAT     H176838   9.104   5.820   3.487
25532WAT     H276839   9.186   5.777   3.353
25533WAT      O76840   2.732   5.388   6.323
25533WAT     H176841   2.815   5.434   6.354
25533WAT     H276842   2.733   5.293   6.352
25534WAT      O76843   7.543   2.385   1.911
25534WAT     H176844   7.639   2.392   1.886
25534WAT     H276845   7.510   2.293   1.893
25535WAT      O76846   7.028   2.103   8.800
25535WAT     H176847   7.071   2.105   8.890
25535WAT     H276848   7.011   2.197   8.769
25536WAT      O76849   7.083   6.732   2.774
25536WAT     H176850   7.085   6.719   2.675
25536WAT     H276851   6.990   6.755   2.804
25537WAT      O76852   0.793   5.199   3.563
25537WAT     H176853   0.878   5.211   3.512
25537WAT     H276854   0.813   5.157   3.652
25538WAT      O76855   8.556   1.486   2.467
25538WAT     H176856   8.622   1.536   2.411
25538WAT     H276857   8.488   1.549   2.504
25539WAT      O76858   2.174   3.181   4.730
25539WAT     H176859   2.125   3.106   4.685
25539WAT     H276860   2.272   3.161   4.731
25540WAT      O76861   0.429   5.418   3.591
25540WAT     H176862   0.429   5.468   3.504
25540WAT     H276863   0.358   5.455   3.651
25541WAT      O76864   3.492   9.012   5.424
25541WAT     H176865   3.564   8.992   5.358
25541WAT     H276866   3.409   8.964   5.398
25542WAT      O76867   2.563   7.620   1.822
25542WAT     H176868   2.468   7.595   1.838
25542WAT     H276869   2.607   7.642   1.909
25543WAT      O76870   6.690   5.905   9.406
25543WAT     H176871   6.687   5.850   9.489
25543WAT     H276872   6.629   5.983   9.415
25544WAT      O76873   8.136   1.299   8.632
25544WAT     H176874   8.063   1.302   8.564
25544WAT     H276875   8.101   1.328   8.721
25545WAT      O76876   2.147   2.360   2.134
25545WAT     H176877   2.181   2.379   2.042
25545WAT     H276878   2.086   2.281   2.130
25546WAT      O76879   9.711   3.459   8.632
25546WAT     H176880   9.714   3.526   8.558
25546WAT     H276881   9.660   3.496   8.709
25547WAT      O76882   4.789   6.781   1.212
25547WAT     H176883   4.798   6.731   1.126
25547WAT     H276884   4.875   6.826   1.235
25548WAT      O76885   1.376   9.844   2.463
25548WAT     H176886   1.457   9.785   2.453
25548WAT     H276887   1.378   9.887   2.553
25549WAT      O76888   3.847   8.028   8.415
25549WAT     H176889   3.912   8.070   8.351
25549WAT     H276890   3.850   7.928   8.405
25550WAT      O76891   3.991   0.204   9.477
25550WAT     H176892   3.935   0.180   9.399
25550WAT     H276893   3.933   0.225   9.556
25551WAT      O76894   9.691   0.438   0.882
25551WAT     H176895   9.611   0.496   0.895
25551WAT     H276896   9.718   0.440   0.786
25552WAT      O76897   7.294   6.820   1.612
25552WAT     H176898   7.358   6.761   1.562
25552WAT     H276899   7.201   6.788   1.597
25553WAT      O76900   9.833   2.259   3.888
25553WAT     H176901   9.797   2.169   3.865
25553WAT     H276902   9.782   2.329   3.838
25554WAT      O76903   7.676   4.787   3.216
25554WAT     H176904   7.728   4.750   3.293
25554WAT     H276905   7.702   4.739   3.132
25555WAT      O76906   8.960   9.509   2.902
25555WAT     H176907   8.867   9.488   2.872
25555WAT     H276908   9.014   9.540   2.824
25556WAT      O76909   2.160   0.279   3.947
25556WAT     H176910   2.203   0.352   3.998
25556WAT     H276911   2.106   0.222   4.008
25557WAT      O76912   6.845   7.853   7.199
25557WAT     H176913   6.796   7.845   7.113
25557WAT     H276914   6.932   7.803   7.193
25558WAT      O76915   4.922   5.454   6.709
25558WAT     H176916   4.855   5.528   6.719
25558WAT     H276917   5.011   5.485   6.740
25559WAT      O76918   0.055   9.759   5.477
25559WAT     H176919   0.080   9.712   5.561
25559WAT     H276920   0.135   9.808   5.442
25560WAT      O76921   8.025   1.925   0.140
25560WAT     H176922   8.121   1.940   0.161
25560WAT     H276923   8.003   1.828   0.153
25561WAT      O76924   3.875   3.035   4.202
25561WAT     H176925   3.895   2.945   4.164
25561WAT     H276926   3.938   3.054   4.278
25562WAT      O76927   7.651   4.858   6.216
25562WAT     H176928   7.649   4.781   6.279
25562WAT     H276929   7.650   4.824   6.122
25563WAT      O76930   7.102   4.112   4.039
25563WAT     H176931   7.036   4.109   3.964
25563WAT     H276932   7.056   4.095   4.126
25564WAT      O76933   5.924   9.693   8.649
25564WAT     H176934   5.951   9.645   8.565
25564WAT     H276935   5.851   9.758   8.629
25565WAT      O76936   4.252   1.517   1.657
25565WAT     H176937   4.317   1.561   1.595
25565WAT     H276938   4.182   1.469   1.603
25566WAT      O76939   4.401   0.315   0.045
25566WAT     H176940   4.497   0.292   0.026
25566WAT     H276941   4.395   0.411   0.074
25567WAT      O76942   4.588   9.766   3.354
25567WAT     H176943   4.615   9.787   3.260
25567WAT     H276944   4.670   9.750   3.410
25568WAT      O76945   6.408   5.915   7.563
25568WAT     H176946   6.328   5.973   7.579
25568WAT     H276947   6.453   5.895   7.649
25569WAT      O76948   7.943   8.217   3.104
25569WAT     H176949   8.024   8.271   3.082
25569WAT     H276950   7.908   8.244   3.194
25570WAT      O76951   5.304   8.138   9.458
25570WAT     H176952   5.280   8.211   9.522
25570WAT     H276953   5.401   8.145   9.435
25571WAT      O76954   3.048   4.241   0.043
25571WAT     H176955   3.141   4.275   0.056
25571WAT     H276956   3.031   4.230  -0.055
25572WAT      O76957   3.444   5.479   1.781
25572WAT     H176958   3.524   5.445   1.732
25572WAT     H276959   3.404   5.406   1.836
25573WAT      O76960   0.401   7.356   0.840
25573WAT     H176961   0.472   7.426   0.849
25573WAT     H276962   0.435   7.280   0.785
25574WAT      O76963   4.553   4.673   0.628
25574WAT     H176964   4.526   4.583   0.663
25574WAT     H276965   4.475   4.717   0.584
25575WAT      O76966   4.566   7.222   2.792
25575WAT     H176967   4.641   7.248   2.854
25575WAT     H276968   4.479   7.249   2.832
25576WAT      O76969   5.207   8.127   9.206
25576WAT     H176970   5.204   8.028   9.193
25576WAT     H276971   5.242   8.148   9.297
25577WAT      O76972   6.581   1.521   6.245
25577WAT     H176973   6.660   1.495   6.189
25577WAT     H276974   6.501   1.469   6.216
25578WAT      O76975   5.622   8.758   8.382
25578WAT     H176976   5.633   8.738   8.479
25578WAT     H276977   5.601   8.674   8.332
25579WAT      O76978   2.040   3.452   0.345
25579WAT     H176979   2.055   3.354   0.352
25579WAT     H276980   1.963   3.478   0.403
25580WAT      O76981   6.478   6.705   3.049
25580WAT     H176982   6.512   6.796   3.027
25580WAT     H276983   6.443   6.704   3.143
25581WAT      O76984   5.654   5.861   8.325
25581WAT     H176985   5.599   5.906   8.395
25581WAT     H276986   5.636   5.902   8.236
25582WAT      O76987   4.481   6.304   1.735
25582WAT     H176988   4.468   6.364   1.814
25582WAT     H276989   4.560   6.335   1.682
25583WAT      O76990   1.245   9.333   4.328
25583WAT     H176991   1.268   9.239   4.303
25583WAT     H276992   1.323   9.392   4.310
25584WAT      O76993   0.362   4.226   6.226
25584WAT     H176994   0.265   4.238   6.207
25584WAT     H276995   0.413   4.228   6.140
25585WAT      O76996   2.429   9.348   0.031
25585WAT     H176997   2.505   9.319  -0.028
25585WAT     H276998   2.352   9.286   0.021
25586WAT      O76999   4.981   9.434   7.546
25586WAT     H177000   5.047   9.408   7.616
25586WAT     H277001   4.889   9.428   7.583
25587WAT      O77002   3.788   5.675   7.605
25587WAT     H177003   3.854   5.609   7.568
25587WAT     H277004   3.827   5.717   7.687
25588WAT      O77005   8.574   8.841   4.083
25588WAT     H177006   8.510   8.910   4.050
25588WAT     H277007   8.567   8.833   4.183
25589WAT      O77008   7.419   1.993   3.847
25589WAT     H177009   7.370   2.014   3.762
25589WAT     H277010   7.402   2.065   3.914
25590WAT      O77011   5.793   6.744   3.775
25590WAT     H177012   5.701   6.762   3.739
25590WAT     H277013   5.835   6.830   3.803
25591WAT      O77014   8.287   4.823   1.044
25591WAT     H177015   8.223   4.763   0.995
25591WAT     H277016   8.373   4.775   1.058
25592WAT      O77017   3.812   4.093   3.078
25592WAT     H177018   3.757   4.164   3.121
25592WAT     H277019   3.842   4.124   2.988
25593WAT      O77020   0.424   5.361   9.616
25593WAT     H177021   0.509   5.350   9.564
25593WAT     H277022   0.347   5.374   9.552
25594WAT      O77023   0.364   7.595   3.331
25594WAT     H177024   0.313   7.606   3.246
25594WAT     H277025   0.438   7.529   3.317
25595WAT      O77026   9.241   7.926   4.167
25595WAT     H177027   9.168   7.976   4.214
25595WAT     H277028   9.267   7.976   4.084
25596WAT      O77029   4.338   8.303   1.352
25596WAT     H177030   4.394   8.361   1.410
25596WAT     H277031   4.337   8.339   1.259
25597WAT      O77032   4.736   7.870   0.119
25597WAT     H177033   4.758   7.773   0.106
25597WAT     H277034   4.673   7.880   0.196
25598WAT      O77035   9.617   6.473   7.423
25598WAT     H177036   9.613   6.390   7.368
25598WAT     H277037   9.538   6.531   7.402
25599WAT      O77038   3.323   5.741   0.502
25599WAT     H177039   3.267   5.664   0.533
25599WAT     H277040   3.419   5.720   0.517
25600WAT      O77041   6.270   7.033   4.069
25600WAT     H177042   6.256   7.028   3.970
25600WAT     H277043   6.304   7.123   4.094
25601WAT      O77044   6.716   0.936   9.232
25601WAT     H177045   6.813   0.912   9.233
25601WAT     H277046   6.692   0.983   9.317
25602WAT      O77047   7.601   2.697   1.263
25602WAT     H177048   7.615   2.610   1.217
25602WAT     H277049   7.503   2.718   1.267
25603WAT      O77050   7.984   3.782   6.675
25603WAT     H177051   8.053   3.764   6.605
25603WAT     H277052   8.007   3.866   6.725
25604WAT      O77053   1.764   9.430   3.415
25604WAT     H177054   1.783   9.391   3.505
25604WAT     H277055   1.744   9.357   3.350
25605WAT      O77056   6.527   4.414   2.492
25605WAT     H177057   6.507   4.318   2.513
25605WAT     H277058   6.617   4.437   2.529
25606WAT      O77059   4.231   1.114   3.182
25606WAT     H177060   4.290   1.078   3.254
25606WAT     H277061   4.142   1.140   3.221
25607WAT      O77062   0.561   6.638   2.637
25607WAT     H177063   0.542   6.663   2.541
25607WAT     H277064   0.571   6.721   2.691
25608WAT      O77065   1.821   0.754   1.085
25608WAT     H177066   1.910   0.796   1.102
25608WAT     H277067   1.749   0.820   1.106
25609WAT      O77068   5.005   0.926   1.419
25609WAT     H177069   5.012   0.960   1.325
25609WAT     H277070   5.090   0.945   1.468
25610WAT      O77071   4.534   0.938   8.717
25610WAT     H177072   4.495   1.026   8.690
25610WAT     H277073   4.579   0.896   8.639
25611WAT      O77074   2.461   1.574   3.279
25611WAT     H177075   2.548   1.579   3.231
25611WAT     H277076   2.397   1.518   3.226
25612WAT      O77077   0.256   3.191   1.631
25612WAT     H177078   0.293   3.105   1.667
25612WAT     H277079   0.315   3.267   1.658
25613WAT      O77080   3.019   1.533   3.645
25613WAT     H177081   3.046   1.468   3.716
25613WAT     H277082   3.039   1.626   3.675
25614WAT      O77083   8.719   3.396   9.865
25614WAT     H177084   8.746   3.418   9.958
25614WAT     H277085   8.657   3.466   9.830
25615WAT      O77086   4.206   7.126   8.155
25615WAT     H177087   4.137   7.132   8.227
25615WAT     H277088   4.199   7.037   8.109
25616WAT      O77089   5.319   7.946   0.351
25616WAT     H177090   5.232   7.917   0.391
25616WAT     H277091   5.370   8.001   0.417
25617WAT      O77092   5.822   6.472   6.643
25617WAT     H177093   5.728   6.466   6.675
25617WAT     H277094   5.847   6.568   6.628
25618WAT      O77095   1.757   8.784   2.803
25618WAT     H177096   1.785   8.688   2.811
25618WAT     H277097   1.657   8.790   2.804
25619WAT      O77098   9.820   6.901   6.283
25619WAT     H177099   9.910   6.860   6.272
25619WAT     H277100   9.759   6.837   6.330
25620WAT      O77101   1.322   5.408   0.612
25620WAT     H177102   1.357   5.317   0.588
25620WAT     H277103   1.346   5.473   0.539
25621WAT      O77104   0.161   3.355   3.202
25621WAT     H177105   0.224   3.427   3.228
25621WAT     H277106   0.199   3.302   3.127
25622WAT      O77107   9.337   4.181   7.022
25622WAT     H177108   9.324   4.250   6.951
25622WAT     H277109   9.312   4.091   6.987
25623WAT      O77110   6.118   6.199   9.868
25623WAT     H177111   6.030   6.160   9.896
25623WAT     H277112   6.152   6.152   9.787
25624WAT      O77113   5.868   1.565   7.711
25624WAT     H177114   5.956   1.526   7.681
25624WAT     H277115   5.825   1.503   7.776
25625WAT      O77116   0.403   0.085   9.394
25625WAT     H177117   0.497   0.119   9.388
25625WAT     H277118   0.387   0.046   9.485
25626WAT      O77119   5.370   8.726   1.227
25626WAT     H177120   5.303   8.669   1.275
25626WAT     H277121   5.435   8.668   1.178
25627WAT      O77122   1.080   7.413   8.325
25627WAT     H177123   1.003   7.356   8.294
25627WAT     H277124   1.160   7.356   8.338
25628WAT      O77125   0.881   1.252   7.923
25628WAT     H177126   0.865   1.181   7.854
25628WAT     H277127   0.832   1.229   8.007
25629WAT      O77128   5.388   0.536   7.953
25629WAT     H177129   5.451   0.603   7.914
25629WAT     H277130   5.307   0.529   7.895
25630WAT      O77131   8.510   2.477   4.418
25630WAT     H177132   8.497   2.499   4.321
25630WAT     H277133   8.572   2.544   4.459
25631WAT      O77134   5.496   1.261   1.566
25631WAT     H177135   5.401   1.281   1.544
25631WAT     H277136   5.514   1.284   1.661
25632WAT      O77137   4.001   3.821   0.144
25632WAT     H177138   4.032   3.897   0.202
25632WAT     H277139   3.986   3.740   0.200
25633WAT      O77140   5.090   5.342   7.272
25633WAT     H177141   5.042   5.430   7.276
25633WAT     H277142   5.170   5.344   7.332
25634WAT      O77143   2.783   9.750   5.373
25634WAT     H177144   2.830   9.838   5.371
25634WAT     H277145   2.835   9.683   5.321
25635WAT      O77146   8.463   8.200   7.178
25635WAT     H177147   8.368   8.178   7.202
25635WAT     H277148   8.466   8.285   7.125
25636WAT      O77149   1.588   9.226   6.062
25636WAT     H177150   1.569   9.167   6.141
25636WAT     H277151   1.677   9.270   6.074
25637WAT      O77152   6.080   2.465   5.313
25637WAT     H177153   6.110   2.403   5.241
25637WAT     H277154   6.148   2.537   5.326
25638WAT      O77155   5.954   7.565   1.579
25638WAT     H177156   5.954   7.617   1.494
25638WAT     H277157   5.943   7.627   1.657
25639WAT      O77158   0.040   0.147   1.347
25639WAT     H177159  -0.015   0.149   1.264
25639WAT     H277160   0.010   0.219   1.410
25640WAT      O77161   3.684   2.185   5.556
25640WAT     H177162   3.657   2.233   5.472
25640WAT     H277163   3.690   2.087   5.537
25641WAT      O77164   5.665   7.853   5.764
25641WAT     H177165   5.731   7.856   5.688
25641WAT     H277166   5.678   7.768   5.816
25642WAT      O77167   3.962   6.998   9.008
25642WAT     H177168   3.920   6.979   8.919
25642WAT     H277169   3.893   7.033   9.071
25643WAT      O77170   0.537   4.934   2.522
25643WAT     H177171   0.529   4.947   2.423
25643WAT     H277172   0.460   4.880   2.555
25644WAT      O77173   7.353   9.750   0.806
25644WAT     H177174   7.419   9.692   0.759
25644WAT     H277175   7.274   9.765   0.748
25645WAT      O77176   0.600   1.249   7.731
25645WAT     H177177   0.568   1.267   7.824
25645WAT     H277178   0.660   1.168   7.731
25646WAT      O77179   3.379   8.521   8.963
25646WAT     H177180   3.351   8.468   9.043
25646WAT     H277181   3.303   8.579   8.933
25647WAT      O77182   8.254   7.499   8.991
25647WAT     H177183   8.281   7.420   8.936
25647WAT     H277184   8.314   7.576   8.968
25648WAT      O77185   7.144   9.694   3.914
25648WAT     H177186   7.084   9.742   3.850
25648WAT     H277187   7.234   9.739   3.916
25649WAT      O77188   6.692   0.732   5.815
25649WAT     H177189   6.669   0.694   5.904
25649WAT     H277190   6.638   0.686   5.744
25650WAT      O77191   7.790   7.294   6.619
25650WAT     H177192   7.795   7.226   6.547
25650WAT     H277193   7.735   7.372   6.589
25651WAT      O77194   9.680   1.121   4.082
25651WAT     H177195   9.747   1.187   4.117
25651WAT     H277196   9.640   1.155   3.997
25652WAT      O77197   1.803   1.111   2.985
25652WAT     H177198   1.892   1.125   3.028
25652WAT     H277199   1.776   1.195   2.938
25653WAT      O77200   3.555   9.145   1.425
25653WAT     H177201   3.595   9.111   1.511
25653WAT     H277202   3.472   9.094   1.405
25654WAT      O77203   8.988   5.928   6.859
25654WAT     H177204   9.049   5.888   6.791
25654WAT     H277205   8.913   5.976   6.812
25655WAT      O77206   8.840   3.004   7.481
25655WAT     H177207   8.874   2.949   7.557
25655WAT     H277208   8.763   3.060   7.511
25656WAT      O77209   9.529   8.307   4.511
25656WAT     H177210   9.537   8.211   4.485
25656WAT     H277211   9.443   8.321   4.559
25657WAT      O77212   2.681   2.567   3.460
25657WAT     H177213   2.690   2.655   3.506
25657WAT     H277214   2.722   2.495   3.516
25658WAT      O77215   7.418   0.711   5.809
25658WAT     H177216   7.326   0.738   5.838
25658WAT     H277217   7.413   0.669   5.718
25659WAT      O77218   3.849   8.432   7.086
25659WAT     H177219   3.860   8.354   7.024
25659WAT     H277220   3.853   8.401   7.181
25660WAT      O77221   6.053   4.814   8.189
25660WAT     H177222   6.112   4.882   8.144
25660WAT     H277223   6.109   4.745   8.234
25661WAT      O77224   4.283   5.093   0.309
25661WAT     H177225   4.355   5.097   0.378
25661WAT     H277226   4.227   5.012   0.323
25662WAT      O77227   8.220   9.137   0.847
25662WAT     H177228   8.259   9.076   0.916
25662WAT     H277229   8.264   9.120   0.758
25663WAT      O77230   0.785   7.374   0.610
25663WAT     H177231   0.872   7.421   0.592
25663WAT     H277232   0.778   7.294   0.550
25664WAT      O77233   5.707   0.692   4.393
25664WAT     H177234   5.677   0.640   4.313
25664WAT     H277235   5.781   0.644   4.439
25665WAT      O77236   4.055   3.868   2.169
25665WAT     H177237   4.072   3.955   2.215
25665WAT     H277238   3.968   3.830   2.200
25666WAT      O77239   1.039   2.322   9.069
25666WAT     H177240   1.079   2.413   9.066
25666WAT     H277241   1.092   2.264   9.130
25667WAT      O77242   9.854   0.285   4.377
25667WAT     H177243   9.832   0.232   4.459
25667WAT     H277244   9.945   0.260   4.345
25668WAT      O77245   3.548   1.204   5.247
25668WAT     H177246   3.617   1.236   5.182
25668WAT     H277247   3.546   1.104   5.247
25669WAT      O77248   1.145   4.819   5.732
25669WAT     H177249   1.148   4.913   5.699
25669WAT     H277250   1.232   4.796   5.776
25670WAT      O77251   8.066   7.302   8.874
25670WAT     H177252   8.020   7.303   8.963
25670WAT     H277253   8.157   7.263   8.884
25671WAT      O77254   9.787   9.689   9.129
25671WAT     H177255   9.827   9.720   9.215
25671WAT     H277256   9.849   9.712   9.054
25672WAT      O77257   0.647   9.371   9.860
25672WAT     H177258   0.719   9.334   9.919
25672WAT     H277259   0.639   9.470   9.875
25673WAT      O77260   2.430   5.291   0.351
25673WAT     H177261   2.481   5.212   0.315
25673WAT     H277262   2.490   5.343   0.412
25674WAT      O77263   3.948   4.861   1.644
25674WAT     H177264   4.009   4.859   1.723
25674WAT     H277265   3.940   4.955   1.611
25675WAT      O77266   4.421   4.378   6.400
25675WAT     H177267   4.475   4.456   6.431
25675WAT     H277268   4.326   4.389   6.430
25676WAT      O77269   6.507   4.697   8.445
25676WAT     H177270   6.560   4.632   8.500
25676WAT     H277271   6.476   4.651   8.362
25677WAT      O77272   0.377   8.730   5.000
25677WAT     H177273   0.388   8.790   4.921
25677WAT     H277274   0.284   8.695   5.003
25678WAT      O77275   1.058   1.163   2.728
25678WAT     H177276   1.119   1.242   2.736
25678WAT     H277277   1.093   1.101   2.658
25679WAT      O77278   3.883   0.106   6.191
25679WAT     H177279   3.915   0.039   6.124
25679WAT     H277280   3.817   0.167   6.148
25680WAT      O77281   7.254   7.036   5.281
25680WAT     H177282   7.201   7.096   5.341
25680WAT     H277283   7.263   6.946   5.323
25681WAT      O77284   4.896   7.340   0.446
25681WAT     H177285   4.913   7.249   0.483
25681WAT     H277286   4.845   7.333   0.360
25682WAT      O77287   8.758   0.811   7.621
25682WAT     H177288   8.747   0.716   7.593
25682WAT     H277289   8.847   0.845   7.590
25683WAT      O77290   4.929   3.431   4.653
25683WAT     H177291   4.870   3.368   4.602
25683WAT     H277292   4.956   3.507   4.594
25684WAT      O77293   9.669   4.927   3.476
25684WAT     H177294   9.664   5.011   3.529
25684WAT     H277295   9.648   4.849   3.534
25685WAT      O77296   5.307   7.463   8.143
25685WAT     H177297   5.238   7.393   8.129
25685WAT     H277298   5.283   7.518   8.223
25686WAT      O77299   0.971   5.558   8.144
25686WAT     H177300   1.066   5.574   8.118
25686WAT     H277301   0.965   5.546   8.243
25687WAT      O77302   1.838   6.882   3.576
25687WAT     H177303   1.742   6.856   3.570
25687WAT     H277304   1.849   6.951   3.648
25688WAT      O77305   9.335   0.264   2.526
25688WAT     H177306   9.355   0.169   2.504
25688WAT     H277307   9.418   0.308   2.559
25689WAT      O77308   7.260   9.721   5.786
25689WAT     H177309   7.203   9.789   5.740
25689WAT     H277310   7.357   9.741   5.767
25690WAT      O77311   1.428   2.593   4.939
25690WAT     H177312   1.519   2.587   4.981
25690WAT     H277313   1.404   2.689   4.926
25691WAT      O77314   5.123   6.213   7.557
25691WAT     H177315   5.023   6.223   7.553
25691WAT     H277316   5.166   6.303   7.547
25692WAT      O77317   8.386   1.091   0.408
25692WAT     H177318   8.469   1.037   0.420
25692WAT     H277319   8.398   1.180   0.453
25693WAT      O77320   2.201   7.753   4.545
25693WAT     H177321   2.292   7.712   4.539
25693WAT     H277322   2.154   7.745   4.457
25694WAT      O77323   9.562   7.706   9.219
25694WAT     H177324   9.630   7.674   9.285
25694WAT     H277325   9.608   7.728   9.133
25695WAT      O77326   0.230   9.469   6.787
25695WAT     H177327   0.325   9.452   6.814
25695WAT     H277328   0.207   9.412   6.708
25696WAT      O77329   8.102   3.496   0.728
25696WAT     H177330   8.127   3.592   0.745
25696WAT     H277331   8.180   3.437   0.747
25697WAT      O77332   1.693   1.838   3.769
25697WAT     H177333   1.633   1.887   3.705
25697WAT     H277334   1.786   1.873   3.760
25698WAT      O77335   6.666   4.002   3.533
25698WAT     H177336   6.759   4.034   3.516
25698WAT     H277337   6.606   4.081   3.548
25699WAT      O77338   8.364   4.804   5.703
25699WAT     H177339   8.440   4.854   5.743
25699WAT     H277340   8.397   4.751   5.624
25700WAT      O77341   9.469   9.661   7.463
25700WAT     H177342   9.547   9.652   7.525
25700WAT     H277343   9.475   9.747   7.413
25701WAT      O77344   2.561   1.691   8.073
25701WAT     H177345   2.556   1.613   8.011
25701WAT     H277346   2.548   1.775   8.022
25702WAT      O77347   5.403   0.574   5.789
25702WAT     H177348   5.330   0.533   5.844
25702WAT     H277349   5.430   0.661   5.830
25703WAT      O77350   0.365   8.742   5.889
25703WAT     H177351   0.390   8.770   5.982
25703WAT     H277352   0.413   8.657   5.865
25704WAT      O77353   1.041   6.507   4.784
25704WAT     H177354   0.954   6.536   4.822
25704WAT     H277355   1.116   6.547   4.837
25705WAT      O77356   9.341   5.088   4.125
25705WAT     H177357   9.436   5.088   4.158
25705WAT     H277358   9.324   5.004   4.074
25706WAT      O77359   6.440   8.948   7.447
25706WAT     H177360   6.432   8.954   7.547
25706WAT     H277361   6.403   9.030   7.405
25707WAT      O77362   2.095   1.814   2.591
25707WAT     H177363   2.023   1.882   2.601
25707WAT     H277364   2.168   1.832   2.657
25708WAT      O77365   5.142   6.154   9.336
25708WAT     H177366   5.140   6.252   9.315
25708WAT     H277367   5.088   6.137   9.418
25709WAT      O77368   8.278   0.823   6.475
25709WAT     H177369   8.369   0.801   6.439
25709WAT     H277370   8.225   0.870   6.405
25710WAT      O77371   8.085   9.557   2.419
25710WAT     H177372   8.110   9.635   2.362
25710WAT     H277373   8.033   9.588   2.498
25711WAT      O77374   5.581   4.140   3.393
25711WAT     H177375   5.666   4.185   3.419
25711WAT     H277376   5.598   4.045   3.370
25712WAT      O77377   2.414   1.423   5.055
25712WAT     H177378   2.458   1.501   5.012
25712WAT     H277379   2.409   1.438   5.154
25713WAT      O77380   1.273   7.424   9.499
25713WAT     H177381   1.184   7.456   9.466
25713WAT     H277382   1.307   7.352   9.438
25714WAT      O77383   3.766   4.464   5.553
25714WAT     H177384   3.830   4.514   5.611
25714WAT     H277385   3.673   4.475   5.589
25715WAT      O77386   1.019   6.239   9.346
25715WAT     H177387   1.052   6.187   9.267
25715WAT     H277388   1.077   6.319   9.359
25716WAT      O77389   3.791   3.724   3.941
25716WAT     H177390   3.699   3.750   3.971
25716WAT     H277391   3.858   3.759   4.006
25717WAT      O77392   9.122   3.929   2.718
25717WAT     H177393   9.052   3.972   2.661
25717WAT     H277394   9.149   3.992   2.791
25718WAT      O77395   5.803   1.269   1.772
25718WAT     H177396   5.879   1.206   1.787
25718WAT     H277397   5.819   1.321   1.688
25719WAT      O77398   7.323   5.683   7.199
25719WAT     H177399   7.278   5.618   7.262
25719WAT     H277400   7.327   5.773   7.242
25720WAT      O77401   2.218   8.703   0.805
25720WAT     H177402   2.132   8.742   0.838
25720WAT     H277403   2.294   8.763   0.831
25721WAT      O77404   5.094   3.396   5.606
25721WAT     H177405   5.011   3.380   5.552
25721WAT     H277406   5.077   3.472   5.670
25722WAT      O77407   3.385   0.771   9.158
25722WAT     H177408   3.295   0.728   9.155
25722WAT     H277409   3.422   0.776   9.065
25723WAT      O77410   0.674   4.020   7.471
25723WAT     H177411   0.617   4.052   7.395
25723WAT     H277412   0.716   4.099   7.516
25724WAT      O77413   2.542   3.381   3.141
25724WAT     H177414   2.455   3.401   3.186
25724WAT     H277415   2.611   3.446   3.174
25725WAT      O77416   5.160   2.024   3.777
25725WAT     H177417   5.260   2.022   3.769
25725WAT     H277418   5.122   1.941   3.736
25726WAT      O77419   4.991   1.823   9.845
25726WAT     H177420   4.908   1.798   9.795
25726WAT     H277421   4.979   1.913   9.887
25727WAT      O77422   0.738   8.483   0.932
25727WAT     H177423   0.751   8.443   1.023
25727WAT     H277424   0.801   8.441   0.867
25728WAT      O77425   5.192   7.988   8.894
25728WAT     H177426   5.174   7.926   8.970
25728WAT     H277427   5.262   8.054   8.920
25729WAT      O77428   4.083   8.351   0.431
25729WAT     H177429   4.072   8.291   0.352
25729WAT     H277430   4.101   8.295   0.513
25730WAT      O77431   0.033   6.933   3.046
25730WAT     H177432  -0.005   6.963   3.134
25730WAT     H277433   0.082   7.009   3.004
25731WAT      O77434   3.815   6.621   6.242
25731WAT     H177435   3.845   6.619   6.147
25731WAT     H277436   3.834   6.533   6.285
25732WAT      O77437   4.240   8.976   1.106
25732WAT     H177438   4.301   8.901   1.080
25732WAT     H277439   4.145   8.945   1.101
25733WAT      O77440   4.171   7.973   2.429
25733WAT     H177441   4.078   7.966   2.393
25733WAT     H277442   4.187   7.902   2.497
25734WAT      O77443   4.123   1.333   5.662
25734WAT     H177444   4.144   1.326   5.759
25734WAT     H277445   4.042   1.278   5.641
25735WAT      O77446   4.200   7.813   2.672
25735WAT     H177447   4.219   7.826   2.769
25735WAT     H277448   4.120   7.755   2.660
25736WAT      O77449   3.235   4.151   5.618
25736WAT     H177450   3.296   4.180   5.691
25736WAT     H277451   3.180   4.074   5.650
25737WAT      O77452   4.605   3.403   2.818
25737WAT     H177453   4.675   3.337   2.791
25737WAT     H277454   4.579   3.389   2.914
25738WAT      O77455   3.753   2.364   4.946
25738WAT     H177456   3.673   2.420   4.925
25738WAT     H277457   3.797   2.397   5.029
25739WAT      O77458   4.841   6.914   7.029
25739WAT     H177459   4.858   7.012   7.046
25739WAT     H277460   4.902   6.882   6.957
25740WAT      O77461   9.552   2.523   1.669
25740WAT     H177462   9.634   2.479   1.704
25740WAT     H277463   9.475   2.458   1.672
25741WAT      O77464   0.339   9.426   2.137
25741WAT     H177465   0.281   9.487   2.083
25741WAT     H277466   0.434   9.436   2.109
25742WAT      O77467   3.037   5.673   7.047
25742WAT     H177468   3.112   5.689   7.112
25742WAT     H277469   3.027   5.575   7.032
25743WAT      O77470   7.532   0.531   1.536
25743WAT     H177471   7.558   0.546   1.631
25743WAT     H277472   7.614   0.534   1.479
25744WAT      O77473   9.619   8.279   9.133
25744WAT     H177474   9.543   8.214   9.127
25744WAT     H277475   9.691   8.240   9.191
25745WAT      O77476   1.881   9.254   6.132
25745WAT     H177477   1.904   9.280   6.038
25745WAT     H277478   1.941   9.304   6.195
25746WAT      O77479   9.795   9.017   6.529
25746WAT     H177480   9.838   9.004   6.618
25746WAT     H277481   9.700   9.046   6.542
25747WAT      O77482   5.877   7.152   2.087
25747WAT     H177483   5.968   7.191   2.099
25747WAT     H277484   5.877   7.057   2.120
25748WAT      O77485   5.205   7.155   2.182
25748WAT     H177486   5.221   7.083   2.114
25748WAT     H277487   5.238   7.242   2.147
25749WAT      O77488   5.473   3.162   1.819
25749WAT     H177489   5.428   3.195   1.736
25749WAT     H277490   5.511   3.240   1.869
25750WAT      O77491   9.531   6.462   3.594
25750WAT     H177492   9.522   6.562   3.601
25750WAT     H277493   9.509   6.434   3.500
25751WAT      O77494   7.302   5.933   3.561
25751WAT     H177495   7.358   5.872   3.617
25751WAT     H277496   7.236   5.980   3.619
25752WAT      O77497   8.586   9.570   4.386
25752WAT     H177498   8.606   9.571   4.484
25752WAT     H277499   8.547   9.482   4.361
25753WAT      O77500   2.449   4.439   4.551
25753WAT     H177501   2.399   4.409   4.470
25753WAT     H277502   2.544   4.459   4.527
25754WAT      O77503   4.507   7.012   8.120
25754WAT     H177504   4.531   7.067   8.200
25754WAT     H277505   4.410   7.026   8.098
25755WAT      O77506   8.200   0.508   5.934
25755WAT     H177507   8.286   0.535   5.977
25755WAT     H277508   8.124   0.533   5.994
25756WAT      O77509   8.698   3.930   4.536
25756WAT     H177510   8.665   3.836   4.536
25756WAT     H277511   8.665   3.976   4.453
25757WAT      O77512   4.188   1.964   3.614
25757WAT     H177513   4.201   1.966   3.713
25757WAT     H277514   4.276   1.954   3.569
25758WAT      O77515   8.756   3.459   0.223
25758WAT     H177516   8.821   3.507   0.282
25758WAT     H277517   8.678   3.519   0.205
25759WAT      O77518   7.438   4.483   6.484
25759WAT     H177519   7.345   4.497   6.452
25759WAT     H277520   7.470   4.393   6.454
25760WAT      O77521   1.227   3.525   4.218
25760WAT     H177522   1.318   3.567   4.221
25760WAT     H277523   1.158   3.597   4.225
25761WAT      O77524   5.583   7.045   5.947
25761WAT     H177525   5.661   7.005   5.900
25761WAT     H277526   5.498   7.014   5.904
25762WAT      O77527   6.611   4.209   0.252
25762WAT     H177528   6.520   4.167   0.249
25762WAT     H277529   6.673   4.151   0.304
25763WAT      O77530   6.413   3.183   9.868
25763WAT     H177531   6.498   3.197   9.816
25763WAT     H277532   6.398   3.085   9.882
25764WAT      O77533   4.551   1.445   3.887
25764WAT     H177534   4.475   1.489   3.936
25764WAT     H277535   4.543   1.346   3.895
25765WAT      O77536   2.817   0.178   9.055
25765WAT     H177537   2.874   0.229   8.991
25765WAT     H277538   2.870   0.103   9.094
25766WAT      O77539   3.274   3.814   4.197
25766WAT     H177540   3.344   3.742   4.199
25766WAT     H277541   3.243   3.832   4.291
25767WAT      O77542   3.245   6.170   5.078
25767WAT     H177543   3.252   6.194   4.981
25767WAT     H277544   3.267   6.250   5.133
25768WAT      O77545   2.797   9.460   7.842
25768WAT     H177546   2.845   9.409   7.913
25768WAT     H277547   2.862   9.512   7.787
25769WAT      O77548   3.828   5.112   0.227
25769WAT     H177549   3.789   5.200   0.201
25769WAT     H277550   3.895   5.083   0.159
25770WAT      O77551   5.921   0.948   0.698
25770WAT     H177552   5.966   0.891   0.767
25770WAT     H277553   5.990   0.994   0.642
25771WAT      O77554   4.740   1.988   5.106
25771WAT     H177555   4.715   1.969   5.202
25771WAT     H277556   4.657   1.996   5.051
25772WAT      O77557   3.076   6.448   7.747
25772WAT     H177558   3.115   6.421   7.659
25772WAT     H277559   3.122   6.398   7.821
25773WAT      O77560   6.283   5.786   3.962
25773WAT     H177561   6.311   5.831   3.877
25773WAT     H277562   6.184   5.777   3.963
25774WAT      O77563   8.798   7.620   9.742
25774WAT     H177564   8.740   7.584   9.669
25774WAT     H277565   8.793   7.560   9.821
25775WAT      O77566   7.889   2.532   2.277
25775WAT     H177567   7.879   2.470   2.356
25775WAT     H277568   7.945   2.488   2.207
25776WAT      O77569   9.351   4.978   6.258
25776WAT     H177570   9.332   5.074   6.279
25776WAT     H277571   9.410   4.940   6.330
25777WAT      O77572   3.408   6.612   5.057
25777WAT     H177573   3.495   6.565   5.039
25777WAT     H277574   3.425   6.710   5.070
25778WAT      O77575   7.740   3.441   9.885
25778WAT     H177576   7.660   3.464   9.831
25778WAT     H277577   7.802   3.520   9.889
25779WAT      O77578   5.119   0.540   3.366
25779WAT     H177579   5.204   0.524   3.316
25779WAT     H277580   5.076   0.452   3.388
25780WAT      O77581   4.070   4.222   3.150
25780WAT     H177582   4.117   4.166   3.218
25780WAT     H277583   3.972   4.205   3.155
25781WAT      O77584   3.110   6.321   1.482
25781WAT     H177585   3.012   6.337   1.489
25781WAT     H277586   3.127   6.249   1.415
25782WAT      O77587   9.159   8.751   1.071
25782WAT     H177588   9.207   8.722   1.154
25782WAT     H277589   9.073   8.795   1.097
25783WAT      O77590   7.612   3.978   2.807
25783WAT     H177591   7.675   3.901   2.801
25783WAT     H277592   7.640   4.049   2.742
25784WAT      O77593   1.885   4.985   0.836
25784WAT     H177594   1.950   4.997   0.760
25784WAT     H277595   1.890   5.063   0.897
25785WAT      O77596   0.753   7.353   2.787
25785WAT     H177597   0.717   7.356   2.880
25785WAT     H277598   0.848   7.323   2.789
25786WAT      O77599   6.839   9.592   2.042
25786WAT     H177600   6.786   9.664   1.997
25786WAT     H277601   6.786   9.508   2.044
25787WAT      O77602   9.550   4.774   7.244
25787WAT     H177603   9.598   4.828   7.176
25787WAT     H277604   9.511   4.692   7.201
25788WAT      O77605   6.319   0.521   9.487
25788WAT     H177606   6.382   0.451   9.521
25788WAT     H277607   6.303   0.507   9.390
25789WAT      O77608   9.819   0.864   9.368
25789WAT     H177609   9.904   0.910   9.344
25789WAT     H277610   9.758   0.862   9.289
25790WAT      O77611   6.901   5.511   2.185
25790WAT     H177612   6.965   5.551   2.120
25790WAT     H277613   6.824   5.471   2.135
25791WAT      O77614   4.619   4.630   1.016
25791WAT     H177615   4.554   4.651   0.944
25791WAT     H277616   4.628   4.531   1.027
25792WAT      O77617   2.594   4.849   5.104
25792WAT     H177618   2.627   4.889   5.018
25792WAT     H277619   2.638   4.895   5.181
25793WAT      O77620   2.690   8.683   7.566
25793WAT     H177621   2.694   8.614   7.493
25793WAT     H277622   2.783   8.710   7.591
25794WAT      O77623   6.326   1.789   6.617
25794WAT     H177624   6.299   1.861   6.554
25794WAT     H277625   6.250   1.725   6.629
25795WAT      O77626   8.703   7.819   2.321
25795WAT     H177627   8.665   7.750   2.383
25795WAT     H277628   8.659   7.907   2.338
25796WAT      O77629   6.979   5.295   8.685
25796WAT     H177630   7.044   5.356   8.730
25796WAT     H277631   7.026   5.211   8.659
25797WAT      O77632   4.134   8.609   9.164
25797WAT     H177633   4.162   8.693   9.118
25797WAT     H277634   4.128   8.535   9.097
25798WAT      O77635   7.629   5.131   9.644
25798WAT     H177636   7.686   5.061   9.686
25798WAT     H277637   7.666   5.222   9.665
25799WAT      O77638   9.715   3.304   1.167
25799WAT     H177639   9.682   3.273   1.077
25799WAT     H277640   9.790   3.369   1.154
25800WAT      O77641   4.864   0.811   5.818
25800WAT     H177642   4.777   0.859   5.805
25800WAT     H277643   4.917   0.813   5.733
25801WAT      O77644   1.888   5.258   0.945
25801WAT     H177645   1.977   5.247   0.989
25801WAT     H277646   1.897   5.318   0.866
25802WAT      O77647   5.859   4.531   6.201
25802WAT     H177648   5.911   4.562   6.121
25802WAT     H277649   5.762   4.527   6.178
25803WAT      O77650   3.218   1.565   5.215
25803WAT     H177651   3.299   1.592   5.162
25803WAT     H277652   3.239   1.481   5.266
25804WAT      O77653   5.064   0.121   0.451
25804WAT     H177654   5.077   0.022   0.456
25804WAT     H277655   5.152   0.167   0.461
25805WAT      O77656   6.409   6.696   0.202
25805WAT     H177657   6.446   6.692   0.295
25805WAT     H277658   6.378   6.605   0.174
25806WAT      O77659   2.724   4.149   5.514
25806WAT     H177660   2.764   4.130   5.603
25806WAT     H277661   2.716   4.248   5.501
25807WAT      O77662   9.798   7.615   1.365
25807WAT     H177663   9.818   7.596   1.462
25807WAT     H277664   9.736   7.693   1.359
25808WAT      O77665   9.258   7.226   6.521
25808WAT     H177666   9.326   7.290   6.487
25808WAT     H277667   9.302   7.162   6.585
25809WAT      O77668   6.006   4.198   0.090
25809WAT     H177669   6.071   4.123   0.080
25809WAT     H277670   5.952   4.207   0.007
25810WAT      O77671   2.504   6.922   1.962
25810WAT     H177672   2.553   6.843   1.923
25810WAT     H277673   2.535   7.006   1.917
25811WAT      O77674   6.404   6.928   5.952
25811WAT     H177675   6.334   6.857   5.952
25811WAT     H277676   6.382   6.996   6.023
25812WAT      O77677   1.987   0.560   2.617
25812WAT     H177678   1.910   0.500   2.595
25812WAT     H277679   2.045   0.515   2.685
25813WAT      O77680   4.708   5.651   9.595
25813WAT     H177681   4.781   5.666   9.527
25813WAT     H277682   4.662   5.565   9.575
25814WAT      O77683   8.014   1.611   1.234
25814WAT     H177684   7.982   1.518   1.252
25814WAT     H277685   8.055   1.615   1.143
25815WAT      O77686   8.155   1.662   7.219
25815WAT     H177687   8.055   1.669   7.228
25815WAT     H277688   8.185   1.572   7.249
25816WAT      O77689   8.315   9.134   8.052
25816WAT     H177690   8.338   9.172   7.963
25816WAT     H277691   8.395   9.087   8.090
25817WAT      O77692   1.138   6.309   5.004
25817WAT     H177693   1.093   6.340   5.088
25817WAT     H277694   1.226   6.355   4.995
25818WAT      O77695   7.393   9.505   0.530
25818WAT     H177696   7.352   9.439   0.593
25818WAT     H277697   7.322   9.545   0.473
25819WAT      O77698   1.458   8.066   7.850
25819WAT     H177699   1.380   8.029   7.800
25819WAT     H277700   1.432   8.088   7.944
25820WAT      O77701   1.437   0.797   3.347
25820WAT     H177702   1.381   0.736   3.403
25820WAT     H277703   1.378   0.855   3.291
25821WAT      O77704   3.654   4.105   4.925
25821WAT     H177705   3.655   4.205   4.916
25821WAT     H277706   3.577   4.077   4.981
25822WAT      O77707   1.320   8.604   2.800
25822WAT     H177708   1.323   8.579   2.703
25822WAT     H277709   1.227   8.631   2.825
25823WAT      O77710   0.600   4.080   1.692
25823WAT     H177711   0.539   4.041   1.761
25823WAT     H277712   0.557   4.072   1.602
25824WAT      O77713   5.449   6.093   7.665
25824WAT     H177714   5.525   6.041   7.704
25824WAT     H277715   5.364   6.068   7.711
25825WAT      O77716   3.035   6.854   7.950
25825WAT     H177717   2.973   6.923   7.988
25825WAT     H277718   3.004   6.830   7.858
25826WAT      O77719   9.049   4.490   3.313
25826WAT     H177720   9.056   4.590   3.317
25826WAT     H277721   9.079   4.458   3.223
25827WAT      O77722   6.424   2.224   2.776
25827WAT     H177723   6.384   2.250   2.688
25827WAT     H277724   6.472   2.137   2.767
25828WAT      O77725   7.285   1.567   3.985
25828WAT     H177726   7.348   1.606   3.917
25828WAT     H277727   7.331   1.564   4.074
25829WAT      O77728   6.156   8.111   9.514
25829WAT     H177729   6.096   8.031   9.502
25829WAT     H277730   6.175   8.151   9.424
25830WAT      O77731   1.154   3.914   6.861
25830WAT     H177732   1.192   3.894   6.770
25830WAT     H277733   1.091   3.842   6.887
25831WAT      O77734   8.918   9.708   3.064
25831WAT     H177735   8.939   9.630   3.004
25831WAT     H277736   9.002   9.748   3.099
25832WAT      O77737   8.545   4.735   1.502
25832WAT     H177738   8.526   4.651   1.452
25832WAT     H277739   8.503   4.731   1.592
25833WAT      O77740   1.977   4.422   2.721
25833WAT     H177741   2.073   4.394   2.724
25833WAT     H277742   1.931   4.377   2.644
25834WAT      O77743   3.732   0.920   5.288
25834WAT     H177744   3.652   0.939   5.345
25834WAT     H277745   3.704   0.912   5.192
25835WAT      O77746   0.913   8.214   5.275
25835WAT     H177747   0.888   8.136   5.217
25835WAT     H277748   0.830   8.265   5.300
25836WAT      O77749   2.079   5.454   6.022
25836WAT     H177750   2.100   5.364   6.061
25836WAT     H277751   1.980   5.460   6.004
25837WAT      O77752   2.262   0.614   1.220
25837WAT     H177753   2.269   0.599   1.318
25837WAT     H277754   2.346   0.657   1.186
25838WAT      O77755   7.568   3.854   6.743
25838WAT     H177756   7.569   3.906   6.828
25838WAT     H277757   7.474   3.849   6.709
25839WAT      O77758   5.293   6.304   5.505
25839WAT     H177759   5.279   6.286   5.408
25839WAT     H277760   5.235   6.381   5.533
25840WAT      O77761   0.832   4.006   5.970
25840WAT     H177762   0.927   4.035   5.965
25840WAT     H277763   0.807   3.987   6.065
25841WAT      O77764   8.329   4.347   4.653
25841WAT     H177765   8.394   4.344   4.577
25841WAT     H277766   8.371   4.389   4.733
25842WAT      O77767   6.162   5.679   4.837
25842WAT     H177768   6.064   5.684   4.857
25842WAT     H277769   6.213   5.726   4.909
25843WAT      O77770   0.519   0.587   0.448
25843WAT     H177771   0.584   0.637   0.505
25843WAT     H277772   0.483   0.509   0.500
25844WAT      O77773   4.840   3.399   0.657
25844WAT     H177774   4.802   3.473   0.712
25844WAT     H277775   4.776   3.323   0.654
25845WAT      O77776   2.922   4.263   0.853
25845WAT     H177777   2.923   4.353   0.896
25845WAT     H277778   2.977   4.200   0.908
25846WAT      O77779   5.631   9.582   5.525
25846WAT     H177780   5.568   9.611   5.597
25846WAT     H277781   5.643   9.483   5.529
25847WAT      O77782   2.262   1.659   6.653
25847WAT     H177783   2.185   1.679   6.592
25847WAT     H277784   2.241   1.691   6.745
25848WAT      O77785   6.023   2.806   7.470
25848WAT     H177786   6.054   2.729   7.415
25848WAT     H277787   6.063   2.891   7.436
25849WAT      O77788   0.569   3.506   8.301
25849WAT     H177789   0.497   3.454   8.345
25849WAT     H277790   0.657   3.487   8.345
25850WAT      O77791   9.456   0.436   6.630
25850WAT     H177792   9.542   0.421   6.678
25850WAT     H277793   9.474   0.472   6.538
25851WAT      O77794   5.048   4.995   5.670
25851WAT     H177795   4.989   5.067   5.705
25851WAT     H277796   5.087   4.944   5.747
25852WAT      O77797   5.964   7.552   6.342
25852WAT     H177798   6.002   7.633   6.297
25852WAT     H277799   5.865   7.564   6.353
25853WAT      O77800   6.134   3.213   9.799
25853WAT     H177801   6.230   3.223   9.824
25853WAT     H277802   6.084   3.296   9.824
25854WAT      O77803   2.878   7.138   3.204
25854WAT     H177804   2.865   7.235   3.220
25854WAT     H277805   2.886   7.090   3.291
25855WAT      O77806   7.069   2.403   1.165
25855WAT     H177807   7.051   2.320   1.113
25855WAT     H277808   6.989   2.429   1.218
25856WAT      O77809   0.510   8.242   9.066
25856WAT     H177810   0.564   8.171   9.021
25856WAT     H277811   0.488   8.214   9.159
25857WAT      O77812   9.134   9.615   2.316
25857WAT     H177813   9.090   9.551   2.254
25857WAT     H277814   9.069   9.686   2.343
25858WAT      O77815   1.648   9.157   5.533
25858WAT     H177816   1.680   9.124   5.444
25858WAT     H277817   1.614   9.250   5.524
25859WAT      O77818   5.561   6.382   8.646
25859WAT     H177819   5.577   6.355   8.741
25859WAT     H277820   5.483   6.331   8.610
25860WAT      O77821   6.247   9.090   8.917
25860WAT     H177822   6.193   9.049   8.990
25860WAT     H277823   6.328   9.133   8.956
25861WAT      O77824   2.927   4.421   9.469
25861WAT     H177825   2.900   4.473   9.388
25861WAT     H277826   2.847   4.377   9.508
25862WAT      O77827   9.207   0.354   4.497
25862WAT     H177828   9.204   0.313   4.588
25862WAT     H277829   9.186   0.451   4.503
25863WAT      O77830   0.711   1.169   5.075
25863WAT     H177831   0.674   1.259   5.099
25863WAT     H277832   0.637   1.110   5.041
25864WAT      O77833   4.786   5.985   9.546
25864WAT     H177834   4.698   5.940   9.561
25864WAT     H277835   4.807   6.044   9.625
25865WAT      O77836   0.006   1.450   9.287
25865WAT     H177837   0.020   1.525   9.352
25865WAT     H277838   0.090   1.397   9.279
25866WAT      O77839   1.719   0.633   2.781
25866WAT     H177840   1.649   0.586   2.834
25866WAT     H277841   1.752   0.573   2.708
25867WAT      O77842   6.536   8.662   0.069
25867WAT     H177843   6.557   8.633  -0.025
25867WAT     H277844   6.439   8.684   0.077
25868WAT      O77845   4.583   2.925   6.627
25868WAT     H177846   4.488   2.955   6.623
25868WAT     H277847   4.621   2.947   6.717
25869WAT      O77848   5.828   1.828   1.189
25869WAT     H177849   5.803   1.897   1.121
25869WAT     H277850   5.775   1.841   1.272
25870WAT      O77851   5.712   0.151   6.513
25870WAT     H177852   5.767   0.073   6.542
25870WAT     H277853   5.728   0.170   6.417
25871WAT      O77854   2.535   1.674   0.545
25871WAT     H177855   2.605   1.721   0.599
25871WAT     H277856   2.486   1.608   0.602
25872WAT      O77857   2.848   6.645   1.671
25872WAT     H177858   2.777   6.651   1.600
25872WAT     H277859   2.922   6.587   1.639
25873WAT      O77860   3.073   0.500   7.933
25873WAT     H177861   3.063   0.401   7.925
25873WAT     H277862   2.999   0.536   7.991
25874WAT      O77863   0.391   4.720   1.067
25874WAT     H177864   0.485   4.754   1.075
25874WAT     H277865   0.336   4.758   1.141
25875WAT      O77866   4.856   5.856   8.975
25875WAT     H177867   4.832   5.882   9.068
25875WAT     H277868   4.933   5.911   8.944
25876WAT      O77869   3.941   4.997   1.924
25876WAT     H177870   3.893   5.079   1.955
25876WAT     H277871   3.939   4.927   1.995
25877WAT      O77872   3.426   3.603   3.125
25877WAT     H177873   3.444   3.507   3.104
25877WAT     H277874   3.445   3.659   3.044
25878WAT      O77875   6.495   6.670   0.461
25878WAT     H177876   6.501   6.571   0.452
25878WAT     H277877   6.486   6.695   0.557
25879WAT      O77878   1.932   6.159   1.071
25879WAT     H177879   1.849   6.214   1.077
25879WAT     H277880   1.990   6.195   0.998
25880WAT      O77881   6.071   0.230   9.488
25880WAT     H177882   6.066   0.284   9.572
25880WAT     H277883   6.086   0.134   9.511
25881WAT      O77884   1.912   0.552   7.367
25881WAT     H177885   1.838   0.498   7.327
25881WAT     H277886   1.952   0.610   7.297
25882WAT      O77887   2.448   0.105   3.098
25882WAT     H177888   2.462   0.203   3.113
25882WAT     H277889   2.537   0.059   3.097
25883WAT      O77890   3.241   8.310   2.147
25883WAT     H177891   3.189   8.226   2.135
25883WAT     H277892   3.337   8.288   2.163
25884WAT      O77893   5.857   9.167   3.614
25884WAT     H177894   5.876   9.088   3.556
25884WAT     H277895   5.891   9.250   3.571
25885WAT      O77896   7.863   3.079   8.906
25885WAT     H177897   7.948   3.027   8.912
25885WAT     H277898   7.878   3.161   8.851
25886WAT      O77899   7.391   7.023   6.778
25886WAT     H177900   7.360   7.091   6.711
25886WAT     H277901   7.403   7.068   6.867
25887WAT      O77902   5.519   8.780   5.279
25887WAT     H177903   5.477   8.862   5.239
25887WAT     H277904   5.528   8.792   5.377
25888WAT      O77905   7.323   7.401   0.548
25888WAT     H177906   7.355   7.392   0.642
25888WAT     H277907   7.402   7.401   0.486
25889WAT      O77908   4.025   9.742   6.923
25889WAT     H177909   4.032   9.841   6.911
25889WAT     H277910   3.988   9.721   7.013
25890WAT      O77911   6.858   1.036   1.244
25890WAT     H177912   6.891   0.967   1.309
25890WAT     H277913   6.871   1.004   1.151
25891WAT      O77914   1.602   7.984   3.103
25891WAT     H177915   1.536   7.939   3.043
25891WAT     H277916   1.610   7.932   3.188
25892WAT      O77917   0.132   9.057   6.112
25892WAT     H177918   0.035   9.047   6.136
25892WAT     H277919   0.155   9.155   6.106
25893WAT      O77920   0.832   4.058   5.529
25893WAT     H177921   0.829   3.964   5.563
25893WAT     H277922   0.897   4.064   5.453
25894WAT      O77923   2.529   8.364   4.743
25894WAT     H177924   2.627   8.378   4.731
25894WAT     H277925   2.508   8.353   4.840
25895WAT      O77926   7.602   4.678   4.219
25895WAT     H177927   7.635   4.675   4.125
25895WAT     H277928   7.660   4.739   4.273
25896WAT      O77929   2.422   1.887   1.358
25896WAT     H177930   2.342   1.910   1.302
25896WAT     H277931   2.492   1.957   1.347
25897WAT      O77932   5.800   5.289   7.396
25897WAT     H177933   5.846   5.217   7.344
25897WAT     H277934   5.793   5.261   7.492
25898WAT      O77935   1.301   8.141   9.344
25898WAT     H177936   1.225   8.143   9.409
25898WAT     H277937   1.300   8.225   9.289
25899WAT      O77938   7.955   6.016   7.439
25899WAT     H177939   8.028   5.953   7.415
25899WAT     H277940   7.954   6.029   7.538
25900WAT      O77941   6.068   5.404   1.950
25900WAT     H177942   6.153   5.377   1.995
25900WAT     H277943   5.993   5.404   2.016
25901WAT      O77944   0.282   1.715   2.558
25901WAT     H177945   0.340   1.775   2.502
25901WAT     H277946   0.212   1.769   2.603
25902WAT      O77947   4.055   2.391   2.979
25902WAT     H177948   4.133   2.395   2.916
25902WAT     H277949   4.050   2.475   3.032
25903WAT      O77950   7.632   6.926   2.241
25903WAT     H177951   7.552   6.880   2.204
25903WAT     H277952   7.651   7.008   2.187
25904WAT      O77953   0.193   2.423   7.408
25904WAT     H177954   0.232   2.355   7.346
25904WAT     H277955   0.180   2.509   7.359
25905WAT      O77956   0.147   3.078   0.289
25905WAT     H177957   0.181   3.157   0.340
25905WAT     H277958   0.196   3.072   0.202
25906WAT      O77959   1.806   8.583   0.905
25906WAT     H177960   1.839   8.490   0.920
25906WAT     H277961   1.715   8.593   0.946
25907WAT      O77962   5.839   7.521   8.814
25907WAT     H177963   5.806   7.528   8.719
25907WAT     H277964   5.841   7.425   8.842
25908WAT      O77965   4.122   4.346   3.498
25908WAT     H177966   4.096   4.426   3.443
25908WAT     H277967   4.060   4.270   3.478
25909WAT      O77968   7.090   2.693   7.676
25909WAT     H177969   7.166   2.630   7.658
25909WAT     H277970   7.039   2.663   7.756
25910WAT      O77971   4.721   3.495   3.916
25910WAT     H177972   4.728   3.548   3.831
25910WAT     H277973   4.783   3.533   3.984
25911WAT      O77974   2.326   9.731   9.211
25911WAT     H177975   2.228   9.717   9.226
25911WAT     H277976   2.343   9.827   9.189
25912WAT      O77977   4.877   7.168   7.112
25912WAT     H177978   4.834   7.164   7.202
25912WAT     H277979   4.927   7.254   7.103
25913WAT      O77980   7.790   8.455   7.608
25913WAT     H177981   7.837   8.537   7.575
25913WAT     H277982   7.692   8.473   7.614
25914WAT      O77983   3.770   6.168   5.208
25914WAT     H177984   3.859   6.138   5.242
25914WAT     H277985   3.708   6.183   5.285
25915WAT      O77986   0.677   5.056   5.894
25915WAT     H177987   0.661   5.128   5.962
25915WAT     H277988   0.744   5.088   5.827
25916WAT      O77989   8.954   5.047   7.601
25916WAT     H177990   9.015   5.091   7.534
25916WAT     H277991   8.969   4.948   7.598
25917WAT      O77992   8.293   9.566   4.750
25917WAT     H177993   8.271   9.638   4.684
25917WAT     H277994   8.263   9.595   4.841
25918WAT      O77995   0.747   7.750   8.719
25918WAT     H177996   0.804   7.674   8.687
25918WAT     H277997   0.675   7.715   8.779
25919WAT      O77998   6.676   3.195   9.782
25919WAT     H177999   6.722   3.153   9.704
25919WAT     H278000   6.658   3.291   9.761
25920WAT      O78001   8.424   5.093   3.089
25920WAT     H178002   8.398   5.017   3.029
25920WAT     H278003   8.441   5.058   3.181
25921WAT      O78004   3.765   8.522   7.779
25921WAT     H178005   3.789   8.594   7.844
25921WAT     H278006   3.835   8.450   7.783
25922WAT      O78007   5.937   8.125   0.778
25922WAT     H178008   5.927   8.203   0.716
25922WAT     H278009   5.867   8.057   0.759
25923WAT      O78010   3.363   3.907   0.766
25923WAT     H178011   3.451   3.878   0.729
25923WAT     H278012   3.352   4.006   0.752
25924WAT      O78013   7.306   0.495   6.543
25924WAT     H178014   7.265   0.408   6.570
25924WAT     H278015   7.276   0.567   6.605
25925WAT      O78016   1.142   9.541   5.720
25925WAT     H178017   1.134   9.602   5.799
25925WAT     H278018   1.167   9.449   5.750
25926WAT      O78019   3.857   3.371   2.725
25926WAT     H178020   3.925   3.301   2.746
25926WAT     H278021   3.832   3.366   2.629
25927WAT      O78022   3.964   8.458   3.616
25927WAT     H178023   4.012   8.527   3.562
25927WAT     H278024   3.919   8.393   3.554
25928WAT      O78025   4.959   0.105   6.394
25928WAT     H178026   4.872   0.059   6.409
25928WAT     H278027   4.962   0.141   6.301
25929WAT      O78028   3.290   9.510   1.328
25929WAT     H178029   3.353   9.550   1.394
25929WAT     H278030   3.338   9.441   1.274
25930WAT      O78031   3.645   0.153   0.798
25930WAT     H178032   3.625   0.175   0.702
25930WAT     H278033   3.734   0.106   0.803
25931WAT      O78034   0.305   0.602   0.920
25931WAT     H178035   0.282   0.699   0.921
25931WAT     H278036   0.405   0.591   0.919
25932WAT      O78037   7.089   0.542   5.677
25932WAT     H178038   7.177   0.522   5.633
25932WAT     H278039   7.049   0.457   5.711
25933WAT      O78040   6.290   6.848   2.518
25933WAT     H178041   6.279   6.918   2.447
25933WAT     H278042   6.201   6.805   2.536
25934WAT      O78043   5.007   1.296   6.721
25934WAT     H178044   5.014   1.393   6.746
25934WAT     H278045   5.035   1.283   6.626
25935WAT      O78046   5.294   4.263   4.036
25935WAT     H178047   5.232   4.185   4.037
25935WAT     H278048   5.243   4.346   4.014
25936WAT      O78049   1.476   1.876   8.013
25936WAT     H178050   1.497   1.811   7.940
25936WAT     H278051   1.550   1.943   8.019
25937WAT      O78052   4.712   9.411   0.090
25937WAT     H178053   4.697   9.492   0.032
25937WAT     H278054   4.789   9.359   0.053
25938WAT      O78055   8.003   7.921   4.064
25938WAT     H178056   7.930   7.933   4.132
25938WAT     H278057   8.028   7.824   4.059
25939WAT      O78058   3.542   2.548   7.666
25939WAT     H178059   3.456   2.503   7.644
25939WAT     H278060   3.538   2.644   7.637
25940WAT      O78061   1.176   1.406   2.798
25940WAT     H178062   1.089   1.445   2.826
25940WAT     H278063   1.248   1.474   2.809
25941WAT      O78064   9.273   8.827   8.100
25941WAT     H178065   9.265   8.771   8.182
25941WAT     H278066   9.255   8.923   8.123
25942WAT      O78067   0.654   9.717   7.966
25942WAT     H178068   0.580   9.783   7.975
25942WAT     H278069   0.689   9.718   7.872
25943WAT      O78070   7.845   0.085   3.525
25943WAT     H178071   7.855   0.017   3.453
25943WAT     H278072   7.752   0.082   3.562
25944WAT      O78073   7.950   0.907   8.560
25944WAT     H178074   7.879   0.901   8.631
25944WAT     H278075   7.906   0.915   8.470
25945WAT      O78076   6.610   0.200   4.300
25945WAT     H178077   6.595   0.299   4.306
25945WAT     H278078   6.634   0.175   4.206
25946WAT      O78079   1.741   6.505   3.755
25946WAT     H178080   1.646   6.524   3.780
25946WAT     H278081   1.802   6.549   3.820
25947WAT      O78082   8.434   3.946   0.098
25947WAT     H178083   8.510   3.945   0.033
25947WAT     H278084   8.378   4.028   0.082
25948WAT      O78085   6.385   1.795   5.988
25948WAT     H178086   6.456   1.753   5.931
25948WAT     H278087   6.402   1.894   5.995
25949WAT      O78088   3.987   6.980   7.670
25949WAT     H178089   4.087   6.985   7.669
25949WAT     H278090   3.955   6.929   7.591
25950WAT      O78091   2.160   3.871   0.675
25950WAT     H178092   2.122   3.916   0.594
25950WAT     H278093   2.096   3.880   0.751
25951WAT      O78094   3.996   7.656   1.577
25951WAT     H178095   3.982   7.755   1.580
25951WAT     H278096   4.040   7.631   1.490
25952WAT      O78097   6.783   4.787   5.802
25952WAT     H178098   6.782   4.725   5.724
25952WAT     H278099   6.872   4.831   5.809
25953WAT      O78100   6.492   0.608   1.256
25953WAT     H178101   6.415   0.560   1.213
25953WAT     H278102   6.577   0.581   1.210
25954WAT      O78103   2.636   3.375   1.402
25954WAT     H178104   2.610   3.468   1.377
25954WAT     H278105   2.668   3.326   1.321
25955WAT      O78106   6.061   7.194   9.758
25955WAT     H178107   6.104   7.105   9.747
25955WAT     H278108   6.103   7.259   9.694
25956WAT      O78109   3.460   0.773   3.038
25956WAT     H178110   3.535   0.770   3.104
25956WAT     H278111   3.443   0.867   3.010
25957WAT      O78112   9.303   4.710   2.959
25957WAT     H178113   9.292   4.743   2.865
25957WAT     H278114   9.237   4.637   2.977
25958WAT      O78115   0.186   6.983   4.736
25958WAT     H178116   0.253   7.033   4.680
25958WAT     H278117   0.100   6.975   4.685
25959WAT      O78118   3.800   0.162   9.236
25959WAT     H178119   3.744   0.244   9.239
25959WAT     H278120   3.744   0.082   9.256
25960WAT      O78121   4.861   0.739   6.367
25960WAT     H178122   4.857   0.797   6.448
25960WAT     H278123   4.937   0.769   6.308
25961WAT      O78124   7.485   9.326   5.757
25961WAT     H178125   7.472   9.230   5.784
25961WAT     H278126   7.565   9.363   5.805
25962WAT      O78127   1.863   3.647   6.854
25962WAT     H178128   1.958   3.616   6.862
25962WAT     H278129   1.823   3.610   6.770
25963WAT      O78130   1.011   7.359   9.785
25963WAT     H178131   0.948   7.336   9.859
25963WAT     H278132   1.010   7.458   9.768
25964WAT      O78133   8.891   1.904   8.056
25964WAT     H178134   8.917   1.814   8.093
25964WAT     H278135   8.827   1.948   8.119
25965WAT      O78136   0.493   9.204   3.458
25965WAT     H178137   0.574   9.228   3.404
25965WAT     H278138   0.478   9.275   3.527
25966WAT      O78139   3.310   4.017   8.302
25966WAT     H178140   3.241   4.002   8.231
25966WAT     H278141   3.354   4.106   8.287
25967WAT      O78142   1.209   7.886   9.636
25967WAT     H178143   1.218   7.844   9.546
25967WAT     H278144   1.256   7.829   9.704
25968WAT      O78145   1.358   7.818   9.397
25968WAT     H178146   1.436   7.763   9.370
25968WAT     H278147   1.326   7.872   9.318
25969WAT      O78148   8.178   6.408   6.684
25969WAT     H178149   8.156   6.383   6.590
25969WAT     H278150   8.270   6.447   6.688
25970WAT      O78151   8.378   8.016   7.601
25970WAT     H178152   8.394   7.924   7.637
25970WAT     H278153   8.308   8.062   7.656
25971WAT      O78154   8.417   4.457   3.350
25971WAT     H178155   8.361   4.457   3.267
25971WAT     H278156   8.487   4.528   3.343
25972WAT      O78157   7.093   0.031   5.653
25972WAT     H178158   7.003   0.010   5.691
25972WAT     H278159   7.104  -0.018   5.566
25973WAT      O78160   0.024   0.773   2.900
25973WAT     H178161  -0.009   0.776   2.994
25973WAT     H278162   0.113   0.819   2.894
25974WAT      O78163   0.398   2.193   0.659
25974WAT     H178164   0.440   2.237   0.738
25974WAT     H278165   0.327   2.130   0.689
25975WAT      O78166   8.501   4.262   2.156
25975WAT     H178167   8.514   4.313   2.242
25975WAT     H278168   8.561   4.300   2.086
25976WAT      O78169   5.062   0.867   0.124
25976WAT     H178170   5.121   0.829   0.052
25976WAT     H278171   5.057   0.801   0.199
25977WAT      O78172   0.113   3.470   0.452
25977WAT     H178173   0.079   3.431   0.538
25977WAT     H278174   0.196   3.523   0.471
25978WAT      O78175   4.767   4.836   0.647
25978WAT     H178176   4.701   4.761   0.647
25978WAT     H278177   4.728   4.914   0.695
25979WAT      O78178   3.092   0.699   3.890
25979WAT     H178179   3.100   0.724   3.987
25979WAT     H278180   3.057   0.778   3.838
25980WAT      O78181   6.827   5.394   2.455
25980WAT     H178182   6.865   5.463   2.393
25980WAT     H278183   6.807   5.310   2.404
25981WAT      O78184   5.924   5.989   3.370
25981WAT     H178185   5.867   6.071   3.362
25981WAT     H278186   5.888   5.918   3.309
25982WAT      O78187   2.396   9.452   5.766
25982WAT     H178188   2.356   9.479   5.853
25982WAT     H278189   2.458   9.523   5.733
25983WAT      O78190   8.404   1.212   4.678
25983WAT     H178191   8.442   1.294   4.720
25983WAT     H278192   8.478   1.146   4.662
25984WAT      O78193   1.677   5.994   4.485
25984WAT     H178194   1.698   6.066   4.551
25984WAT     H278195   1.578   5.990   4.471
25985WAT      O78196   6.583   6.249   7.797
25985WAT     H178197   6.648   6.177   7.819
25985WAT     H278198   6.490   6.213   7.804
25986WAT      O78199   0.823   2.866   7.045
25986WAT     H178200   0.801   2.960   7.019
25986WAT     H278201   0.829   2.860   7.145
25987WAT      O78202   3.031   2.084   6.552
25987WAT     H178203   2.935   2.055   6.550
25987WAT     H278204   3.087   2.010   6.591
25988WAT      O78205   6.751   9.001   7.524
25988WAT     H178206   6.792   8.957   7.444
25988WAT     H278207   6.658   8.968   7.537
25989WAT      O78208   1.882   0.529   1.776
25989WAT     H178209   1.849   0.453   1.831
25989WAT     H278210   1.904   0.497   1.684
25990WAT      O78211   9.670   0.831   7.666
25990WAT     H178212   9.724   0.776   7.730
25990WAT     H278213   9.643   0.775   7.588
25991WAT      O78214   5.759   2.119   8.967
25991WAT     H178215   5.703   2.102   9.049
25991WAT     H278216   5.756   2.038   8.908
25992WAT      O78217   2.521   6.899   0.043
25992WAT     H178218   2.457   6.967   0.008
25992WAT     H278219   2.472   6.814   0.060
25993WAT      O78220   6.253   7.112   4.516
25993WAT     H178221   6.206   7.185   4.565
25993WAT     H278222   6.351   7.128   4.518
25994WAT      O78223   4.908   6.378   1.115
25994WAT     H178224   4.997   6.413   1.088
25994WAT     H278225   4.891   6.291   1.069
25995WAT      O78226   8.453   5.053   2.155
25995WAT     H178227   8.520   4.998   2.205
25995WAT     H278228   8.477   5.150   2.161
25996WAT      O78229   0.178   1.691   7.169
25996WAT     H178230   0.247   1.725   7.105
25996WAT     H278231   0.223   1.651   7.249
25997WAT      O78232   2.705   0.072   6.328
25997WAT     H178233   2.690   0.140   6.400
25997WAT     H278234   2.731  -0.015   6.370
25998WAT      O78235   9.176   8.275   9.381
25998WAT     H178236   9.214   8.366   9.367
25998WAT     H278237   9.094   8.264   9.325
25999WAT      O78238   2.164   2.603   2.305
25999WAT     H178239   2.186   2.601   2.403
25999WAT     H278240   2.171   2.510   2.268
26000WAT      O78241   3.124   7.245   8.380
26000WAT     H178242   3.054   7.174   8.386
26000WAT     H278243   3.132   7.275   8.285
26001WAT      O78244   6.267   5.075   7.746
26001WAT     H178245   6.178   5.034   7.767
26001WAT     H278246   6.307   5.030   7.667
26002WAT      O78247   9.114   3.499   6.716
26002WAT     H178248   9.162   3.411   6.718
26002WAT     H278249   9.095   3.529   6.809
26003WAT      O78250   3.964   5.259   9.489
26003WAT     H178251   4.042   5.203   9.515
26003WAT     H278252   3.930   5.230   9.400
26004WAT      O78253   3.513   4.356   1.250
26004WAT     H178254   3.444   4.287   1.270
26004WAT     H278255   3.528   4.413   1.332
26005WAT      O78256   6.453   8.823   2.027
26005WAT     H178257   6.553   8.814   2.032
26005WAT     H278258   6.422   8.800   1.935
26006WAT      O78259   6.696   2.417   4.590
26006WAT     H178260   6.705   2.445   4.494
26006WAT     H278261   6.599   2.403   4.611
26007WAT      O78262   8.402   7.430   9.786
26007WAT     H178263   8.385   7.519   9.743
26007WAT     H278264   8.431   7.444   9.881
26008WAT      O78265   0.201   5.471   6.399
26008WAT     H178266   0.268   5.400   6.378
26008WAT     H278267   0.238   5.531   6.470
26009WAT      O78268   4.420   9.820   8.816
26009WAT     H178269   4.514   9.838   8.846
26009WAT     H278270   4.356   9.862   8.880
26010WAT      O78271   8.725   6.031   5.476
26010WAT     H178272   8.769   5.982   5.551
26010WAT     H278273   8.719   5.970   5.396
26011WAT      O78274   9.046   0.551   4.282
26011WAT     H178275   9.138   0.516   4.265
26011WAT     H278276   8.979   0.479   4.266
26012WAT      O78277   8.860   4.844   6.448
26012WAT     H178278   8.880   4.749   6.425
26012WAT     H278279   8.934   4.882   6.504
26013WAT      O78280   0.737   5.885   3.809
26013WAT     H178281   0.827   5.870   3.767
26013WAT     H278282   0.671   5.823   3.768
26014WAT      O78283   2.812   2.396   6.829
26014WAT     H178284   2.850   2.400   6.737
26014WAT     H278285   2.712   2.399   6.823
26015WAT      O78286   3.978   3.869   4.434
26015WAT     H178287   3.962   3.843   4.529
26015WAT     H278288   4.072   3.903   4.424
26016WAT      O78289   1.092   4.348   6.513
26016WAT     H178290   1.000   4.345   6.474
26016WAT     H278291   1.132   4.256   6.511
26017WAT      O78292   4.537   7.228   5.386
26017WAT     H178293   4.613   7.166   5.406
26017WAT     H278294   4.510   7.276   5.470
26018WAT      O78295   3.331   3.881   3.528
26018WAT     H178296   3.332   3.791   3.484
26018WAT     H278297   3.274   3.878   3.610
26019WAT      O78298   4.193   2.304   2.315
26019WAT     H178299   4.271   2.367   2.315
26019WAT     H278300   4.124   2.336   2.380
26020WAT      O78301   4.698   4.148   9.117
26020WAT     H178302   4.701   4.059   9.163
26020WAT     H278303   4.789   4.174   9.087
26021WAT      O78304   3.497   0.956   0.975
26021WAT     H178305   3.588   0.919   0.996
26021WAT     H278306   3.427   0.896   1.015
26022WAT      O78307   4.135   8.487   8.923
26022WAT     H178308   4.091   8.402   8.893
26022WAT     H278309   4.126   8.556   8.851
26023WAT      O78310   4.437   2.303   1.569
26023WAT     H178311   4.479   2.227   1.518
26023WAT     H278312   4.501   2.337   1.637
26024WAT      O78313   4.072   7.159   6.948
26024WAT     H178314   4.154   7.146   7.004
26024WAT     H278315   4.099   7.179   6.854
26025WAT      O78316   2.943   5.700   1.778
26025WAT     H178317   3.003   5.621   1.763
26025WAT     H278318   2.887   5.684   1.860
26026WAT      O78319   3.857   2.291   5.776
26026WAT     H178320   3.815   2.246   5.696
26026WAT     H278321   3.855   2.390   5.763
26027WAT      O78322   6.300   5.959   8.922
26027WAT     H178323   6.210   5.991   8.895
26027WAT     H278324   6.336   6.016   8.996
26028WAT      O78325   0.742   4.642   4.887
26028WAT     H178326   0.781   4.666   4.976
26028WAT     H278327   0.689   4.557   4.896
26029WAT      O78328   9.387   4.617   9.557
26029WAT     H178329   9.469   4.630   9.613
26029WAT     H278330   9.318   4.567   9.610
26030WAT      O78331   4.490   0.322   4.214
26030WAT     H178332   4.584   0.331   4.181
26030WAT     H278333   4.474   0.229   4.245
26031WAT      O78334   2.252   9.153   4.424
26031WAT     H178335   2.287   9.103   4.503
26031WAT     H278336   2.314   9.139   4.346
26032WAT      O78337   6.960   1.339   5.058
26032WAT     H178338   7.048   1.374   5.091
26032WAT     H278339   6.912   1.294   5.133
26033WAT      O78340   6.387   7.630   8.695
26033WAT     H178341   6.394   7.730   8.698
26033WAT     H278342   6.478   7.590   8.686
26034WAT      O78343   4.477   3.483   8.450
26034WAT     H178344   4.523   3.551   8.392
26034WAT     H278345   4.390   3.521   8.482
26035WAT      O78346   2.554   1.341   1.314
26035WAT     H178347   2.604   1.424   1.338
26035WAT     H278348   2.618   1.273   1.278
26036WAT      O78349   1.486   4.466   3.596
26036WAT     H178350   1.555   4.519   3.547
26036WAT     H278351   1.463   4.513   3.682
26037WAT      O78352   3.997   0.917   3.511
26037WAT     H178353   4.023   0.821   3.503
26037WAT     H278354   3.918   0.925   3.572
26038WAT      O78355   8.134   0.869   9.169
26038WAT     H178356   8.040   0.864   9.203
26038WAT     H278357   8.196   0.835   9.240
26039WAT      O78358   1.571   9.710   6.128
26039WAT     H178359   1.601   9.649   6.201
26039WAT     H278360   1.499   9.666   6.075
26040WAT      O78361   5.587   6.047   2.469
26040WAT     H178362   5.630   5.971   2.421
26040WAT     H278363   5.498   6.067   2.427
26041WAT      O78364   3.442   3.080   5.031
26041WAT     H178365   3.484   2.993   5.003
26041WAT     H278366   3.343   3.068   5.038
26042WAT      O78367   3.370   8.848   7.442
26042WAT     H178368   3.431   8.774   7.414
26042WAT     H278369   3.375   8.859   7.541
26043WAT      O78370   6.148   3.699   3.519
26043WAT     H178371   6.184   3.636   3.587
26043WAT     H278372   6.211   3.705   3.442
26044WAT      O78373   2.044   9.620   8.034
26044WAT     H178374   2.054   9.658   7.942
26044WAT     H278375   2.117   9.654   8.093
26045WAT      O78376   5.135   7.414   7.548
26045WAT     H178377   5.106   7.351   7.619
26045WAT     H278378   5.100   7.506   7.568
26046WAT      O78379   0.157   8.836   6.622
26046WAT     H178380   0.211   8.755   6.647
26046WAT     H278381   0.109   8.819   6.537
26047WAT      O78382   6.485   2.089   8.138
26047WAT     H178383   6.536   2.017   8.090
26047WAT     H278384   6.392   2.057   8.158
26048WAT      O78385   6.425   3.041   8.523
26048WAT     H178386   6.345   3.097   8.541
26048WAT     H278387   6.472   3.021   8.609
26049WAT      O78388   4.731   0.676   4.441
26049WAT     H178389   4.682   0.727   4.371
26049WAT     H278390   4.719   0.721   4.530
26050WAT      O78391   3.788   8.465   1.216
26050WAT     H178392   3.690   8.449   1.207
26050WAT     H278393   3.819   8.524   1.141
26051WAT      O78394   2.510   9.330   0.705
26051WAT     H178395   2.472   9.410   0.658
26051WAT     H278396   2.544   9.358   0.795
26052WAT      O78397   6.807   6.921   6.760
26052WAT     H178398   6.894   6.938   6.714
26052WAT     H278399   6.740   6.988   6.730
26053WAT      O78400   5.763   3.703   6.617
26053WAT     H178401   5.728   3.750   6.535
26053WAT     H278402   5.808   3.769   6.677
26054WAT      O78403   1.717   0.218   4.646
26054WAT     H178404   1.804   0.169   4.655
26054WAT     H278405   1.679   0.233   4.737
26055WAT      O78406   6.791   8.028   2.872
26055WAT     H178407   6.809   8.123   2.896
26055WAT     H278408   6.709   7.997   2.920
26056WAT      O78409   6.941   8.552   1.213
26056WAT     H178410   6.965   8.483   1.145
26056WAT     H278411   6.874   8.616   1.175
26057WAT      O78412   3.972   5.637   2.204
26057WAT     H178413   3.977   5.547   2.246
26057WAT     H278414   3.877   5.667   2.202
26058WAT      O78415   9.601   9.667   3.161
26058WAT     H178416   9.526   9.618   3.116
26058WAT     H278417   9.616   9.629   3.252
26059WAT      O78418   2.231   5.830   8.766
26059WAT     H178419   2.198   5.739   8.740
26059WAT     H278420   2.164   5.899   8.740
26060WAT      O78421   9.018   0.917   7.572
26060WAT     H178422   9.045   1.000   7.522
26060WAT     H278423   9.069   0.912   7.658
26061WAT      O78424   8.224   0.450   3.019
26061WAT     H178425   8.139   0.449   2.966
26061WAT     H278426   8.274   0.535   3.000
26062WAT      O78427   7.644   9.100   0.061
26062WAT     H178428   7.660   9.003   0.042
26062WAT     H278429   7.650   9.152  -0.024
26063WAT      O78430   3.450   2.918   6.508
26063WAT     H178431   3.365   2.874   6.539
26063WAT     H278432   3.427   2.998   6.452
26064WAT      O78433   0.606   5.996   1.973
26064WAT     H178434   0.589   6.049   1.890
26064WAT     H278435   0.675   6.042   2.028
26065WAT      O78436   6.016   7.707   2.578
26065WAT     H178437   6.025   7.746   2.487
26065WAT     H278438   6.095   7.649   2.598
26066WAT      O78439   4.792   1.907   2.125
26066WAT     H178440   4.710   1.861   2.093
26066WAT     H278441   4.819   1.977   2.058
26067WAT      O78442   2.326   6.172   8.530
26067WAT     H178443   2.264   6.123   8.469
26067WAT     H278444   2.277   6.249   8.572
26068WAT      O78445   9.470   6.757   3.039
26068WAT     H178446   9.564   6.761   3.004
26068WAT     H278447   9.446   6.846   3.078
26069WAT      O78448   4.781   9.400   2.847
26069WAT     H178449   4.699   9.362   2.890
26069WAT     H278450   4.798   9.353   2.761
26070WAT      O78451   4.431   4.536   6.152
26070WAT     H178452   4.401   4.483   6.232
26070WAT     H278453   4.522   4.506   6.124
26071WAT      O78454   1.847   2.196   8.283
26071WAT     H178455   1.803   2.280   8.254
26071WAT     H278456   1.875   2.143   8.203
26072WAT      O78457   1.718   2.569   0.611
26072WAT     H178458   1.710   2.668   0.594
26072WAT     H278459   1.679   2.548   0.701
26073WAT      O78460   7.967   7.777   1.186
26073WAT     H178461   7.946   7.766   1.283
26073WAT     H278462   7.969   7.687   1.142
26074WAT      O78463   0.453   4.077   5.075
26074WAT     H178464   0.354   4.081   5.091
26074WAT     H278465   0.492   3.999   5.125
26075WAT      O78466   1.351   5.065   9.778
26075WAT     H178467   1.395   5.146   9.737
26075WAT     H278468   1.417   4.991   9.784
26076WAT      O78469   7.193   5.411   8.868
26076WAT     H178470   7.115   5.441   8.923
26076WAT     H278471   7.243   5.340   8.918
26077WAT      O78472   8.173   6.526   5.380
26077WAT     H178473   8.141   6.610   5.424
26077WAT     H278474   8.237   6.479   5.441
26078WAT      O78475   1.043   8.697   0.683
26078WAT     H178476   1.141   8.683   0.696
26078WAT     H278477   1.022   8.697   0.585
26079WAT      O78478   8.993   3.163   0.324
26079WAT     H178479   8.894   3.163   0.313
26079WAT     H278480   9.020   3.086   0.381
26080WAT      O78481   9.378   0.033   2.801
26080WAT     H178482   9.359   0.041   2.703
26080WAT     H278483   9.455   0.092   2.825
26081WAT      O78484   8.777   7.812   1.140
26081WAT     H178485   8.770   7.801   1.041
26081WAT     H278486   8.872   7.796   1.168
26082WAT      O78487   0.104   5.362   8.261
26082WAT     H178488   0.048   5.341   8.342
26082WAT     H278489   0.090   5.291   8.192
26083WAT      O78490   9.142   2.881   7.129
26083WAT     H178491   9.117   2.802   7.072
26083WAT     H278492   9.239   2.875   7.154
26084WAT      O78493   1.477   4.989   1.106
26084WAT     H178494   1.439   4.926   1.174
26084WAT     H278495   1.476   5.081   1.143
26085WAT      O78496   5.284   4.715   7.054
26085WAT     H178497   5.313   4.661   7.133
26085WAT     H278498   5.201   4.675   7.015
26086WAT      O78499   6.949   6.233   7.356
26086WAT     H178500   6.992   6.273   7.275
26086WAT     H278501   6.924   6.138   7.338
26087WAT      O78502   5.566   1.580   0.294
26087WAT     H178503   5.630   1.567   0.370
26087WAT     H278504   5.514   1.496   0.279
26088WAT      O78505   4.959   1.135   1.648
26088WAT     H178506   5.007   1.057   1.689
26088WAT     H278507   5.013   1.172   1.573
26089WAT      O78508   6.511   1.359   3.593
26089WAT     H178509   6.546   1.390   3.682
26089WAT     H278510   6.419   1.322   3.604
26090WAT      O78511   2.665   0.689   7.581
26090WAT     H178512   2.632   0.767   7.527
26090WAT     H278513   2.736   0.641   7.531
26091WAT      O78514   5.646   8.915   7.603
26091WAT     H178515   5.569   8.919   7.539
26091WAT     H278516   5.629   8.978   7.679
26092WAT      O78517   2.838   0.121   6.872
26092WAT     H178518   2.818   0.218   6.884
26092WAT     H278519   2.753   0.069   6.863
26093WAT      O78520   9.200   9.461   6.529
26093WAT     H178521   9.198   9.384   6.594
26093WAT     H278522   9.131   9.528   6.556
26094WAT      O78523   3.327   5.893   5.329
26094WAT     H178524   3.342   5.875   5.232
26094WAT     H278525   3.406   5.862   5.382
26095WAT      O78526   9.633   9.781   0.429
26095WAT     H178527   9.615   9.814   0.337
26095WAT     H278528   9.562   9.715   0.455
26096WAT      O78529   2.228   3.035   3.288
26096WAT     H178530   2.183   3.096   3.353
26096WAT     H278531   2.217   2.940   3.318
26097WAT      O78532   0.808   7.597   5.471
26097WAT     H178533   0.714   7.569   5.490
26097WAT     H278534   0.870   7.553   5.535
26098WAT      O78535   4.916   8.331   7.727
26098WAT     H178536   4.977   8.396   7.772
26098WAT     H278537   4.826   8.335   7.770
26099WAT      O78538   9.565   2.794   4.738
26099WAT     H178539   9.606   2.707   4.709
26099WAT     H278540   9.557   2.854   4.659
26100WAT      O78541   1.287   0.682   5.020
26100WAT     H178542   1.236   0.762   5.050
26100WAT     H278543   1.292   0.616   5.096
26101WAT      O78544   1.688   6.594   1.521
26101WAT     H178545   1.662   6.604   1.425
26101WAT     H278546   1.786   6.574   1.527
26102WAT      O78547   4.183   2.834   3.082
26102WAT     H178548   4.109   2.901   3.088
26102WAT     H278549   4.220   2.833   2.989
26103WAT      O78550   6.728   4.731   1.305
26103WAT     H178551   6.645   4.675   1.311
26103WAT     H278552   6.808   4.672   1.302
26104WAT      O78553   6.296   2.502   1.764
26104WAT     H178554   6.310   2.404   1.753
26104WAT     H278555   6.236   2.535   1.691
26105WAT      O78556   5.486   3.346   9.045
26105WAT     H178557   5.478   3.289   8.963
26105WAT     H278558   5.442   3.300   9.122
26106WAT      O78559   5.540   4.841   6.976
26106WAT     H178560   5.447   4.808   6.994
26106WAT     H278561   5.579   4.880   7.059
26107WAT      O78562   5.592   0.144   8.770
26107WAT     H178563   5.517   0.103   8.719
26107WAT     H278564   5.583   0.120   8.867
26108WAT      O78565   3.514   6.455   1.774
26108WAT     H178566   3.558   6.491   1.692
26108WAT     H278567   3.464   6.371   1.751
26109WAT      O78568   1.466   6.130   9.677
26109WAT     H178569   1.527   6.052   9.666
26109WAT     H278570   1.371   6.098   9.681
26110WAT      O78571   7.380   6.188   5.454
26110WAT     H178572   7.413   6.262   5.395
26110WAT     H278573   7.298   6.148   5.413
26111WAT      O78574   6.417   4.866   1.540
26111WAT     H178575   6.335   4.894   1.590
26111WAT     H278576   6.425   4.919   1.456
26112WAT      O78577   5.696   1.808   6.036
26112WAT     H178578   5.624   1.740   6.027
26112WAT     H278579   5.657   1.896   6.062
26113WAT      O78580   8.251   4.334   1.434
26113WAT     H178581   8.176   4.397   1.457
26113WAT     H278582   8.298   4.307   1.518
26114WAT      O78583   8.248   3.363   8.269
26114WAT     H178584   8.269   3.316   8.184
26114WAT     H278585   8.304   3.445   8.277
26115WAT      O78586   1.998   4.350   7.316
26115WAT     H178587   2.088   4.306   7.315
26115WAT     H278588   2.008   4.447   7.295
26116WAT      O78589   1.308   1.613   1.660
26116WAT     H178590   1.374   1.577   1.595
26116WAT     H278591   1.218   1.619   1.616
26117WAT      O78592   4.930   5.577   5.294
26117WAT     H178593   4.941   5.527   5.208
26117WAT     H278594   4.984   5.533   5.365
26118WAT      O78595   3.718   6.844   1.195
26118WAT     H178596   3.798   6.805   1.241
26118WAT     H278597   3.746   6.922   1.139
26119WAT      O78598   9.510   6.643   0.149
26119WAT     H178599   9.532   6.726   0.200
26119WAT     H278600   9.419   6.611   0.175
26120WAT      O78601   6.433   6.304   9.820
26120WAT     H178602   6.396   6.214   9.797
26120WAT     H278603   6.532   6.297   9.831
26121WAT      O78604   1.948   5.411   5.374
26121WAT     H178605   1.940   5.360   5.460
26121WAT     H278606   2.041   5.446   5.365
26122WAT      O78607   5.848   1.738   8.021
26122WAT     H178608   5.896   1.651   8.027
26122WAT     H278609   5.902   1.802   7.967
26123WAT      O78610   4.808   8.257   5.327
26123WAT     H178611   4.850   8.166   5.332
26123WAT     H278612   4.712   8.248   5.302
26124WAT      O78613   6.823   7.752   0.867
26124WAT     H178614   6.851   7.705   0.783
26124WAT     H278615   6.822   7.687   0.943
26125WAT      O78616   0.079   5.303   5.735
26125WAT     H178617   0.133   5.219   5.735
26125WAT     H278618   0.091   5.350   5.647
26126WAT      O78619   2.613   3.838   9.119
26126WAT     H178620   2.624   3.863   9.023
26126WAT     H278621   2.577   3.745   9.126
26127WAT      O78622   5.245   4.362   0.384
26127WAT     H178623   5.150   4.394   0.380
26127WAT     H278624   5.297   4.423   0.444
26128WAT      O78625   7.899   2.259   9.725
26128WAT     H178626   7.872   2.187   9.661
26128WAT     H278627   7.828   2.329   9.728
26129WAT      O78628   1.863   0.943   7.396
26129WAT     H178629   1.851   1.039   7.423
26129WAT     H278630   1.774   0.900   7.385
26130WAT      O78631   1.974   0.013   7.151
26130WAT     H178632   2.020  -0.010   7.065
26130WAT     H278633   1.924  -0.067   7.185
26131WAT      O78634   1.817   6.963   2.830
26131WAT     H178635   1.755   6.906   2.777
26131WAT     H278636   1.892   6.994   2.771
26132WAT      O78637   4.873   1.099   7.849
26132WAT     H178638   4.794   1.073   7.905
26132WAT     H278639   4.878   1.198   7.843
26133WAT      O78640   3.678   9.211   3.748
26133WAT     H178641   3.617   9.287   3.726
26133WAT     H278642   3.727   9.183   3.665
26134WAT      O78643   8.680   2.729   0.769
26134WAT     H178644   8.592   2.720   0.816
26134WAT     H278645   8.751   2.755   0.835
26135WAT      O78646   3.120   0.954   0.223
26135WAT     H178647   3.103   0.897   0.303
26135WAT     H278648   3.172   1.035   0.249
26136WAT      O78649   0.957   1.584   0.877
26136WAT     H178650   0.927   1.517   0.809
26136WAT     H278651   1.053   1.606   0.862
26137WAT      O78652   5.603   7.087   9.508
26137WAT     H178653   5.670   7.038   9.452
26137WAT     H278654   5.527   7.026   9.529
26138WAT      O78655   2.443   0.894   7.447
26138WAT     H178656   2.416   0.801   7.423
26138WAT     H278657   2.387   0.926   7.524
26139WAT      O78658   7.770   2.712   4.667
26139WAT     H178659   7.774   2.796   4.722
26139WAT     H278660   7.860   2.669   4.665
26140WAT      O78661   1.353   1.765   7.604
26140WAT     H178662   1.415   1.732   7.675
26140WAT     H278663   1.405   1.778   7.519
26141WAT      O78664   9.795   3.284   3.057
26141WAT     H178665   9.741   3.304   3.139
26141WAT     H278666   9.886   3.325   3.067
26142WAT      O78667   5.761   4.828   0.903
26142WAT     H178668   5.695   4.827   0.828
26142WAT     H278669   5.731   4.766   0.976
26143WAT      O78670   5.774   6.977   5.436
26143WAT     H178671   5.769   6.904   5.504
26143WAT     H278672   5.686   6.984   5.389
26144WAT      O78673   3.505   7.843   8.955
26144WAT     H178674   3.560   7.835   9.038
26144WAT     H278675   3.417   7.886   8.978
26145WAT      O78676   2.926   5.172   8.909
26145WAT     H178677   2.886   5.092   8.955
26145WAT     H278678   3.012   5.145   8.865
26146WAT      O78679   7.367   9.842   5.258
26146WAT     H178680   7.402   9.883   5.174
26146WAT     H278681   7.399   9.747   5.265
26147WAT      O78682   7.092   6.644   5.081
26147WAT     H178683   7.071   6.635   5.179
26147WAT     H278684   7.168   6.585   5.057
26148WAT      O78685   1.175   8.873   0.422
26148WAT     H178686   1.077   8.856   0.418
26148WAT     H278687   1.224   8.786   0.409
26149WAT      O78688   1.107   6.476   1.328
26149WAT     H178689   1.198   6.497   1.293
26149WAT     H278690   1.085   6.380   1.307
26150WAT      O78691   6.575   3.573   2.640
26150WAT     H178692   6.600   3.520   2.559
26150WAT     H278693   6.657   3.592   2.694
26151WAT      O78694   0.777   5.267   2.158
26151WAT     H178695   0.803   5.182   2.204
26151WAT     H278696   0.845   5.289   2.088
26152WAT      O78697   9.664   2.282   6.760
26152WAT     H178698   9.648   2.252   6.854
26152WAT     H278699   9.699   2.205   6.707
26153WAT      O78700   5.118   8.240   5.566
26153WAT     H178701   5.208   8.262   5.527
26153WAT     H278702   5.120   8.148   5.605
26154WAT      O78703   8.225   1.227   8.069
26154WAT     H178704   8.190   1.232   7.975
26154WAT     H278705   8.188   1.146   8.114
26155WAT      O78706   7.587   3.340   4.890
26155WAT     H178707   7.644   3.355   4.810
26155WAT     H278708   7.559   3.428   4.929
26156WAT      O78709   9.468   8.087   7.869
26156WAT     H178710   9.430   8.070   7.778
26156WAT     H278711   9.397   8.077   7.938
26157WAT      O78712   8.056   0.354   0.779
26157WAT     H178713   7.964   0.382   0.805
26157WAT     H278714   8.120   0.428   0.797
26158WAT      O78715   4.234   3.262   0.232
26158WAT     H178716   4.269   3.349   0.199
26158WAT     H278717   4.142   3.247   0.196
26159WAT      O78718   8.051   2.727   1.208
26159WAT     H178719   8.057   2.678   1.295
26159WAT     H278720   8.011   2.668   1.138
26160WAT      O78721   6.692   7.537   7.283
26160WAT     H178722   6.749   7.455   7.273
26160WAT     H278723   6.747   7.610   7.323
26161WAT      O78724   9.211   0.705   2.202
26161WAT     H178725   9.193   0.710   2.301
26161WAT     H278726   9.149   0.767   2.154
26162WAT      O78727   8.497   3.267   0.931
26162WAT     H178728   8.476   3.226   1.020
26162WAT     H278729   8.546   3.353   0.944
26163WAT      O78730   6.799   1.954   4.049
26163WAT     H178731   6.872   1.919   4.107
26163WAT     H278732   6.714   1.906   4.070
26164WAT      O78733   8.835   6.090   7.237
26164WAT     H178734   8.775   6.100   7.157
26164WAT     H278735   8.929   6.113   7.211
26165WAT      O78736   4.869   4.477   1.377
26165WAT     H178737   4.822   4.564   1.372
26165WAT     H278738   4.807   4.407   1.411
26166WAT      O78739   2.680   2.502   7.178
26166WAT     H178740   2.669   2.501   7.079
26166WAT     H278741   2.765   2.457   7.203
26167WAT      O78742   4.906   9.650   3.826
26167WAT     H178743   4.882   9.603   3.911
26167WAT     H278744   5.006   9.657   3.820
26168WAT      O78745   7.064   1.234   1.038
26168WAT     H178746   7.140   1.219   1.101
26168WAT     H278747   7.010   1.312   1.069
26169WAT      O78748   9.391   1.196   4.681
26169WAT     H178749   9.475   1.186   4.734
26169WAT     H278750   9.397   1.143   4.597
26170WAT      O78751   1.642   3.144   5.161
26170WAT     H178752   1.556   3.119   5.205
26170WAT     H278753   1.651   3.244   5.159
26171WAT      O78754   8.755   1.510   1.860
26171WAT     H178755   8.684   1.477   1.798
26171WAT     H278756   8.775   1.439   1.928
26172WAT      O78757   1.763   0.708   6.673
26172WAT     H178758   1.741   0.611   6.658
26172WAT     H278759   1.858   0.725   6.647
26173WAT      O78760   8.757   7.327   5.513
26173WAT     H178761   8.841   7.296   5.468
26173WAT     H278762   8.745   7.277   5.598
26174WAT      O78763   7.126   4.787   1.382
26174WAT     H178764   7.140   4.699   1.427
26174WAT     H278765   7.186   4.794   1.302
26175WAT      O78766   4.461   6.023   5.027
26175WAT     H178767   4.419   6.103   4.985
26175WAT     H278768   4.532   5.987   4.967
26176WAT      O78769   5.967   5.439   1.647
26176WAT     H178770   6.067   5.446   1.646
26176WAT     H278771   5.939   5.371   1.714
26177WAT      O78772   8.934   5.903   1.171
26177WAT     H178773   8.950   5.830   1.104
26177WAT     H278774   8.859   5.877   1.231
26178WAT      O78775   8.659   1.468   4.944
26178WAT     H178776   8.669   1.550   5.001
26178WAT     H278777   8.668   1.387   5.001
26179WAT      O78778   7.720   6.251   9.385
26179WAT     H178779   7.670   6.313   9.445
26179WAT     H278780   7.794   6.300   9.339
26180WAT      O78781   3.827   6.417   6.443
26180WAT     H178782   3.768   6.338   6.426
26180WAT     H278783   3.807   6.454   6.534
26181WAT      O78784   3.668   4.478   8.475
26181WAT     H178785   3.653   4.564   8.427
26181WAT     H278786   3.753   4.483   8.528
26182WAT      O78787   5.630   7.421   4.505
26182WAT     H178788   5.633   7.520   4.502
26182WAT     H278789   5.537   7.389   4.489
26183WAT      O78790   3.307   3.010   2.131
26183WAT     H178791   3.241   2.995   2.057
26183WAT     H278792   3.366   2.930   2.139
26184WAT      O78793   3.916   1.007   4.394
26184WAT     H178794   3.819   1.032   4.401
26184WAT     H278795   3.972   1.079   4.435
26185WAT      O78796   6.456   8.397   0.652
26185WAT     H178797   6.407   8.312   0.670
26185WAT     H278798   6.535   8.378   0.593
26186WAT      O78799   7.460   1.652   2.496
26186WAT     H178800   7.463   1.621   2.590
26186WAT     H278801   7.498   1.582   2.436
26187WAT      O78802   0.987   4.595   8.913
26187WAT     H178803   0.967   4.504   8.879
26187WAT     H278804   0.924   4.661   8.873
26188WAT      O78805   9.585   2.700   2.059
26188WAT     H178806   9.613   2.775   1.999
26188WAT     H278807   9.659   2.633   2.064
26189WAT      O78808   5.496   0.243   8.414
26189WAT     H178809   5.426   0.172   8.404
26189WAT     H278810   5.531   0.269   8.324
26190WAT      O78811   5.925   0.563   1.350
26190WAT     H178812   5.972   0.642   1.310
26190WAT     H278813   5.959   0.479   1.309
26191WAT      O78814   9.215   6.905   8.454
26191WAT     H178815   9.214   6.936   8.359
26191WAT     H278816   9.299   6.853   8.472
26192WAT      O78817   3.996   1.942   8.213
26192WAT     H178818   3.950   1.959   8.301
26192WAT     H278819   3.928   1.937   8.140
26193WAT      O78820   8.190   3.071   7.997
26193WAT     H178821   8.225   3.017   8.073
26193WAT     H278822   8.260   3.136   7.967
26194WAT      O78823   4.345   1.265   1.763
26194WAT     H178824   4.279   1.314   1.705
26194WAT     H278825   4.302   1.242   1.850
26195WAT      O78826   8.914   0.150   5.345
26195WAT     H178827   8.985   0.151   5.275
26195WAT     H278828   8.848   0.078   5.323
26196WAT      O78829   0.854   5.966   2.930
26196WAT     H178830   0.943   5.922   2.916
26196WAT     H278831   0.786   5.924   2.870
26197WAT      O78832   3.897   9.433   1.636
26197WAT     H178833   3.952   9.352   1.615
26197WAT     H278834   3.804   9.419   1.601
26198WAT      O78835   5.719   1.391   7.887
26198WAT     H178836   5.791   1.400   7.956
26198WAT     H278837   5.634   1.361   7.931
26199WAT      O78838   6.889   2.564   4.735
26199WAT     H178839   6.850   2.649   4.769
26199WAT     H278840   6.821   2.516   4.679
26200WAT      O78841   8.511   1.812   1.125
26200WAT     H178842   8.500   1.714   1.141
26200WAT     H278843   8.525   1.859   1.212
26201WAT      O78844   3.045   6.966   5.194
26201WAT     H178845   2.982   6.976   5.271
26201WAT     H278846   2.997   6.984   5.109
26202WAT      O78847   9.378   3.259   1.161
26202WAT     H178848   9.428   3.338   1.195
26202WAT     H278849   9.343   3.206   1.238
26203WAT      O78850   4.931   7.445   1.926
26203WAT     H178851   4.900   7.538   1.905
26203WAT     H278852   4.933   7.432   2.025
26204WAT      O78853   8.385   7.285   7.404
26204WAT     H178854   8.335   7.242   7.328
26204WAT     H278855   8.422   7.214   7.464
26205WAT      O78856   7.986   8.604   0.562
26205WAT     H178857   7.908   8.648   0.518
26205WAT     H278858   8.030   8.541   0.498
26206WAT      O78859   5.287   5.226   2.878
26206WAT     H178860   5.273   5.136   2.920
26206WAT     H278861   5.364   5.272   2.922
26207WAT      O78862   3.427   7.193   8.820
26207WAT     H178863   3.345   7.139   8.801
26207WAT     H278864   3.446   7.252   8.742
26208WAT      O78865   7.707   5.419   6.815
26208WAT     H178866   7.795   5.435   6.770
26208WAT     H278867   7.681   5.323   6.804
26209WAT      O78868   0.012   0.513   3.960
26209WAT     H178869   0.074   0.463   3.899
26209WAT     H278870  -0.040   0.449   4.015
26210WAT      O78871   9.023   9.589   1.926
26210WAT     H178872   9.106   9.612   1.875
26210WAT     H278873   8.951   9.655   1.904
26211WAT      O78874   7.987   7.467   7.952
26211WAT     H178875   7.932   7.385   7.938
26211WAT     H278876   8.082   7.449   7.926
26212WAT      O78877   6.942   1.370   4.226
26212WAT     H178878   7.002   1.440   4.187
26212WAT     H278879   6.895   1.409   4.306
26213WAT      O78880   8.668   0.410   5.565
26213WAT     H178881   8.665   0.505   5.597
26213WAT     H278882   8.712   0.407   5.475
26214WAT      O78883   1.853   4.053   4.153
26214WAT     H178884   1.885   4.092   4.240
26214WAT     H278885   1.899   3.966   4.137
26215WAT      O78886   4.320   0.661   3.926
26215WAT     H178887   4.257   0.676   4.002
26215WAT     H278888   4.393   0.599   3.955
26216WAT      O78889   5.894   0.121   6.951
26216WAT     H178890   5.865   0.180   6.876
26216WAT     H278891   5.930   0.177   7.026
26217WAT      O78892   9.743   5.335   1.183
26217WAT     H178893   9.720   5.386   1.266
26217WAT     H278894   9.787   5.397   1.117
26218WAT      O78895   4.976   0.314   5.845
26218WAT     H178896   4.961   0.255   5.765
26218WAT     H278897   5.029   0.394   5.817
26219WAT      O78898   6.660   3.144   4.123
26219WAT     H178899   6.715   3.223   4.150
26219WAT     H278900   6.633   3.094   4.205
26220WAT      O78901   3.078   8.348   1.610
26220WAT     H178902   2.980   8.339   1.624
26220WAT     H278903   3.122   8.259   1.623
26221WAT      O78904   8.520   6.827   4.087
26221WAT     H178905   8.593   6.826   4.020
26221WAT     H278906   8.443   6.771   4.054
26222WAT      O78907   7.619   6.940   4.026
26222WAT     H178908   7.526   6.903   4.024
26222WAT     H278909   7.642   6.978   3.937
26223WAT      O78910   5.904   3.434   7.156
26223WAT     H178911   5.848   3.492   7.215
26223WAT     H278912   5.847   3.398   7.082
26224WAT      O78913   1.368   1.480   8.556
26224WAT     H178914   1.351   1.506   8.651
26224WAT     H278915   1.298   1.520   8.498
26225WAT      O78916   0.310   0.050   6.534
26225WAT     H178917   0.238   0.005   6.587
26225WAT     H278918   0.295   0.148   6.534
26226WAT      O78919   5.761   3.274   3.430
26226WAT     H178920   5.780   3.215   3.352
26226WAT     H278921   5.804   3.364   3.415
26227WAT      O78922   0.475   2.116   6.510
26227WAT     H178923   0.404   2.049   6.531
26227WAT     H278924   0.451   2.204   6.552
26228WAT      O78925   3.250   7.931   0.701
26228WAT     H178926   3.215   7.882   0.780
26228WAT     H278927   3.316   7.874   0.651
26229WAT      O78928   6.422   0.257   1.020
26229WAT     H178929   6.475   0.174   1.007
26229WAT     H278930   6.379   0.283   0.934
26230WAT      O78931   8.516   9.041   6.781
26230WAT     H178932   8.560   8.968   6.834
26230WAT     H278933   8.584   9.108   6.754
26231WAT      O78934   1.624   2.030   0.519
26231WAT     H178935   1.701   1.989   0.567
26231WAT     H278936   1.648   2.046   0.423
26232WAT      O78937   9.730   9.599   1.168
26232WAT     H178938   9.790   9.667   1.124
26232WAT     H278939   9.737   9.608   1.267
26233WAT      O78940   9.488   6.298   5.320
26233WAT     H178941   9.471   6.376   5.260
26233WAT     H278942   9.444   6.313   5.409
26234WAT      O78943   2.087   2.891   9.359
26234WAT     H178944   2.185   2.903   9.347
26234WAT     H278945   2.046   2.978   9.389
26235WAT      O78946   1.160   1.085   2.246
26235WAT     H178947   1.065   1.096   2.217
26235WAT     H278948   1.203   1.013   2.192
26236WAT      O78949   9.859   5.079   8.893
26236WAT     H178950   9.834   4.986   8.864
26236WAT     H278951   9.834   5.144   8.822
26237WAT      O78952   7.485   0.761   9.618
26237WAT     H178953   7.478   0.806   9.708
26237WAT     H278954   7.528   0.671   9.629
26238WAT      O78955   1.306   9.813   5.468
26238WAT     H178956   1.210   9.813   5.493
26238WAT     H278957   1.362   9.791   5.548
26239WAT      O78958   4.881   4.826   6.209
26239WAT     H178959   4.799   4.862   6.254
26239WAT     H278960   4.859   4.741   6.162
26240WAT      O78961   9.751   0.634   4.841
26240WAT     H178962   9.777   0.537   4.844
26240WAT     H278963   9.833   0.689   4.824
26241WAT      O78964   4.375   9.186   2.742
26241WAT     H178965   4.454   9.243   2.761
26241WAT     H278966   4.358   9.182   2.644
26242WAT      O78967   1.276   9.834   1.206
26242WAT     H178968   1.254   9.737   1.191
26242WAT     H278969   1.217   9.891   1.149
26243WAT      O78970   2.365   4.378   7.037
26243WAT     H178971   2.361   4.331   6.948
26243WAT     H278972   2.355   4.476   7.023
26244WAT      O78973   3.510   1.878   7.804
26244WAT     H178974   3.476   1.830   7.885
26244WAT     H278975   3.606   1.902   7.818
26245WAT      O78976   9.401   1.566   1.699
26245WAT     H178977   9.436   1.477   1.668
26245WAT     H278978   9.450   1.639   1.652
26246WAT      O78979   3.678   3.690   2.073
26246WAT     H178980   3.595   3.654   2.117
26246WAT     H278981   3.747   3.618   2.071
26247WAT      O78982   0.127   3.909   3.666
26247WAT     H178983   0.154   3.869   3.754
26247WAT     H278984   0.035   3.877   3.642
26248WAT      O78985   1.882   8.996   2.090
26248WAT     H178986   1.877   9.040   2.180
26248WAT     H278987   1.827   9.047   2.025
26249WAT      O78988   6.541   8.491   4.010
26249WAT     H178989   6.512   8.576   4.054
26249WAT     H278990   6.520   8.414   4.070
26250WAT      O78991   1.426   4.657   3.394
26250WAT     H178992   1.477   4.688   3.474
26250WAT     H278993   1.368   4.579   3.420
26251WAT      O78994   4.606   5.256   1.609
26251WAT     H178995   4.627   5.330   1.545
26251WAT     H278996   4.557   5.294   1.688
26252WAT      O78997   1.343   4.563   8.185
26252WAT     H178998   1.318   4.549   8.089
26252WAT     H278999   1.317   4.655   8.213
26253WAT      O79000   0.038   7.052   3.682
26253WAT     H179001   0.041   6.954   3.664
26253WAT     H279002  -0.008   7.069   3.769
26254WAT      O79003   4.983   8.632   2.600
26254WAT     H179004   5.071   8.661   2.562
26254WAT     H279005   4.964   8.538   2.574
26255WAT      O79006   9.688   5.231   2.397
26255WAT     H179007   9.704   5.133   2.387
26255WAT     H279008   9.590   5.250   2.398
26256WAT      O79009   7.361   1.644   2.795
26256WAT     H179010   7.396   1.729   2.835
26256WAT     H279011   7.361   1.572   2.865
26257WAT      O79012   6.891   3.913   0.043
26257WAT     H179013   6.972   3.856   0.028
26257WAT     H279014   6.823   3.894  -0.028
26258WAT      O79015   1.712   9.618   2.288
26258WAT     H179016   1.728   9.559   2.209
26258WAT     H279017   1.641   9.685   2.266
26259WAT      O79018   1.884   4.058   5.645
26259WAT     H179019   1.843   3.973   5.612
26259WAT     H279020   1.885   4.058   5.745
26260WAT      O79021   2.286   4.988   6.949
26260WAT     H179022   2.282   4.939   6.862
26260WAT     H279023   2.367   5.046   6.951
26261WAT      O79024   1.513   8.892   4.031
26261WAT     H179025   1.596   8.841   4.056
26261WAT     H279026   1.434   8.851   4.075
26262WAT      O79027   6.245   4.344   8.182
26262WAT     H179028   6.198   4.327   8.269
26262WAT     H279029   6.177   4.366   8.112
26263WAT      O79030   6.814   3.031   8.939
26263WAT     H179031   6.876   3.007   9.014
26263WAT     H279032   6.864   3.032   8.853
26264WAT      O79033   6.596   4.192   5.143
26264WAT     H179034   6.636   4.269   5.194
26264WAT     H279035   6.498   4.189   5.160
26265WAT      O79036   8.499   8.682   6.548
26265WAT     H179037   8.438   8.756   6.578
26265WAT     H279038   8.503   8.612   6.619
26266WAT      O79039   2.723   2.731   8.024
26266WAT     H179040   2.726   2.732   8.124
26266WAT     H279041   2.677   2.648   7.993
26267WAT      O79042   8.442   9.303   9.771
26267WAT     H179043   8.395   9.345   9.849
26267WAT     H279044   8.464   9.373   9.703
26268WAT      O79045   8.719   0.451   6.593
26268WAT     H179046   8.700   0.353   6.595
26268WAT     H279047   8.773   0.476   6.674
26269WAT      O79048   4.146   5.934   7.082
26269WAT     H179049   4.154   6.013   7.144
26269WAT     H279050   4.162   5.850   7.133
26270WAT      O79051   4.236   1.689   2.998
26270WAT     H179052   4.178   1.764   2.968
26270WAT     H279053   4.283   1.714   3.083
26271WAT      O79054   8.662   6.744   3.649
26271WAT     H179055   8.735   6.686   3.612
26271WAT     H279056   8.577   6.725   3.600
26272WAT      O79057   0.006   2.134   9.277
26272WAT     H179058  -0.051   2.052   9.274
26272WAT     H279059   0.053   2.145   9.190
26273WAT      O79060   3.741   3.568   7.088
26273WAT     H179061   3.730   3.602   6.995
26273WAT     H279062   3.671   3.609   7.147
26274WAT      O79063   0.124   3.602   1.549
26274WAT     H179064   0.027   3.621   1.566
26274WAT     H279065   0.179   3.646   1.620
26275WAT      O79066   6.437   5.739   5.337
26275WAT     H179067   6.477   5.675   5.402
26275WAT     H279068   6.500   5.817   5.325
26276WAT      O79069   3.880   1.727   4.553
26276WAT     H179070   3.812   1.799   4.536
26276WAT     H279071   3.900   1.679   4.468
26277WAT      O79072   9.874   5.485   8.861
26277WAT     H179073   9.898   5.462   8.955
26277WAT     H279074   9.781   5.520   8.857
26278WAT      O79075   3.210   2.839   0.290
26278WAT     H179076   3.181   2.805   0.200
26278WAT     H279077   3.173   2.780   0.361
26279WAT      O79078   3.575   9.111   0.158
26279WAT     H179079   3.608   9.042   0.223
26279WAT     H279080   3.631   9.193   0.165
26280WAT      O79081   7.295   2.013   0.302
26280WAT     H179082   7.295   2.113   0.296
26280WAT     H279083   7.201   1.979   0.292
26281WAT      O79084   8.858   9.487   0.915
26281WAT     H179085   8.873   9.432   0.997
26281WAT     H279086   8.796   9.562   0.936
26282WAT      O79087   5.220   7.325   5.048
26282WAT     H179088   5.145   7.363   4.994
26282WAT     H279089   5.297   7.304   4.988
26283WAT      O79090   2.644   7.067   6.027
26283WAT     H179091   2.559   7.074   5.975
26283WAT     H279092   2.708   7.138   5.998
26284WAT      O79093   7.567   4.031   6.934
26284WAT     H179094   7.594   4.122   6.902
26284WAT     H279095   7.581   4.025   7.033
26285WAT      O79096   3.381   4.718   8.251
26285WAT     H179097   3.479   4.708   8.271
26285WAT     H279098   3.328   4.676   8.324
26286WAT      O79099   6.642   5.049   5.658
26286WAT     H179100   6.685   5.074   5.745
26286WAT     H279101   6.713   5.022   5.593
26287WAT      O79102   6.347   4.560   9.382
26287WAT     H179103   6.391   4.536   9.296
26287WAT     H279104   6.396   4.518   9.458
26288WAT      O79105   0.808   3.264   2.399
26288WAT     H179106   0.713   3.231   2.398
26288WAT     H279107   0.808   3.364   2.389
26289WAT      O79108   2.393   7.104   5.945
26289WAT     H179109   2.308   7.111   5.997
26289WAT     H279110   2.402   7.182   5.884
26290WAT      O79111   6.690   6.125   6.694
26290WAT     H179112   6.736   6.037   6.711
26290WAT     H279113   6.595   6.109   6.670
26291WAT      O79114   8.338   3.800   5.804
26291WAT     H179115   8.424   3.850   5.799
26291WAT     H279116   8.272   3.842   5.741
26292WAT      O79117   2.599   4.880   1.082
26292WAT     H179118   2.553   4.958   1.126
26292WAT     H279119   2.594   4.890   0.983
26293WAT      O79120   6.554   8.885   5.994
26293WAT     H179121   6.464   8.865   6.033
26293WAT     H279122   6.608   8.801   5.992
26294WAT      O79123   5.180   8.968   9.353
26294WAT     H179124   5.145   9.059   9.377
26294WAT     H279125   5.275   8.960   9.380
26295WAT      O79126   8.580   3.331   2.333
26295WAT     H179127   8.520   3.306   2.408
26295WAT     H279128   8.675   3.332   2.365
26296WAT      O79129   9.420   1.624   3.931
26296WAT     H179130   9.487   1.657   3.998
26296WAT     H279131   9.335   1.675   3.940
26297WAT      O79132   1.428   8.888   1.697
26297WAT     H179133   1.499   8.930   1.641
26297WAT     H279134   1.421   8.791   1.676
26298WAT      O79135   4.048   1.997   0.869
26298WAT     H179136   4.076   1.975   0.776
26298WAT     H279137   4.115   1.961   0.933
26299WAT      O79138   8.765   5.426   3.851
26299WAT     H179139   8.689   5.361   3.859
26299WAT     H279140   8.734   5.516   3.880
26300WAT      O79141   8.285   2.176   0.773
26300WAT     H179142   8.361   2.178   0.708
26300WAT     H279143   8.321   2.175   0.866
26301WAT      O79144   6.742   5.351   5.745
26301WAT     H179145   6.742   5.310   5.836
26301WAT     H279146   6.802   5.298   5.685
26302WAT      O79147   8.853   2.009   4.829
26302WAT     H179148   8.881   2.039   4.737
26302WAT     H279149   8.815   1.917   4.824
26303WAT      O79150   5.551   7.595   3.575
26303WAT     H179151   5.551   7.624   3.479
26303WAT     H279152   5.479   7.527   3.590
26304WAT      O79153   5.646   2.655   0.805
26304WAT     H179154   5.714   2.712   0.759
26304WAT     H279155   5.644   2.565   0.761
26305WAT      O79156   6.699   7.361   2.039
26305WAT     H179157   6.655   7.333   1.953
26305WAT     H279158   6.747   7.448   2.025
26306WAT      O79159   0.936   8.038   6.550
26306WAT     H179160   0.844   8.060   6.581
26306WAT     H279161   1.003   8.093   6.600
26307WAT      O79162   6.100   9.253   9.869
26307WAT     H179163   6.158   9.207   9.937
26307WAT     H279164   6.129   9.349   9.860
26308WAT      O79165   6.347   7.257   4.205
26308WAT     H179166   6.264   7.216   4.242
26308WAT     H279167   6.336   7.357   4.203
26309WAT      O79168   3.902   5.428   2.370
26309WAT     H179169   3.812   5.437   2.413
26309WAT     H279170   3.931   5.333   2.372
26310WAT      O79171   4.998   7.161   9.648
26310WAT     H179172   4.947   7.192   9.729
26310WAT     H279173   4.935   7.152   9.571
26311WAT      O79174   4.696   8.614   9.100
26311WAT     H179175   4.782   8.567   9.081
26311WAT     H279176   4.629   8.549   9.135
26312WAT      O79177   6.600   6.527   2.902
26312WAT     H179178   6.551   6.600   2.949
26312WAT     H279179   6.545   6.494   2.825
26313WAT      O79180   0.995   2.254   8.756
26313WAT     H179181   1.035   2.265   8.847
26313WAT     H279182   0.919   2.189   8.760
26314WAT      O79183   3.601   7.255   1.916
26314WAT     H179184   3.644   7.299   1.838
26314WAT     H279185   3.533   7.189   1.884
26315WAT      O79186   5.726   3.958   2.384
26315WAT     H179187   5.695   3.870   2.350
26315WAT     H279188   5.821   3.973   2.356
26316WAT      O79189   4.131   7.282   3.182
26316WAT     H179190   4.077   7.238   3.110
26316WAT     H279191   4.113   7.380   3.183
26317WAT      O79192   6.457   7.576   0.890
26317WAT     H179193   6.509   7.543   0.969
26317WAT     H279194   6.473   7.516   0.812
26318WAT      O79195   0.265   7.717   9.543
26318WAT     H179196   0.353   7.756   9.568
26318WAT     H279197   0.270   7.681   9.450
26319WAT      O79198   0.055   4.301   9.409
26319WAT     H179199   0.153   4.293   9.396
26319WAT     H279200   0.034   4.385   9.460
26320WAT      O79201   2.603   7.964   8.742
26320WAT     H179202   2.632   7.925   8.655
26320WAT     H279203   2.681   7.968   8.804
26321WAT      O79204   0.835   8.553   0.483
26321WAT     H179205   0.740   8.540   0.456
26321WAT     H279206   0.847   8.528   0.579
26322WAT      O79207   6.459   0.264   5.662
26322WAT     H179208   6.508   0.340   5.706
26322WAT     H279209   6.388   0.229   5.723
26323WAT      O79210   6.964   0.195   9.334
26323WAT     H179211   6.939   0.291   9.345
26323WAT     H279212   6.908   0.154   9.262
26324WAT      O79213   1.569   1.945   6.046
26324WAT     H179214   1.600   1.911   6.134
26324WAT     H279215   1.647   1.974   5.991
26325WAT      O79216   6.394   9.126   1.467
26325WAT     H179217   6.456   9.116   1.545
26325WAT     H279218   6.322   9.192   1.488
26326WAT      O79219   8.464   2.189   0.581
26326WAT     H179220   8.495   2.275   0.540
26326WAT     H279221   8.434   2.127   0.509
26327WAT      O79222   2.492   5.443   8.484
26327WAT     H179223   2.481   5.439   8.583
26327WAT     H279224   2.438   5.370   8.441
26328WAT      O79225   5.388   5.866   2.193
26328WAT     H179226   5.484   5.843   2.208
26328WAT     H279227   5.381   5.942   2.129
26329WAT      O79228   8.699   5.681   0.144
26329WAT     H179229   8.618   5.631   0.111
26329WAT     H279230   8.673   5.775   0.165
26330WAT      O79231   9.005   6.365   2.124
26330WAT     H179232   9.059   6.398   2.202
26330WAT     H279233   9.065   6.325   2.055
26331WAT      O79234   3.053   2.503   6.078
26331WAT     H179235   3.146   2.473   6.059
26331WAT     H279236   2.990   2.427   6.063
26332WAT      O79237   7.088   0.558   6.986
26332WAT     H179238   7.124   0.624   6.920
26332WAT     H279239   7.130   0.468   6.969
26333WAT      O79240   4.411   5.778   2.305
26333WAT     H179241   4.400   5.867   2.349
26333WAT     H279242   4.455   5.715   2.369
26334WAT      O79243   6.061   7.313   0.107
26334WAT     H179244   5.972   7.352   0.132
26334WAT     H279245   6.055   7.269   0.018
26335WAT      O79246   9.214   1.557   2.188
26335WAT     H179247   9.175   1.644   2.158
26335WAT     H279248   9.297   1.538   2.135
26336WAT      O79249   6.260   0.145   7.787
26336WAT     H179250   6.260   0.175   7.692
26336WAT     H279251   6.255   0.045   7.791
26337WAT      O79252   0.331   6.784   9.390
26337WAT     H179253   0.424   6.819   9.395
26337WAT     H279254   0.333   6.684   9.393
26338WAT      O79255   5.879   9.008   0.554
26338WAT     H179256   5.925   9.083   0.601
26338WAT     H279257   5.946   8.938   0.529
26339WAT      O79258   6.835   2.287   7.441
26339WAT     H179259   6.800   2.353   7.508
26339WAT     H279260   6.832   2.195   7.480
26340WAT      O79261   1.802   6.802   0.370
26340WAT     H179262   1.830   6.898   0.373
26340WAT     H279263   1.757   6.777   0.455
26341WAT      O79264   9.045   0.456   2.672
26341WAT     H179265   9.130   0.503   2.699
26341WAT     H279266   9.060   0.408   2.586
26342WAT      O79267   3.549   1.342   5.671
26342WAT     H179268   3.542   1.372   5.766
26342WAT     H279269   3.458   1.345   5.628
26343WAT      O79270   7.769   2.882   2.726
26343WAT     H179271   7.851   2.937   2.738
26343WAT     H279272   7.705   2.930   2.665
26344WAT      O79273   5.783   5.249   4.494
26344WAT     H179274   5.848   5.175   4.511
26344WAT     H279275   5.691   5.210   4.486
26345WAT      O79276   2.795   4.704   2.359
26345WAT     H179277   2.763   4.796   2.383
26345WAT     H279278   2.716   4.647   2.335
26346WAT      O79279   8.476   7.338   5.433
26346WAT     H179280   8.483   7.378   5.341
26346WAT     H279281   8.568   7.321   5.469
26347WAT      O79282   5.201   8.061   1.628
26347WAT     H179283   5.115   8.058   1.576
26347WAT     H279284   5.194   8.129   1.701
26348WAT      O79285   6.429   0.604   2.122
26348WAT     H179286   6.436   0.619   2.221
26348WAT     H279287   6.519   0.617   2.080
26349WAT      O79288   1.435   4.770   7.284
26349WAT     H179289   1.348   4.722   7.278
26349WAT     H279290   1.500   4.716   7.337
26350WAT      O79291   4.815   9.249   2.614
26350WAT     H179292   4.858   9.165   2.581
26350WAT     H279293   4.734   9.269   2.560
26351WAT      O79294   1.884   9.296   1.679
26351WAT     H179295   1.969   9.342   1.703
26351WAT     H279296   1.831   9.356   1.618
26352WAT      O79297   1.793   9.088   1.846
26352WAT     H179298   1.783   9.003   1.794
26352WAT     H279299   1.835   9.158   1.788
26353WAT      O79300   1.319   8.335   9.162
26353WAT     H179301   1.410   8.320   9.124
26353WAT     H279302   1.299   8.433   9.164
26354WAT      O79303   0.874   0.166   7.014
26354WAT     H179304   0.783   0.139   7.045
26354WAT     H279305   0.934   0.178   7.092
26355WAT      O79306   4.008   2.214   7.090
26355WAT     H179307   4.092   2.248   7.048
26355WAT     H279308   4.012   2.230   7.189
26356WAT      O79309   1.433   7.189   0.855
26356WAT     H179310   1.409   7.281   0.826
26356WAT     H279311   1.439   7.129   0.775
26357WAT      O79312   0.446   3.484   9.356
26357WAT     H179313   0.526   3.441   9.398
26357WAT     H279314   0.411   3.555   9.416
26358WAT      O79315   0.415   9.068   7.327
26358WAT     H179316   0.414   9.089   7.425
26358WAT     H279317   0.509   9.054   7.296
26359WAT      O79318   5.031   5.857   9.293
26359WAT     H179319   5.061   5.941   9.339
26359WAT     H279320   4.994   5.794   9.361
26360WAT      O79321   3.874   7.077   3.846
26360WAT     H179322   3.901   7.103   3.753
26360WAT     H279323   3.915   6.988   3.868
26361WAT      O79324   1.239   6.266   6.629
26361WAT     H179325   1.332   6.244   6.599
26361WAT     H279326   1.181   6.279   6.548
26362WAT      O79327   7.072   8.877   2.759
26362WAT     H179328   7.056   8.955   2.698
26362WAT     H279329   7.031   8.895   2.848
26363WAT      O79330   6.548   2.822   3.797
26363WAT     H179331   6.555   2.732   3.753
26363WAT     H279332   6.523   2.810   3.893
26364WAT      O79333   6.284   9.335   5.773
26364WAT     H179334   6.364   9.376   5.817
26364WAT     H279335   6.306   9.314   5.678
26365WAT      O79336   4.274   0.633   8.469
26365WAT     H179337   4.326   0.561   8.515
26365WAT     H279338   4.254   0.706   8.534
26366WAT      O79339   6.579   5.804   2.381
26366WAT     H179340   6.536   5.744   2.448
26366WAT     H279341   6.611   5.751   2.303
26367WAT      O79342   7.392   7.848   0.864
26367WAT     H179343   7.485   7.845   0.899
26367WAT     H279344   7.330   7.878   0.936
26368WAT      O79345   9.657   8.063   6.648
26368WAT     H179346   9.559   8.050   6.660
26368WAT     H279347   9.683   8.154   6.679
26369WAT      O79348   1.598   0.775   2.053
26369WAT     H179349   1.672   0.719   2.090
26369WAT     H279350   1.517   0.719   2.041
26370WAT      O79351   0.997   7.439   5.598
26370WAT     H179352   1.056   7.511   5.561
26370WAT     H279353   1.020   7.425   5.694
26371WAT      O79354   9.634   5.056   0.729
26371WAT     H179355   9.635   5.043   0.630
26371WAT     H279356   9.724   5.086   0.759
26372WAT      O79357   2.091   7.284   5.823
26372WAT     H179358   2.116   7.317   5.914
26372WAT     H279359   2.022   7.344   5.783
26373WAT      O79360   1.327   3.875   9.560
26373WAT     H179361   1.424   3.898   9.568
26373WAT     H279362   1.314   3.778   9.578
26374WAT      O79363   3.118   0.985   9.131
26374WAT     H179364   3.167   1.034   9.204
26374WAT     H279365   3.143   1.025   9.043
26375WAT      O79366   6.131   9.094   2.087
26375WAT     H179367   6.130   9.111   2.186
26375WAT     H279368   6.108   8.998   2.070
26376WAT      O79369   5.828   2.789   6.582
26376WAT     H179370   5.872   2.790   6.492
26376WAT     H279371   5.742   2.738   6.576
26377WAT      O79372   2.874   4.324   6.366
26377WAT     H179373   2.896   4.251   6.302
26377WAT     H279374   2.954   4.345   6.422
26378WAT      O79375   7.881   6.043   3.992
26378WAT     H179376   7.868   6.116   3.925
26378WAT     H279377   7.951   5.979   3.959
26379WAT      O79378   7.543   4.742   3.526
26379WAT     H179379   7.582   4.663   3.478
26379WAT     H279380   7.449   4.721   3.553
26380WAT      O79381   7.144   8.073   4.823
26380WAT     H179382   7.045   8.070   4.817
26380WAT     H279383   7.171   8.119   4.908
26381WAT      O79384   6.958   2.581   7.879
26381WAT     H179385   6.866   2.541   7.874
26381WAT     H279386   6.987   2.586   7.975
26382WAT      O79387   7.050   2.164   2.599
26382WAT     H179388   7.148   2.184   2.590
26382WAT     H279389   7.029   2.079   2.551
26383WAT      O79390   8.420   0.903   6.704
26383WAT     H179391   8.392   0.831   6.767
26383WAT     H279392   8.355   0.908   6.628
26384WAT      O79393   1.049   2.461   1.968
26384WAT     H179394   1.031   2.476   2.065
26384WAT     H279395   1.023   2.367   1.944
26385WAT      O79396   2.185   3.817   5.095
26385WAT     H179397   2.242   3.800   5.175
26385WAT     H279398   2.155   3.730   5.056
26386WAT      O79399   6.769   3.033   8.012
26386WAT     H179400   6.797   2.976   7.935
26386WAT     H279401   6.793   3.128   7.992
26387WAT      O79402   2.057   8.972   5.271
26387WAT     H179403   2.081   8.943   5.363
26387WAT     H279404   2.131   9.027   5.232
26388WAT      O79405   4.352   1.089   6.374
26388WAT     H179406   4.376   1.177   6.415
26388WAT     H279407   4.258   1.091   6.341
26389WAT      O79408   5.521   3.737   2.106
26389WAT     H179409   5.582   3.685   2.166
26389WAT     H279410   5.439   3.763   2.158
26390WAT      O79411   5.128   6.860   4.018
26390WAT     H179412   5.062   6.809   3.964
26390WAT     H279413   5.140   6.816   4.107
26391WAT      O79414   3.485   1.368   7.826
26391WAT     H179415   3.528   1.315   7.753
26391WAT     H279416   3.556   1.401   7.889
26392WAT      O79417   9.241   2.139   7.631
26392WAT     H179418   9.256   2.084   7.713
26392WAT     H279419   9.196   2.225   7.656
26393WAT      O79420   2.415   4.800   2.236
26393WAT     H179421   2.441   4.777   2.330
26393WAT     H279422   2.341   4.867   2.238
26394WAT      O79423   7.735   3.368   9.577
26394WAT     H179424   7.809   3.433   9.596
26394WAT     H279425   7.651   3.401   9.619
26395WAT      O79426   7.089   6.763   6.852
26395WAT     H179427   7.141   6.696   6.800
26395WAT     H279428   7.004   6.720   6.884
26396WAT      O79429   4.231   2.095   9.250
26396WAT     H179430   4.239   2.020   9.184
26396WAT     H279431   4.173   2.167   9.212
26397WAT      O79432   7.643   1.777   5.276
26397WAT     H179433   7.741   1.777   5.294
26397WAT     H279434   7.598   1.840   5.338
26398WAT      O79435   9.473   0.575   0.944
26398WAT     H179436   9.514   0.638   1.009
26398WAT     H279437   9.436   0.495   0.992
26399WAT      O79438   5.286   0.371   6.680
26399WAT     H179439   5.367   0.421   6.712
26399WAT     H279440   5.269   0.393   6.584
26400WAT      O79441   9.031   4.187   0.019
26400WAT     H179442   9.072   4.098   0.040
26400WAT     H279443   9.044   4.207  -0.078
26401WAT      O79444   1.545   5.840   7.319
26401WAT     H179445   1.552   5.856   7.417
26401WAT     H279446   1.587   5.916   7.270
26402WAT      O79447   5.942   2.998   1.825
26402WAT     H179448   5.976   2.924   1.883
26402WAT     H279449   6.000   3.004   1.743
26403WAT      O79450   7.444   7.926   8.704
26403WAT     H179451   7.488   7.929   8.794
26403WAT     H279452   7.371   7.858   8.704
26404WAT      O79453   9.437   2.989   6.744
26404WAT     H179454   9.510   2.925   6.768
26404WAT     H279455   9.390   3.018   6.827
26405WAT      O79456   6.476   6.617   6.391
26405WAT     H179457   6.377   6.616   6.403
26405WAT     H279458   6.520   6.616   6.480
26406WAT      O79459   0.521   0.257   6.036
26406WAT     H179460   0.541   0.220   5.945
26406WAT     H279461   0.585   0.218   6.102
26407WAT      O79462   4.004   9.574   3.810
26407WAT     H179463   3.908   9.551   3.827
26407WAT     H279464   4.019   9.582   3.712
26408WAT      O79465   4.950   2.350   0.172
26408WAT     H179466   5.002   2.286   0.115
26408WAT     H279467   4.854   2.321   0.175
26409WAT      O79468   7.859   9.115   9.068
26409WAT     H179469   7.921   9.080   9.138
26409WAT     H279470   7.899   9.196   9.025
26410WAT      O79471   4.146   8.026   4.404
26410WAT     H179472   4.048   8.020   4.383
26410WAT     H279473   4.159   8.079   4.488
26411WAT      O79474   9.170   3.357   2.729
26411WAT     H179475   9.254   3.381   2.778
26411WAT     H279476   9.097   3.339   2.796
26412WAT      O79477   9.145   7.792   7.407
26412WAT     H179478   9.243   7.782   7.426
26412WAT     H279479   9.118   7.727   7.336
26413WAT      O79480   6.409   6.993   7.267
26413WAT     H179481   6.457   6.957   7.347
26413WAT     H279482   6.316   6.957   7.265
26414WAT      O79483   3.099   2.075   0.205
26414WAT     H179484   3.084   2.169   0.175
26414WAT     H279485   3.012   2.026   0.202
26415WAT      O79486   0.678   1.521   3.315
26415WAT     H179487   0.618   1.441   3.318
26415WAT     H279488   0.648   1.582   3.241
26416WAT      O79489   8.786   4.609   6.995
26416WAT     H179490   8.841   4.559   6.927
26416WAT     H279491   8.690   4.605   6.970
26417WAT      O79492   6.202   3.419   1.501
26417WAT     H179493   6.153   3.368   1.431
26417WAT     H279494   6.137   3.465   1.561
26418WAT      O79495   1.385   7.778   5.376
26418WAT     H179496   1.377   7.863   5.428
26418WAT     H279497   1.402   7.799   5.279
26419WAT      O79498   2.118   9.684   4.626
26419WAT     H179499   2.084   9.590   4.637
26419WAT     H279500   2.134   9.724   4.717
26420WAT      O79501   6.651   3.489   8.974
26420WAT     H179502   6.571   3.534   8.933
26420WAT     H279503   6.621   3.433   9.051
26421WAT      O79504   8.027   2.151   0.547
26421WAT     H179505   8.083   2.119   0.624
26421WAT     H279506   8.073   2.225   0.500
26422WAT      O79507   6.640   6.811   0.955
26422WAT     H179508   6.662   6.909   0.955
26422WAT     H279509   6.624   6.781   0.861
26423WAT      O79510   3.395   0.805   7.043
26423WAT     H179511   3.479   0.764   7.009
26423WAT     H279512   3.409   0.903   7.056
26424WAT      O79513   1.436   3.654   3.694
26424WAT     H179514   1.522   3.637   3.645
26424WAT     H279515   1.361   3.606   3.648
26425WAT      O79516   0.519   5.944   3.259
26425WAT     H179517   0.500   5.846   3.254
26425WAT     H279518   0.502   5.976   3.352
26426WAT      O79519   0.092   3.149   8.996
26426WAT     H179520   0.180   3.124   9.036
26426WAT     H279521   0.085   3.109   8.904
26427WAT      O79522   6.755   2.378   3.973
26427WAT     H179523   6.757   2.376   4.073
26427WAT     H279524   6.673   2.427   3.942
26428WAT      O79525   0.979   8.021   1.598
26428WAT     H179526   0.967   8.021   1.499
26428WAT     H279527   1.076   8.036   1.619
26429WAT      O79528   1.987   2.090   0.854
26429WAT     H179529   1.960   2.167   0.911
26429WAT     H279530   1.928   2.012   0.873
26430WAT      O79531   1.423   0.448   4.598
26430WAT     H179532   1.411   0.448   4.697
26430WAT     H279533   1.333   0.448   4.554
26431WAT      O79534   1.794   8.719   7.203
26431WAT     H179535   1.760   8.764   7.121
26431WAT     H279536   1.827   8.628   7.181
26432WAT      O79537   3.717   5.413   1.688
26432WAT     H179538   3.718   5.497   1.635
26432WAT     H279539   3.789   5.416   1.757
26433WAT      O79540   5.038   7.457   9.380
26433WAT     H179541   5.042   7.541   9.435
26433WAT     H279542   5.003   7.478   9.289
26434WAT      O79543   8.237   0.385   1.172
26434WAT     H179544   8.266   0.452   1.241
26434WAT     H279545   8.141   0.400   1.149
26435WAT      O79546   1.549   1.450   3.636
26435WAT     H179547   1.517   1.485   3.724
26435WAT     H279548   1.574   1.528   3.577
26436WAT      O79549   9.396   3.764   2.371
26436WAT     H179550   9.369   3.853   2.333
26436WAT     H279551   9.391   3.767   2.471
26437WAT      O79552   8.134   1.588   5.400
26437WAT     H179553   8.155   1.509   5.342
26437WAT     H279554   8.215   1.613   5.453
26438WAT      O79555   3.459   9.589   7.123
26438WAT     H179556   3.503   9.677   7.106
26438WAT     H279557   3.478   9.527   7.047
26439WAT      O79558   0.418   4.783   9.190
26439WAT     H179559   0.466   4.771   9.277
26439WAT     H279560   0.411   4.695   9.143
26440WAT      O79561   3.191   4.540   3.000
26440WAT     H179562   3.254   4.561   3.074
26440WAT     H279563   3.219   4.589   2.917
26441WAT      O79564   2.366   7.381   7.568
26441WAT     H179565   2.313   7.451   7.615
26441WAT     H279566   2.408   7.420   7.486
26442WAT      O79567   8.313   2.875   8.848
26442WAT     H179568   8.232   2.866   8.790
26442WAT     H279569   8.347   2.784   8.871
26443WAT      O79570   2.666   0.208   8.426
26443WAT     H179571   2.677   0.186   8.523
26443WAT     H279572   2.606   0.287   8.416
26444WAT      O79573   5.133   8.888   8.548
26444WAT     H179574   5.141   8.987   8.564
26444WAT     H279575   5.085   8.872   8.462
26445WAT      O79576   4.332   2.367   0.140
26445WAT     H179577   4.337   2.461   0.105
26445WAT     H279578   4.290   2.308   0.072
26446WAT      O79579   2.411   9.450   1.130
26446WAT     H179580   2.462   9.481   1.050
26446WAT     H279581   2.386   9.529   1.187
26447WAT      O79582   0.632   2.931   4.181
26447WAT     H179583   0.592   2.842   4.160
26447WAT     H279584   0.631   2.946   4.280
26448WAT      O79585   4.685   4.911   9.869
26448WAT     H179586   4.683   4.922   9.968
26448WAT     H279587   4.734   4.827   9.845
26449WAT      O79588   1.877   6.725   5.681
26449WAT     H179589   1.815   6.700   5.607
26449WAT     H279590   1.967   6.747   5.644
26450WAT      O79591   9.179   0.786   6.504
26450WAT     H179592   9.239   0.746   6.435
26450WAT     H279593   9.086   0.793   6.468
26451WAT      O79594   0.527   2.225   5.842
26451WAT     H179595   0.610   2.203   5.894
26451WAT     H279596   0.503   2.321   5.855
26452WAT      O79597   6.968   4.546   1.235
26452WAT     H179598   7.061   4.511   1.246
26452WAT     H279599   6.903   4.471   1.251
26453WAT      O79600   6.147   1.439   9.171
26453WAT     H179601   6.135   1.350   9.214
26453WAT     H279602   6.213   1.493   9.225
26454WAT      O79603   6.284   8.733   9.238
26454WAT     H179604   6.265   8.709   9.143
26454WAT     H279605   6.199   8.760   9.283
26455WAT      O79606   7.228   0.555   3.129
26455WAT     H179607   7.134   0.587   3.123
26455WAT     H279608   7.286   0.609   3.068
26456WAT      O79609   1.853   7.293   6.606
26456WAT     H179610   1.813   7.348   6.679
26456WAT     H279611   1.841   7.196   6.626
26457WAT      O79612   0.219   0.036   5.887
26457WAT     H179613   0.174   0.100   5.949
26457WAT     H279614   0.274  -0.029   5.940
26458WAT      O79615   1.745   4.334   9.509
26458WAT     H179616   1.786   4.292   9.428
26458WAT     H279617   1.810   4.328   9.585
26459WAT      O79618   6.111   7.424   6.534
26459WAT     H179619   6.059   7.481   6.472
26459WAT     H279620   6.188   7.476   6.571
26460WAT      O79621   5.305   5.754   2.422
26460WAT     H179622   5.372   5.693   2.464
26460WAT     H279623   5.337   5.779   2.330
26461WAT      O79624   7.589   7.744   2.444
26461WAT     H179625   7.586   7.660   2.497
26461WAT     H279626   7.589   7.722   2.346
26462WAT      O79627   8.564   5.593   9.546
26462WAT     H179628   8.595   5.593   9.451
26462WAT     H279629   8.636   5.557   9.604
26463WAT      O79630   4.413   8.937   2.843
26463WAT     H179631   4.389   9.028   2.811
26463WAT     H279632   4.498   8.908   2.799
26464WAT      O79633   3.938   0.891   8.642
26464WAT     H179634   3.915   0.798   8.612
26464WAT     H279635   4.037   0.899   8.653
26465WAT      O79636   5.364   3.408   7.947
26465WAT     H179637   5.437   3.351   7.907
26465WAT     H279638   5.350   3.488   7.890
26466WAT      O79639   8.925   0.828   6.440
26466WAT     H179640   8.843   0.885   6.446
26466WAT     H279641   8.928   0.785   6.350
26467WAT      O79642   9.671   6.315   2.860
26467WAT     H179643   9.685   6.396   2.917
26467WAT     H279644   9.704   6.234   2.908
26468WAT      O79645   7.535   7.376   1.854
26468WAT     H179646   7.611   7.437   1.875
26468WAT     H279647   7.515   7.380   1.756
26469WAT      O79648   2.203   5.272   2.080
26469WAT     H179649   2.170   5.319   1.998
26469WAT     H279650   2.292   5.230   2.062
26470WAT      O79651   2.726   1.602   7.280
26470WAT     H179652   2.719   1.506   7.255
26470WAT     H279653   2.814   1.619   7.324
26471WAT      O79654   9.401   6.101   9.817
26471WAT     H179655   9.364   6.176   9.870
26471WAT     H279656   9.461   6.136   9.745
26472WAT      O79657   1.462   1.928   6.596
26472WAT     H179658   1.407   1.876   6.661
26472WAT     H279659   1.409   1.942   6.512
26473WAT      O79660   3.819   2.318   2.542
26473WAT     H179661   3.765   2.354   2.465
26473WAT     H279662   3.759   2.266   2.603
26474WAT      O79663   9.778   7.077   6.555
26474WAT     H179664   9.838   7.033   6.489
26474WAT     H279665   9.721   7.008   6.601
26475WAT      O79666   9.780   3.019   6.005
26475WAT     H179667   9.687   3.038   5.976
26475WAT     H279668   9.796   3.059   6.095
26476WAT      O79669   4.887   5.525   7.275
26476WAT     H179670   4.852   5.602   7.329
26476WAT     H279671   4.821   5.503   7.203
26477WAT      O79672   8.737   5.319   8.545
26477WAT     H179673   8.658   5.352   8.492
26477WAT     H279674   8.821   5.357   8.506
26478WAT      O79675   5.364   9.711   3.151
26478WAT     H179676   5.299   9.782   3.179
26478WAT     H279677   5.455   9.733   3.188
26479WAT      O79678   9.306   7.815   9.690
26479WAT     H179679   9.325   7.717   9.688
26479WAT     H279680   9.325   7.851   9.782
26480WAT      O79681   4.763   2.292   4.689
26480WAT     H179682   4.824   2.223   4.727
26480WAT     H279683   4.815   2.351   4.627
26481WAT      O79684   7.940   2.044   5.276
26481WAT     H179685   7.998   2.000   5.208
26481WAT     H279686   7.992   2.115   5.324
26482WAT      O79687   1.005   3.693   6.934
26482WAT     H179688   1.051   3.639   6.863
26482WAT     H279689   1.028   3.655   7.024
26483WAT      O79690   7.094   6.936   1.346
26483WAT     H179691   7.066   6.920   1.441
26483WAT     H279692   7.096   6.849   1.296
26484WAT      O79693   5.268   3.614   7.732
26484WAT     H179694   5.259   3.638   7.635
26484WAT     H279695   5.198   3.661   7.785
26485WAT      O79696   6.278   5.845   9.522
26485WAT     H179697   6.370   5.831   9.559
26485WAT     H279698   6.226   5.760   9.528
26486WAT      O79699   8.870   1.191   3.533
26486WAT     H179700   8.950   1.138   3.563
26486WAT     H279701   8.789   1.161   3.584
26487WAT      O79702   2.123   8.859   6.418
26487WAT     H179703   2.025   8.879   6.414
26487WAT     H279704   2.167   8.924   6.479
26488WAT      O79705   1.778   7.759   0.189
26488WAT     H179706   1.823   7.777   0.276
26488WAT     H279707   1.823   7.682   0.144
26489WAT      O79708   9.666   2.234   0.280
26489WAT     H179709   9.738   2.167   0.298
26489WAT     H279710   9.595   2.192   0.224
26490WAT      O79711   0.288   4.932   4.842
26490WAT     H179712   0.328   4.938   4.751
26490WAT     H279713   0.346   4.875   4.900
26491WAT      O79714   8.915   1.744   8.746
26491WAT     H179715   8.834   1.687   8.736
26491WAT     H279716   8.946   1.741   8.841
26492WAT      O79717   4.839   3.865   9.740
26492WAT     H179718   4.813   3.886   9.834
26492WAT     H279719   4.760   3.874   9.680
26493WAT      O79720   8.419   4.081   8.295
26493WAT     H179721   8.419   4.096   8.394
26493WAT     H279722   8.365   4.152   8.250
26494WAT      O79723   0.080   1.508   3.891
26494WAT     H179724   0.114   1.521   3.984
26494WAT     H279725   0.130   1.568   3.828
26495WAT      O79726   0.834   0.932   8.307
26495WAT     H179727   0.820   1.015   8.254
26495WAT     H279728   0.785   0.939   8.394
26496WAT      O79729   3.498   2.581   4.663
26496WAT     H179730   3.409   2.543   4.639
26496WAT     H279731   3.567   2.550   4.597
26497WAT      O79732   8.593   0.929   0.471
26497WAT     H179733   8.510   0.895   0.516
26497WAT     H279734   8.636   0.854   0.420
26498WAT      O79735   7.148   3.547   1.005
26498WAT     H179736   7.191   3.508   0.923
26498WAT     H279737   7.071   3.603   0.977
26499WAT      O79738   1.641   3.400   4.009
26499WAT     H179739   1.637   3.362   4.101
26499WAT     H279740   1.575   3.352   3.950
26500WAT      O79741   7.913   3.678   1.607
26500WAT     H179742   7.842   3.628   1.557
26500WAT     H279743   7.904   3.776   1.588
26501WAT      O79744   7.268   2.580   8.987
26501WAT     H179745   7.182   2.534   8.965
26501WAT     H279746   7.345   2.521   8.961
26502WAT      O79747   9.141   0.357   2.094
26502WAT     H179748   9.133   0.453   2.122
26502WAT     H279749   9.101   0.345   2.003
26503WAT      O79750   3.931   7.020   4.271
26503WAT     H179751   3.841   7.063   4.282
26503WAT     H279752   3.949   6.961   4.350
26504WAT      O79753   0.696   8.736   1.808
26504WAT     H179754   0.681   8.756   1.905
26504WAT     H279755   0.757   8.657   1.800
26505WAT      O79756   9.184   3.683   1.861
26505WAT     H179757   9.124   3.611   1.895
26505WAT     H279758   9.168   3.698   1.763
26506WAT      O79759   7.488   4.409   1.825
26506WAT     H179760   7.471   4.424   1.728
26506WAT     H279761   7.577   4.447   1.850
26507WAT      O79762   3.680   2.708   3.648
26507WAT     H179763   3.737   2.644   3.700
26507WAT     H279764   3.721   2.799   3.651
26508WAT      O79765   4.723   9.067   5.837
26508WAT     H179766   4.680   9.023   5.915
26508WAT     H279767   4.802   9.120   5.867
26509WAT      O79768   0.728   1.561   7.604
26509WAT     H179769   0.714   1.472   7.559
26509WAT     H279770   0.782   1.547   7.687
26510WAT      O79771   2.490   6.235   6.538
26510WAT     H179772   2.557   6.292   6.490
26510WAT     H279773   2.398   6.262   6.511
26511WAT      O79774   0.933   0.693   3.292
26511WAT     H179775   0.835   0.712   3.284
26511WAT     H279776   0.946   0.616   3.355
26512WAT      O79777   0.424   6.944   3.588
26512WAT     H179778   0.349   6.908   3.644
26512WAT     H279779   0.511   6.910   3.623
26513WAT      O79780   8.452   2.649   8.884
26513WAT     H179781   8.508   2.578   8.927
26513WAT     H279782   8.377   2.606   8.833
26514WAT      O79783   8.751   7.457   3.447
26514WAT     H179784   8.709   7.528   3.392
26514WAT     H279785   8.842   7.437   3.413
26515WAT      O79786   5.095   4.498   6.139
26515WAT     H179787   5.010   4.542   6.110
26515WAT     H279788   5.138   4.554   6.210
26516WAT      O79789   9.705   2.098   5.438
26516WAT     H179790   9.607   2.080   5.428
26516WAT     H279791   9.757   2.017   5.411
26517WAT      O79792   9.800   4.627   8.148
26517WAT     H179793   9.732   4.698   8.130
26517WAT     H279794   9.768   4.540   8.112
26518WAT      O79795   2.022   6.702   8.229
26518WAT     H179796   2.052   6.764   8.302
26518WAT     H279797   2.055   6.609   8.248
26519WAT      O79798   6.945   4.688   2.509
26519WAT     H179799   7.035   4.651   2.485
26519WAT     H279800   6.905   4.734   2.429
26520WAT      O79801   3.061   0.217   8.243
26520WAT     H179802   2.989   0.211   8.174
26520WAT     H279803   3.020   0.232   8.333
26521WAT      O79804   9.011   4.887   5.254
26521WAT     H179805   8.990   4.822   5.181
26521WAT     H279806   9.096   4.861   5.299
26522WAT      O79807   0.305   1.291   9.705
26522WAT     H179808   0.247   1.222   9.660
26522WAT     H279809   0.401   1.265   9.696
26523WAT      O79810   5.834   6.645   2.689
26523WAT     H179811   5.750   6.673   2.642
26523WAT     H279812   5.838   6.545   2.693
26524WAT      O79813   4.786   3.960   3.068
26524WAT     H179814   4.792   3.873   3.118
26524WAT     H279815   4.865   3.970   3.009
26525WAT      O79816   5.032   4.387   3.561
26525WAT     H179817   5.132   4.388   3.550
26525WAT     H279818   4.999   4.293   3.549
26526WAT      O79819   8.307   1.303   9.392
26526WAT     H179820   8.268   1.389   9.358
26526WAT     H279821   8.312   1.238   9.317
26527WAT      O79822   9.387   6.174   2.152
26527WAT     H179823   9.417   6.224   2.234
26527WAT     H279824   9.394   6.076   2.168
26528WAT      O79825   5.687   8.471   3.658
26528WAT     H179826   5.764   8.425   3.702
26528WAT     H279827   5.637   8.406   3.601
26529WAT      O79828   9.801   2.418   7.376
26529WAT     H179829   9.890   2.427   7.422
26529WAT     H279830   9.807   2.457   7.284
26530WAT      O79831   8.456   9.111   7.367
26530WAT     H179832   8.501   9.063   7.442
26530WAT     H279833   8.492   9.204   7.361
26531WAT      O79834   6.923   0.309   3.997
26531WAT     H179835   6.949   0.386   4.056
26531WAT     H279836   6.830   0.323   3.963
26532WAT      O79837   0.815   6.218   6.347
26532WAT     H179838   0.770   6.211   6.258
26532WAT     H279839   0.746   6.227   6.419
26533WAT      O79840   8.402   4.899   9.314
26533WAT     H179841   8.471   4.919   9.244
26533WAT     H279842   8.331   4.841   9.274
26534WAT      O79843   8.155   9.613   1.434
26534WAT     H179844   8.097   9.533   1.417
26534WAT     H279845   8.242   9.583   1.472
26535WAT      O79846   1.607   2.902   8.738
26535WAT     H179847   1.526   2.861   8.696
26535WAT     H279848   1.595   3.001   8.746
26536WAT      O79849   3.456   9.769   7.560
26536WAT     H179850   3.528   9.731   7.502
26536WAT     H279851   3.498   9.813   7.640
26537WAT      O79852   0.018   8.035   8.349
26537WAT     H179853  -0.070   7.988   8.350
26537WAT     H279854   0.027   8.091   8.431
26538WAT      O79855   8.754   1.311   2.039
26538WAT     H179856   8.838   1.322   2.092
26538WAT     H279857   8.770   1.247   1.964
26539WAT      O79858   6.389   8.856   1.728
26539WAT     H179859   6.294   8.882   1.745
26539WAT     H279860   6.392   8.786   1.655
26540WAT      O79861   0.871   9.606   0.677
26540WAT     H179862   0.925   9.540   0.728
26540WAT     H279863   0.907   9.613   0.584
26541WAT      O79864   7.791   2.191   3.575
26541WAT     H179865   7.712   2.186   3.514
26541WAT     H279866   7.850   2.111   3.561
26542WAT      O79867   7.262   7.619   9.564
26542WAT     H179868   7.222   7.560   9.493
26542WAT     H279869   7.356   7.588   9.582
26543WAT      O79870   8.628   8.189   6.724
26543WAT     H179871   8.632   8.185   6.824
26543WAT     H279872   8.538   8.223   6.696
26544WAT      O79873   9.710   5.807   0.464
26544WAT     H179874   9.760   5.760   0.537
26544WAT     H279875   9.767   5.880   0.425
26545WAT      O79876   6.101   6.231   5.341
26545WAT     H179877   6.125   6.316   5.388
26545WAT     H279878   6.158   6.221   5.260
26546WAT      O79879   0.032   0.568   8.500
26546WAT     H179880  -0.068   0.572   8.506
26546WAT     H279881   0.071   0.577   8.591
26547WAT      O79882   6.554   9.366   3.972
26547WAT     H179883   6.633   9.319   3.932
26547WAT     H279884   6.550   9.460   3.936
26548WAT      O79885   0.070   9.143   5.468
26548WAT     H179886   0.124   9.150   5.552
26548WAT     H279887   0.019   9.057   5.469
26549WAT      O79888   0.893   2.681   7.666
26549WAT     H179889   0.824   2.719   7.605
26549WAT     H279890   0.908   2.585   7.644
26550WAT      O79891   7.995   4.784   7.816
26550WAT     H179892   8.054   4.851   7.860
26550WAT     H279893   8.043   4.696   7.810
26551WAT      O79894   5.979   1.022   5.509
26551WAT     H179895   5.923   1.042   5.428
26551WAT     H279896   5.959   1.089   5.581
26552WAT      O79897   7.593   2.237   3.371
26552WAT     H179898   7.633   2.315   3.322
26552WAT     H279899   7.550   2.174   3.306
26553WAT      O79900   8.418   1.132   1.825
26553WAT     H179901   8.366   1.123   1.740
26553WAT     H279902   8.363   1.180   1.893
26554WAT      O79903   1.212   3.548   6.813
26554WAT     H179904   1.174   3.461   6.783
26554WAT     H279905   1.306   3.534   6.845
26555WAT      O79906   2.334   6.139   5.201
26555WAT     H179907   2.259   6.163   5.262
26555WAT     H279908   2.298   6.123   5.109
26556WAT      O79909   2.991   3.585   3.150
26556WAT     H179910   2.991   3.683   3.135
26556WAT     H279911   3.035   3.539   3.073
26557WAT      O79912   5.112   1.988   8.764
26557WAT     H179913   5.049   1.940   8.824
26557WAT     H279914   5.133   1.931   8.685
26558WAT      O79915   0.622   8.340   4.563
26558WAT     H179916   0.647   8.278   4.637
26558WAT     H279917   0.688   8.331   4.488
26559WAT      O79918   4.327   5.796   8.139
26559WAT     H179919   4.389   5.827   8.066
26559WAT     H279920   4.279   5.714   8.109
26560WAT      O79921   1.180   1.307   6.512
26560WAT     H179922   1.101   1.313   6.450
26560WAT     H279923   1.176   1.221   6.563
26561WAT      O79924   0.424   0.242   4.708
26561WAT     H179925   0.470   0.224   4.621
26561WAT     H279926   0.489   0.285   4.771
26562WAT      O79927   2.206   9.247   7.933
26562WAT     H179928   2.124   9.192   7.948
26562WAT     H279929   2.182   9.328   7.879
26563WAT      O79930   1.312   3.500   1.179
26563WAT     H179931   1.357   3.521   1.266
26563WAT     H279932   1.376   3.454   1.118
26564WAT      O79933   7.491   8.127   5.860
26564WAT     H179934   7.462   8.045   5.910
26564WAT     H279935   7.544   8.186   5.921
26565WAT      O79936   4.379   3.774   8.926
26565WAT     H179937   4.475   3.765   8.899
26565WAT     H279938   4.340   3.856   8.884
26566WAT      O79939   6.470   7.920   0.508
26566WAT     H179940   6.376   7.954   0.510
26566WAT     H279941   6.522   7.961   0.582
26567WAT      O79942   1.431   1.252   1.595
26567WAT     H179943   1.458   1.180   1.531
26567WAT     H279944   1.462   1.340   1.560
26568WAT      O79945   2.150   8.170   0.298
26568WAT     H179946   2.148   8.254   0.243
26568WAT     H279947   2.243   8.134   0.300
26569WAT      O79948   7.922   4.457   5.468
26569WAT     H179949   7.911   4.384   5.400
26569WAT     H279950   7.936   4.544   5.420
26570WAT      O79951   1.717   7.186   0.659
26570WAT     H179952   1.632   7.135   0.677
26570WAT     H279953   1.698   7.284   0.659
26571WAT      O79954   9.614   7.304   0.774
26571WAT     H179955   9.563   7.357   0.706
26571WAT     H279956   9.627   7.211   0.740
26572WAT      O79957   1.252   0.774   7.763
26572WAT     H179958   1.284   0.763   7.669
26572WAT     H279959   1.330   0.787   7.824
26573WAT      O79960   1.027   8.996   7.337
26573WAT     H179961   1.111   9.048   7.324
26573WAT     H279962   1.028   8.916   7.276
26574WAT      O79963   9.439   9.096   0.513
26574WAT     H179964   9.358   9.047   0.480
26574WAT     H279965   9.427   9.117   0.611
26575WAT      O79966   0.858   3.418   7.839
26575WAT     H179967   0.829   3.355   7.767
26575WAT     H279968   0.776   3.457   7.883
26576WAT      O79969   1.718   0.340   6.166
26576WAT     H179970   1.715   0.272   6.238
26576WAT     H279971   1.672   0.424   6.196
26577WAT      O79972   8.829   9.062   7.289
26577WAT     H179973   8.801   9.091   7.381
26577WAT     H279974   8.862   9.141   7.238
26578WAT      O79975   6.700   4.836   2.846
26578WAT     H179976   6.788   4.866   2.885
26578WAT     H279977   6.681   4.742   2.875
26579WAT      O79978   8.972   6.617   4.094
26579WAT     H179979   8.981   6.708   4.052
26579WAT     H279980   9.009   6.619   4.187
26580WAT      O79981   7.945   4.993   6.200
26580WAT     H179982   7.986   5.085   6.200
26580WAT     H279983   7.877   4.987   6.273
26581WAT      O79984   9.433   9.741   7.935
26581WAT     H179985   9.391   9.712   7.849
26581WAT     H279986   9.509   9.803   7.915
26582WAT      O79987   9.627   4.386   6.006
26582WAT     H179988   9.671   4.461   6.055
26582WAT     H279989   9.630   4.404   5.908
26583WAT      O79990   7.166   0.914   0.827
26583WAT     H179991   7.206   0.839   0.775
26583WAT     H279992   7.171   0.998   0.774
26584WAT      O79993   8.194   7.995   6.103
26584WAT     H179994   8.241   7.998   6.191
26584WAT     H279995   8.262   7.986   6.030
26585WAT      O79996   6.305   9.343   9.160
26585WAT     H179997   6.341   9.350   9.067
26585WAT     H279998   6.378   9.313   9.222
26586WAT      O79999   8.212   0.078   4.087
26586WAT     H180000   8.242   0.147   4.021
26586WAT     H280001   8.292   0.033   4.127
26587WAT      O80002   6.729   0.573   1.145
26587WAT     H180003   6.778   0.504   1.092
26587WAT     H280004   6.729   0.659   1.095
26588WAT      O80005   7.257   1.945   7.451
26588WAT     H180006   7.293   1.928   7.543
26588WAT     H280007   7.294   2.032   7.417
26589WAT      O80008   1.606   3.094   7.025
26589WAT     H180009   1.571   3.018   7.078
26589WAT     H280010   1.688   3.066   6.975
26590WAT      O80011   3.743   3.474   7.704
26590WAT     H180012   3.644   3.483   7.693
26590WAT     H280013   3.781   3.562   7.734
26591WAT      O80014   5.199   8.515   4.007
26591WAT     H180015   5.141   8.541   3.930
26591WAT     H280016   5.152   8.534   4.093
26592WAT      O80017   6.028   4.825   9.461
26592WAT     H180018   6.100   4.841   9.393
26592WAT     H280019   5.952   4.776   9.419
26593WAT      O80020   4.383   1.607   4.053
26593WAT     H180021   4.397   1.604   4.152
26593WAT     H280022   4.300   1.558   4.030
26594WAT      O80023   8.150   5.427   8.956
26594WAT     H180024   8.200   5.498   8.906
26594WAT     H280025   8.052   5.436   8.938
26595WAT      O80026   8.460   3.847   8.192
26595WAT     H180027   8.436   3.931   8.240
26595WAT     H280028   8.549   3.814   8.223
26596WAT      O80029   7.863   4.913   3.779
26596WAT     H180030   7.884   4.894   3.683
26596WAT     H280031   7.915   4.992   3.809
26597WAT      O80032   1.227   2.275   0.386
26597WAT     H180033   1.174   2.287   0.470
26597WAT     H280034   1.217   2.356   0.328
26598WAT      O80035   6.317   1.032   3.287
26598WAT     H180036   6.269   0.956   3.332
26598WAT     H280037   6.411   1.037   3.320
26599WAT      O80038   8.346   9.040   3.706
26599WAT     H180039   8.302   9.074   3.790
26599WAT     H280040   8.376   8.946   3.720
26600WAT      O80041   0.387   8.932   8.638
26600WAT     H180042   0.290   8.917   8.620
26600WAT     H280043   0.403   8.931   8.737
26601WAT      O80044   2.017   0.144   3.503
26601WAT     H180045   2.030   0.204   3.582
26601WAT     H280046   2.088   0.163   3.435
26602WAT      O80047   5.611   0.711   1.897
26602WAT     H180048   5.650   0.694   1.987
26602WAT     H280049   5.663   0.784   1.851
26603WAT      O80050   7.541   9.381   1.727
26603WAT     H180051   7.529   9.297   1.780
26603WAT     H280052   7.486   9.375   1.643
26604WAT      O80053   0.347   1.837   1.437
26604WAT     H180054   0.295   1.755   1.458
26604WAT     H280055   0.407   1.860   1.513
26605WAT      O80056   2.914   8.946   8.765
26605WAT     H180057   2.821   8.983   8.762
26605WAT     H280058   2.941   8.932   8.861
26606WAT      O80059   4.745   0.793   3.194
26606WAT     H180060   4.701   0.750   3.273
26606WAT     H280061   4.844   0.779   3.199
26607WAT      O80062   3.581   6.578   2.001
26607WAT     H180063   3.488   6.598   2.033
26607WAT     H280064   3.578   6.511   1.927
26608WAT      O80065   1.792   5.565   1.187
26608WAT     H180066   1.749   5.494   1.132
26608WAT     H280067   1.725   5.638   1.205
26609WAT      O80068   3.255   7.975   8.953
26609WAT     H180069   3.217   7.950   8.864
26609WAT     H280070   3.208   7.923   9.024
26610WAT      O80071   8.474   8.444   7.026
26610WAT     H180072   8.442   8.525   7.074
26610WAT     H280073   8.566   8.459   6.990
26611WAT      O80074   9.535   9.180   5.471
26611WAT     H180075   9.551   9.164   5.373
26611WAT     H280076   9.611   9.234   5.509
26612WAT      O80077   0.527   3.899   8.065
26612WAT     H180078   0.450   3.905   8.002
26612WAT     H280079   0.545   3.990   8.103
26613WAT      O80080   1.896   5.252   0.123
26613WAT     H180081   1.833   5.194   0.174
26613WAT     H280082   1.864   5.259   0.028
26614WAT      O80083   4.580   4.184   7.266
26614WAT     H180084   4.549   4.257   7.206
26614WAT     H280085   4.673   4.204   7.297
26615WAT      O80086   2.041   4.574   3.242
26615WAT     H180087   2.001   4.598   3.330
26615WAT     H280088   2.048   4.475   3.233
26616WAT      O80089   8.563   2.840   6.732
26616WAT     H180090   8.528   2.933   6.725
26616WAT     H280091   8.660   2.843   6.758
26617WAT      O80092   7.389   0.067   6.536
26617WAT     H180093   7.400  -0.016   6.590
26617WAT     H280094   7.291   0.084   6.520
26618WAT      O80095   0.115   6.533   5.703
26618WAT     H180096   0.077   6.510   5.613
26618WAT     H280097   0.119   6.450   5.758
26619WAT      O80098   3.880   4.235   6.495
26619WAT     H180099   3.818   4.219   6.418
26619WAT     H280100   3.829   4.232   6.581
26620WAT      O80101   6.413   8.707   0.381
26620WAT     H180102   6.412   8.651   0.299
26620WAT     H280103   6.505   8.709   0.419
26621WAT      O80104   1.009   2.494   5.773
26621WAT     H180105   0.924   2.497   5.721
26621WAT     H280106   1.030   2.399   5.796
26622WAT      O80107   2.059   2.768   0.323
26622WAT     H180108   2.100   2.811   0.242
26622WAT     H280109   1.959   2.768   0.313
26623WAT      O80110   3.359   4.184   2.900
26623WAT     H180111   3.269   4.218   2.875
26623WAT     H280112   3.352   4.127   2.982
26624WAT      O80113   3.388   4.678   7.290
26624WAT     H180114   3.398   4.653   7.386
26624WAT     H280115   3.373   4.777   7.283
26625WAT      O80116   9.184   9.035   1.764
26625WAT     H180117   9.146   9.077   1.681
26625WAT     H280118   9.278   9.009   1.747
26626WAT      O80119   1.172   8.869   1.061
26626WAT     H180120   1.185   8.940   0.992
26626WAT     H280121   1.082   8.828   1.051
26627WAT      O80122   5.042   3.958   0.677
26627WAT     H180123   4.950   3.998   0.670
26627WAT     H280124   5.095   4.009   0.745
26628WAT      O80125   3.318   4.662   0.782
26628WAT     H180126   3.363   4.612   0.855
26628WAT     H280127   3.302   4.757   0.811
26629WAT      O80128   7.197   6.498   2.856
26629WAT     H180129   7.141   6.581   2.846
26629WAT     H280130   7.291   6.518   2.828
26630WAT      O80131   4.620   5.592   2.161
26630WAT     H180132   4.699   5.563   2.107
26630WAT     H280133   4.628   5.688   2.185
26631WAT      O80134   5.273   4.271   5.071
26631WAT     H180135   5.366   4.235   5.085
26631WAT     H280136   5.224   4.272   5.157
26632WAT      O80137   6.477   4.559   1.225
26632WAT     H180138   6.468   4.562   1.325
26632WAT     H280139   6.544   4.489   1.200
26633WAT      O80140   0.481   4.198   9.015
26633WAT     H180141   0.483   4.099   9.003
26633WAT     H280142   0.560   4.238   8.969
26634WAT      O80143   3.736   6.853   4.650
26634WAT     H180144   3.664   6.793   4.614
26634WAT     H280145   3.705   6.948   4.647
26635WAT      O80146   7.079   0.246   1.534
26635WAT     H180147   6.985   0.281   1.543
26635WAT     H280148   7.142   0.322   1.525
26636WAT      O80149   1.713   1.743   2.573
26636WAT     H180150   1.770   1.793   2.508
26636WAT     H280151   1.645   1.690   2.522
26637WAT      O80152   8.490   6.026   5.730
26637WAT     H180153   8.582   6.065   5.725
26637WAT     H280154   8.456   6.031   5.824
26638WAT      O80155   0.368   6.696   2.432
26638WAT     H180156   0.310   6.686   2.513
26638WAT     H280157   0.314   6.681   2.349
26639WAT      O80158   2.284   7.456   0.311
26639WAT     H180159   2.227   7.467   0.392
26639WAT     H280160   2.356   7.389   0.329
26640WAT      O80161   1.613   9.540   0.971
26640WAT     H180162   1.696   9.492   0.944
26640WAT     H280163   1.598   9.617   0.909
26641WAT      O80164   9.170   6.329   9.495
26641WAT     H180165   9.132   6.401   9.436
26641WAT     H280166   9.269   6.323   9.482
26642WAT      O80167   1.764   7.415   6.828
26642WAT     H180168   1.712   7.354   6.887
26642WAT     H280169   1.827   7.470   6.884
26643WAT      O80170   3.086   7.059   5.500
26643WAT     H180171   3.000   7.103   5.473
26643WAT     H280172   3.068   6.988   5.567
26644WAT      O80173   2.006   0.185   1.058
26644WAT     H180174   1.918   0.170   1.104
26644WAT     H280175   2.031   0.281   1.064
26645WAT      O80176   3.491   3.843   2.978
26645WAT     H180177   3.533   3.884   3.059
26645WAT     H280178   3.554   3.849   2.900
26646WAT      O80179   4.627   5.965   4.815
26646WAT     H180180   4.720   5.972   4.852
26646WAT     H280181   4.622   6.014   4.728
26647WAT      O80182   1.544   3.787   2.791
26647WAT     H180183   1.532   3.886   2.788
26647WAT     H280184   1.634   3.765   2.827
26648WAT      O80185   5.128   1.595   6.582
26648WAT     H180186   5.140   1.562   6.676
26648WAT     H280187   5.193   1.669   6.564
26649WAT      O80188   4.182   5.384   2.506
26649WAT     H180189   4.104   5.443   2.487
26649WAT     H280190   4.167   5.337   2.593
26650WAT      O80191   5.473   5.278   5.483
26650WAT     H180192   5.484   5.277   5.582
26650WAT     H280193   5.512   5.194   5.445
26651WAT      O80194   8.356   2.018   8.991
26651WAT     H180195   8.334   1.965   9.073
26651WAT     H280196   8.340   1.962   8.910
26652WAT      O80197   4.196   8.571   2.457
26652WAT     H180198   4.123   8.516   2.498
26652WAT     H280199   4.196   8.663   2.498
26653WAT      O80200   3.047   9.373   1.710
26653WAT     H180201   2.950   9.368   1.734
26653WAT     H280202   3.095   9.292   1.745
26654WAT      O80203   5.905   8.247   3.086
26654WAT     H180204   5.911   8.202   2.996
26654WAT     H280205   5.925   8.180   3.157
26655WAT      O80206   6.596   6.962   4.220
26655WAT     H180207   6.511   6.910   4.225
26655WAT     H280208   6.654   6.924   4.149
26656WAT      O80209   1.668   4.900   1.383
26656WAT     H180210   1.576   4.911   1.345
26656WAT     H280211   1.663   4.894   1.482
26657WAT      O80212   4.810   6.559   4.565
26657WAT     H180213   4.717   6.591   4.581
26657WAT     H280214   4.818   6.464   4.596
26658WAT      O80215   4.224   5.615   0.398
26658WAT     H180216   4.133   5.643   0.367
26658WAT     H280217   4.264   5.688   0.454
26659WAT      O80218   7.185   6.167   7.970
26659WAT     H180219   7.195   6.234   7.896
26659WAT     H280220   7.238   6.197   8.049
26660WAT      O80221   8.222   9.335   9.482
26660WAT     H180222   8.189   9.288   9.564
26660WAT     H280223   8.285   9.275   9.432
26661WAT      O80224   4.334   3.773   5.247
26661WAT     H180225   4.414   3.768   5.188
26661WAT     H280226   4.357   3.742   5.339
26662WAT      O80227   8.015   2.505   4.699
26662WAT     H180228   7.963   2.428   4.662
26662WAT     H280229   8.112   2.491   4.678
26663WAT      O80230   1.699   5.509   7.837
26663WAT     H180231   1.685   5.563   7.753
26663WAT     H280232   1.784   5.457   7.829
26664WAT      O80233   2.509   7.024   0.905
26664WAT     H180234   2.596   6.976   0.898
26664WAT     H280235   2.441   6.962   0.944
26665WAT      O80236   5.578   8.364   5.011
26665WAT     H180237   5.540   8.421   5.083
26665WAT     H280238   5.662   8.406   4.976
26666WAT      O80239   0.109   4.093   1.047
26666WAT     H180240   0.012   4.112   1.036
26666WAT     H280241   0.130   4.079   1.144
26667WAT      O80242   8.701   5.456   6.597
26667WAT     H180243   8.686   5.438   6.500
26667WAT     H280244   8.614   5.447   6.646
26668WAT      O80245   5.525   8.749   1.919
26668WAT     H180246   5.476   8.779   2.002
26668WAT     H280247   5.470   8.679   1.872
26669WAT      O80248   9.571   8.118   5.567
26669WAT     H180249   9.655   8.162   5.535
26669WAT     H280250   9.593   8.027   5.603
26670WAT      O80251   9.250   3.337   0.330
26670WAT     H180252   9.248   3.402   0.405
26670WAT     H280253   9.161   3.291   0.322
26671WAT      O80254   7.992   8.253   7.541
26671WAT     H180255   8.057   8.309   7.489
26671WAT     H280256   7.918   8.311   7.575
26672WAT      O80257   3.059   8.471   6.163
26672WAT     H180258   3.095   8.481   6.255
26672WAT     H280259   2.972   8.520   6.155
26673WAT      O80260   3.299   0.581   0.193
26673WAT     H180261   3.291   0.490   0.152
26673WAT     H280262   3.288   0.650   0.122
26674WAT      O80263   3.566   5.236   1.255
26674WAT     H180264   3.469   5.211   1.263
26674WAT     H280265   3.622   5.154   1.267
26675WAT      O80266   3.967   5.910   8.962
26675WAT     H180267   4.000   5.949   8.876
26675WAT     H280268   3.901   5.838   8.943
26676WAT      O80269   5.212   2.716   6.634
26676WAT     H180270   5.267   2.635   6.654
26676WAT     H280271   5.183   2.715   6.538
26677WAT      O80272   5.263   0.109   6.739
26677WAT     H180273   5.274   0.123   6.837
26677WAT     H280274   5.265   0.197   6.692
26678WAT      O80275   6.605   3.724   1.093
26678WAT     H180276   6.665   3.776   1.154
26678WAT     H280277   6.623   3.749   0.998
26679WAT      O80278   6.079   0.568   7.491
26679WAT     H180279   5.980   0.582   7.500
26679WAT     H280280   6.124   0.592   7.577
26680WAT      O80281   6.763   8.362   8.081
26680WAT     H180282   6.724   8.446   8.120
26680WAT     H280283   6.701   8.285   8.098
26681WAT      O80284   8.375   0.971   5.219
26681WAT     H180285   8.409   1.039   5.284
26681WAT     H280286   8.359   1.014   5.130
26682WAT      O80287   8.634   6.012   2.865
26682WAT     H180288   8.707   6.043   2.804
26682WAT     H280289   8.627   6.073   2.944
26683WAT      O80290   4.583   9.320   6.629
26683WAT     H180291   4.507   9.385   6.633
26683WAT     H280292   4.669   9.370   6.613
26684WAT      O80293   3.758   2.857   5.922
26684WAT     H180294   3.758   2.808   5.835
26684WAT     H280295   3.691   2.814   5.984
26685WAT      O80296   7.168   4.732   2.250
26685WAT     H180297   7.145   4.645   2.294
26685WAT     H280298   7.084   4.774   2.214
26686WAT      O80299   9.852   7.040   7.099
26686WAT     H180300   9.895   7.025   7.188
26686WAT     H280301   9.805   7.128   7.098
26687WAT      O80302   2.187   2.016   6.759
26687WAT     H180303   2.100   2.042   6.717
26687WAT     H280304   2.170   1.950   6.832
26688WAT      O80305   3.863   8.424   5.409
26688WAT     H180306   3.949   8.459   5.446
26688WAT     H280307   3.882   8.346   5.349
26689WAT      O80308   1.794   3.028   5.636
26689WAT     H180309   1.800   3.016   5.537
26689WAT     H280310   1.714   3.084   5.657
26690WAT      O80311   9.537   7.390   3.608
26690WAT     H180312   9.624   7.407   3.561
26690WAT     H280313   9.466   7.372   3.539
26691WAT      O80314   8.821   4.022   7.761
26691WAT     H180315   8.744   3.961   7.782
26691WAT     H280316   8.871   3.987   7.682
26692WAT      O80317   7.469   6.777   6.783
26692WAT     H180318   7.438   6.870   6.802
26692WAT     H280319   7.447   6.718   6.861
26693WAT      O80320   6.107   7.824   2.882
26693WAT     H180321   6.183   7.888   2.887
26693WAT     H280322   6.034   7.862   2.824
26694WAT      O80323   9.022   5.870   7.452
26694WAT     H180324   9.075   5.940   7.499
26694WAT     H280325   9.083   5.809   7.403
26695WAT      O80326   3.117   1.545   5.720
26695WAT     H180327   3.018   1.550   5.709
26695WAT     H280328   3.151   1.630   5.759
26696WAT      O80329   6.020   1.659   1.297
26696WAT     H180330   5.961   1.710   1.234
26696WAT     H280331   6.011   1.696   1.389
26697WAT      O80332   2.305   7.978   8.275
26697WAT     H180333   2.225   8.008   8.328
26697WAT     H280334   2.282   7.975   8.178
26698WAT      O80335   1.710   2.172   8.755
26698WAT     H180336   1.670   2.161   8.664
26698WAT     H280337   1.716   2.269   8.778
26699WAT      O80338   9.839   6.544   1.626
26699WAT     H180339   9.924   6.586   1.658
26699WAT     H280340   9.817   6.580   1.536
26700WAT      O80341   5.172   7.004   5.604
26700WAT     H180342   5.148   6.908   5.588
26700WAT     H280343   5.120   7.062   5.541
26701WAT      O80344   4.308   5.481   6.975
26701WAT     H180345   4.265   5.562   6.935
26701WAT     H280346   4.395   5.463   6.929
26702WAT      O80347   7.176   2.473   9.312
26702WAT     H180348   7.213   2.472   9.405
26702WAT     H280349   7.246   2.438   9.249
26703WAT      O80350   5.867   8.997   6.767
26703WAT     H180351   5.954   8.951   6.748
26703WAT     H280352   5.797   8.929   6.787
26704WAT      O80353   3.014   2.249   1.328
26704WAT     H180354   3.069   2.284   1.252
26704WAT     H280355   2.939   2.192   1.292
26705WAT      O80356   4.680   7.879   3.841
26705WAT     H180357   4.735   7.876   3.758
26705WAT     H280358   4.588   7.845   3.821
26706WAT      O80359   3.189   5.481   6.793
26706WAT     H180360   3.130   5.492   6.873
26706WAT     H280361   3.269   5.539   6.802
26707WAT      O80362   0.927   4.615   4.104
26707WAT     H180363   1.003   4.550   4.108
26707WAT     H280364   0.876   4.611   4.190
26708WAT      O80365   4.231   9.769   4.999
26708WAT     H180366   4.304   9.804   5.059
26708WAT     H280367   4.151   9.747   5.054
26709WAT      O80368   3.001   1.927   8.399
26709WAT     H180369   2.957   1.965   8.480
26709WAT     H280370   3.050   1.843   8.425
26710WAT      O80371   6.338   2.845   9.620
26710WAT     H180372   6.431   2.838   9.584
26710WAT     H280373   6.289   2.760   9.604
26711WAT      O80374   9.396   1.299   5.233
26711WAT     H180375   9.444   1.377   5.192
26711WAT     H280376   9.299   1.305   5.212
26712WAT      O80377   9.767   5.403   4.624
26712WAT     H180378   9.685   5.383   4.572
26712WAT     H280379   9.837   5.441   4.563
26713WAT      O80380   0.940   3.122   0.677
26713WAT     H180381   0.847   3.085   0.682
26713WAT     H280382   1.006   3.048   0.690
26714WAT      O80383   8.865   3.418   4.774
26714WAT     H180384   8.880   3.517   4.767
26714WAT     H280385   8.869   3.377   4.683
26715WAT      O80386   4.810   7.158   7.386
26715WAT     H180387   4.828   7.095   7.461
26715WAT     H280388   4.753   7.234   7.419
26716WAT      O80389   8.956   4.488   1.558
26716WAT     H180390   8.912   4.547   1.626
26716WAT     H280391   9.041   4.452   1.595
26717WAT      O80392   2.888   3.926   6.085
26717WAT     H180393   2.952   3.858   6.050
26717WAT     H280394   2.801   3.920   6.035
26718WAT      O80395   0.832   6.875   6.917
26718WAT     H180396   0.921   6.864   6.963
26718WAT     H280397   0.807   6.788   6.873
26719WAT      O80398   8.552   7.507   8.959
26719WAT     H180399   8.535   7.466   8.869
26719WAT     H280400   8.563   7.606   8.948
26720WAT      O80401   4.450   7.836   5.495
26720WAT     H180402   4.419   7.824   5.401
26720WAT     H280403   4.508   7.917   5.501
26721WAT      O80404   0.176   4.701   9.577
26721WAT     H180405   0.160   4.671   9.483
26721WAT     H280406   0.244   4.775   9.578
26722WAT      O80407   3.204   3.767   7.939
26722WAT     H180408   3.169   3.782   7.847
26722WAT     H280409   3.262   3.843   7.966
26723WAT      O80410   6.706   4.697   6.258
26723WAT     H180411   6.746   4.784   6.228
26723WAT     H280412   6.627   4.675   6.201
26724WAT      O80413   4.062   7.552   9.773
26724WAT     H180414   4.152   7.523   9.806
26724WAT     H280415   4.074   7.619   9.699
26725WAT      O80416   1.625   0.152   1.885
26725WAT     H180417   1.539   0.203   1.889
26725WAT     H280418   1.607   0.055   1.896
26726WAT      O80419   8.626   0.879   6.543
26726WAT     H180420   8.546   0.911   6.594
26726WAT     H280421   8.671   0.957   6.500
26727WAT      O80422   8.452   3.900   9.254
26727WAT     H180423   8.387   3.975   9.267
26727WAT     H280424   8.545   3.932   9.274
26728WAT      O80425   3.175   8.656   7.525
26728WAT     H180426   3.244   8.728   7.515
26728WAT     H280427   3.086   8.697   7.544
26729WAT      O80428   9.052   8.849   4.481
26729WAT     H180429   9.028   8.769   4.427
26729WAT     H280430   9.116   8.823   4.553
26730WAT      O80431   8.446   9.268   4.893
26730WAT     H180432   8.527   9.326   4.902
26730WAT     H280433   8.409   9.275   4.801
26731WAT      O80434   1.065   2.128   0.047
26731WAT     H180435   1.148   2.116   0.101
26731WAT     H280436   1.015   2.207   0.079
26732WAT      O80437   0.584   6.175   1.736
26732WAT     H180438   0.671   6.221   1.718
26732WAT     H280439   0.509   6.233   1.706
26733WAT      O80440   7.372   8.986   6.766
26733WAT     H180441   7.342   8.952   6.856
26733WAT     H280442   7.299   9.042   6.726
26734WAT      O80443   3.613   3.285   4.853
26734WAT     H180444   3.615   3.234   4.767
26734WAT     H280445   3.548   3.242   4.915
26735WAT      O80446   6.952   7.610   5.303
26735WAT     H180447   7.032   7.642   5.354
26735WAT     H280448   6.869   7.629   5.356
26736WAT      O80449   6.508   9.392   6.722
26736WAT     H180450   6.444   9.325   6.684
26736WAT     H280451   6.461   9.446   6.791
26737WAT      O80452   8.101   1.794   1.405
26737WAT     H180453   8.071   1.713   1.356
26737WAT     H280454   8.035   1.816   1.477
26738WAT      O80455   3.219   1.070   2.143
26738WAT     H180456   3.282   1.055   2.219
26738WAT     H280457   3.219   0.989   2.084
26739WAT      O80458   5.532   5.401   5.015
26739WAT     H180459   5.618   5.442   5.047
26739WAT     H280460   5.455   5.456   5.048
26740WAT      O80461   6.904   9.202   5.660
26740WAT     H180462   6.961   9.131   5.700
26740WAT     H280463   6.951   9.290   5.666
26741WAT      O80464   5.007   3.613   5.054
26741WAT     H180465   4.978   3.545   5.122
26741WAT     H280466   5.105   3.604   5.038
26742WAT      O80467   5.227   5.575   1.277
26742WAT     H180468   5.326   5.584   1.282
26742WAT     H280469   5.188   5.660   1.241
26743WAT      O80470   3.231   0.292   6.818
26743WAT     H180471   3.227   0.272   6.916
26743WAT     H280472   3.177   0.374   6.798
26744WAT      O80473   5.387   1.590   5.796
26744WAT     H180474   5.292   1.613   5.777
26744WAT     H280475   5.399   1.578   5.895
26745WAT      O80476   3.240   7.674   0.207
26745WAT     H180477   3.180   7.746   0.172
26745WAT     H280478   3.298   7.640   0.133
26746WAT      O80479   6.117   6.581   0.808
26746WAT     H180480   6.018   6.577   0.823
26746WAT     H280481   6.150   6.674   0.823
26747WAT      O80482   1.488   8.689   9.838
26747WAT     H180483   1.451   8.603   9.804
26747WAT     H280484   1.570   8.672   9.893
26748WAT      O80485   7.799   3.657   5.472
26748WAT     H180486   7.776   3.614   5.560
26748WAT     H280487   7.887   3.623   5.440
26749WAT      O80488   6.656   2.664   7.090
26749WAT     H180489   6.644   2.673   7.189
26749WAT     H280490   6.653   2.567   7.065
26750WAT      O80491   1.899   3.392   3.636
26750WAT     H180492   1.921   3.329   3.710
26750WAT     H280493   1.850   3.343   3.564
26751WAT      O80494   5.848   9.069   2.526
26751WAT     H180495   5.758   9.111   2.539
26751WAT     H280496   5.907   9.092   2.603
26752WAT      O80497   1.963   1.701   9.798
26752WAT     H180498   1.948   1.769   9.869
26752WAT     H280499   1.993   1.746   9.714
26753WAT      O80500   4.470   2.661   3.670
26753WAT     H180501   4.478   2.585   3.605
26753WAT     H280502   4.461   2.747   3.620
26754WAT      O80503   5.070   8.704   4.684
26754WAT     H180504   5.033   8.780   4.630
26754WAT     H280505   5.066   8.729   4.781
26755WAT      O80506   6.955   6.702   5.727
26755WAT     H180507   6.964   6.792   5.684
26755WAT     H280508   6.860   6.672   5.721
26756WAT      O80509   9.645   9.417   0.267
26756WAT     H180510   9.562   9.469   0.288
26756WAT     H280511   9.620   9.327   0.230
26757WAT      O80512   4.696   8.001   6.168
26757WAT     H180513   4.635   8.075   6.141
26757WAT     H280514   4.791   8.032   6.160
26758WAT      O80515   4.998   7.778   1.686
26758WAT     H180516   5.044   7.742   1.605
26758WAT     H280517   5.047   7.860   1.718
26759WAT      O80518   9.007   5.709   0.981
26759WAT     H180519   8.964   5.664   0.903
26759WAT     H280520   9.085   5.763   0.949
26760WAT      O80521   8.725   1.191   5.059
26760WAT     H180522   8.680   1.147   5.137
26760WAT     H280523   8.822   1.202   5.079
26761WAT      O80524   2.163   2.812   3.657
26761WAT     H180525   2.204   2.891   3.702
26761WAT     H280526   2.113   2.757   3.724
26762WAT      O80527   7.984   1.865   9.144
26762WAT     H180528   8.077   1.829   9.133
26762WAT     H280529   7.962   1.922   9.065
26763WAT      O80530   3.572   2.817   9.778
26763WAT     H180531   3.670   2.809   9.762
26763WAT     H280532   3.523   2.817   9.691
26764WAT      O80533   8.787   6.725   6.071
26764WAT     H180534   8.834   6.638   6.058
26764WAT     H280535   8.839   6.781   6.136
26765WAT      O80536   9.277   8.740   2.543
26765WAT     H180537   9.278   8.728   2.642
26765WAT     H280538   9.322   8.826   2.519
26766WAT      O80539   3.291   9.179   2.384
26766WAT     H180540   3.197   9.170   2.417
26766WAT     H280541   3.319   9.275   2.390
26767WAT      O80542   1.520   1.869   3.397
26767WAT     H180543   1.421   1.858   3.388
26767WAT     H280544   1.539   1.930   3.474
26768WAT      O80545   0.441   1.719   8.934
26768WAT     H180546   0.537   1.694   8.917
26768WAT     H280547   0.426   1.813   8.903
26769WAT      O80548   5.131   1.868   6.033
26769WAT     H180549   5.053   1.867   6.096
26769WAT     H280550   5.126   1.789   5.972
26770WAT      O80551   9.818   4.094   6.587
26770WAT     H180552   9.727   4.119   6.620
26770WAT     H280553   9.810   4.044   6.501
26771WAT      O80554   1.563   8.302   1.765
26771WAT     H180555   1.624   8.227   1.739
26771WAT     H280556   1.597   8.387   1.724
26772WAT      O80557   8.176   8.124   7.225
26772WAT     H180558   8.158   8.221   7.213
26772WAT     H280559   8.137   8.092   7.311
26773WAT      O80560   8.497   7.542   1.901
26773WAT     H180561   8.404   7.532   1.866
26773WAT     H280562   8.500   7.619   1.965
26774WAT      O80563   8.485   5.171   8.980
26774WAT     H180564   8.390   5.181   9.009
26774WAT     H280565   8.518   5.079   9.005
26775WAT      O80566   6.582   5.448   8.373
26775WAT     H180567   6.674   5.412   8.356
26775WAT     H280568   6.521   5.372   8.395
26776WAT      O80569   4.408   8.295   9.679
26776WAT     H180570   4.419   8.340   9.767
26776WAT     H280571   4.314   8.305   9.647
26777WAT      O80572   0.236   5.906   3.447
26777WAT     H180573   0.189   5.863   3.524
26777WAT     H280574   0.319   5.951   3.479
26778WAT      O80575   0.634   1.639   6.839
26778WAT     H180576   0.650   1.734   6.865
26778WAT     H280577   0.719   1.587   6.849
26779WAT      O80578   3.522   2.818   4.792
26779WAT     H180579   3.494   2.729   4.756
26779WAT     H280580   3.538   2.811   4.890
26780WAT      O80581   0.421   4.617   6.916
26780WAT     H180582   0.480   4.678   6.968
26780WAT     H280583   0.343   4.591   6.972
26781WAT      O80584   7.607   8.655   0.872
26781WAT     H180585   7.595   8.612   0.961
26781WAT     H280586   7.615   8.754   0.884
26782WAT      O80587   2.063   0.256   9.197
26782WAT     H180588   2.127   0.332   9.181
26782WAT     H280589   1.997   0.253   9.122
26783WAT      O80590   0.063   3.459   8.096
26783WAT     H180591   0.021   3.389   8.038
26783WAT     H280592   0.154   3.481   8.061
26784WAT      O80593   4.852   6.856   0.058
26784WAT     H180594   4.826   6.761   0.043
26784WAT     H280595   4.931   6.878   0.000
26785WAT      O80596   6.962   4.167   6.798
26785WAT     H180597   6.950   4.247   6.858
26785WAT     H280598   6.983   4.087   6.854
26786WAT      O80599   3.692   4.468   8.992
26786WAT     H180600   3.666   4.551   9.042
26786WAT     H280601   3.645   4.389   9.031
26787WAT      O80602   4.945   0.874   0.411
26787WAT     H180603   4.891   0.916   0.338
26787WAT     H280604   4.963   0.778   0.387
26788WAT      O80605   5.536   5.714   6.270
26788WAT     H180606   5.500   5.650   6.202
26788WAT     H280607   5.490   5.803   6.260
26789WAT      O80608   0.449   0.284   2.164
26789WAT     H180609   0.418   0.355   2.102
26789WAT     H280610   0.475   0.203   2.111
26790WAT      O80611   4.236   3.436   3.107
26790WAT     H180612   4.175   3.372   3.154
26790WAT     H280613   4.204   3.451   3.014
26791WAT      O80614   4.528   0.598   9.656
26791WAT     H180615   4.450   0.660   9.648
26791WAT     H280616   4.604   0.646   9.699
26792WAT      O80617   1.453   4.643   5.586
26792WAT     H180618   1.496   4.726   5.550
26792WAT     H280619   1.420   4.659   5.678
26793WAT      O80620   8.012   0.891   0.359
26793WAT     H180621   7.992   0.805   0.405
26793WAT     H280622   7.932   0.920   0.306
26794WAT      O80623   8.713   7.149   0.076
26794WAT     H180624   8.768   7.156   0.159
26794WAT     H280625   8.767   7.108   0.003
26795WAT      O80626   9.280   8.278   8.525
26795WAT     H180627   9.228   8.363   8.538
26795WAT     H280628   9.361   8.297   8.469
26796WAT      O80629   0.825   0.938   6.733
26796WAT     H180630   0.924   0.926   6.741
26796WAT     H280631   0.801   0.956   6.638
26797WAT      O80632   8.644   5.900   3.325
26797WAT     H180633   8.706   5.858   3.259
26797WAT     H280634   8.696   5.954   3.391
26798WAT      O80635   8.716   1.615   5.368
26798WAT     H180636   8.766   1.537   5.331
26798WAT     H280637   8.748   1.634   5.460
26799WAT      O80638   0.099   5.037   8.400
26799WAT     H180639   0.126   5.089   8.481
26799WAT     H280640   0.139   4.946   8.403
26800WAT      O80641   4.004   0.655   9.499
26800WAT     H180642   4.087   0.712   9.496
26800WAT     H280643   3.995   0.605   9.414
26801WAT      O80644   9.272   6.965   6.361
26801WAT     H180645   9.231   7.045   6.406
26801WAT     H280646   9.312   6.993   6.274
26802WAT      O80647   1.060   0.036   2.166
26802WAT     H180648   1.018   0.119   2.204
26802WAT     H280649   0.998  -0.003   2.097
26803WAT      O80650   8.965   1.952   2.343
26803WAT     H180651   8.959   2.051   2.340
26803WAT     H280652   8.880   1.914   2.379
26804WAT      O80653   6.650   4.471   8.560
26804WAT     H180654   6.655   4.404   8.635
26804WAT     H280655   6.564   4.460   8.511
26805WAT      O80656   9.810   7.737   8.442
26805WAT     H180657   9.900   7.712   8.405
26805WAT     H280658   9.760   7.654   8.467
26806WAT      O80659   2.871   2.442   4.467
26806WAT     H180660   2.804   2.367   4.464
26806WAT     H280661   2.955   2.413   4.421
26807WAT      O80662   8.022   4.741   6.500
26807WAT     H180663   8.055   4.658   6.544
26807WAT     H280664   8.065   4.750   6.410
26808WAT      O80665   2.612   0.604   0.025
26808WAT     H180666   2.551   0.569   0.096
26808WAT     H280667   2.559   0.622  -0.059
26809WAT      O80668   6.081   2.117   7.641
26809WAT     H180669   6.098   2.178   7.719
26809WAT     H280670   6.028   2.166   7.572
26810WAT      O80671   9.217   1.588   9.480
26810WAT     H180672   9.253   1.498   9.454
26810WAT     H280673   9.138   1.610   9.423
26811WAT      O80674   2.654   6.120   2.903
26811WAT     H180675   2.713   6.068   2.965
26811WAT     H280676   2.699   6.207   2.880
26812WAT      O80677   5.465   1.237   1.254
26812WAT     H180678   5.407   1.292   1.194
26812WAT     H280679   5.410   1.168   1.300
26813WAT      O80680   4.850   6.206   8.132
26813WAT     H180681   4.876   6.156   8.215
26813WAT     H280682   4.880   6.154   8.052
26814WAT      O80683   1.162   1.282   7.996
26814WAT     H180684   1.171   1.371   8.041
26814WAT     H280685   1.066   1.254   7.997
26815WAT      O80686   0.660   6.593   9.675
26815WAT     H180687   0.682   6.655   9.600
26815WAT     H280688   0.737   6.532   9.692
26816WAT      O80689   1.321   3.811   4.378
26816WAT     H180690   1.382   3.761   4.316
26816WAT     H280691   1.345   3.789   4.473
26817WAT      O80692   6.403   9.024   7.704
26817WAT     H180693   6.304   9.025   7.711
26817WAT     H280694   6.442   9.025   7.797
26818WAT      O80695   7.813   5.779   0.712
26818WAT     H180696   7.855   5.712   0.773
26818WAT     H280697   7.735   5.821   0.757
26819WAT      O80698   3.097   9.672   1.167
26819WAT     H180699   3.144   9.701   1.083
26819WAT     H280700   3.150   9.601   1.212
26820WAT      O80701   2.678   1.130   9.192
26820WAT     H180702   2.760   1.088   9.231
26820WAT     H280703   2.607   1.060   9.180
26821WAT      O80704   8.643   2.956   3.988
26821WAT     H180705   8.621   2.915   3.900
26821WAT     H280706   8.602   3.047   3.994
26822WAT      O80707   1.329   8.452   9.785
26822WAT     H180708   1.395   8.383   9.816
26822WAT     H280709   1.246   8.446   9.840
26823WAT      O80710   1.023   2.756   4.221
26823WAT     H180711   1.047   2.851   4.198
26823WAT     H280712   1.063   2.731   4.308
26824WAT      O80713   5.641   2.920   5.001
26824WAT     H180714   5.609   3.010   4.972
26824WAT     H280715   5.630   2.911   5.100
26825WAT      O80716   0.840   0.028   9.746
26825WAT     H180717   0.871   0.004   9.654
26825WAT     H280718   0.918   0.038   9.807
26826WAT      O80719   3.968   5.509   0.810
26826WAT     H180720   3.872   5.526   0.832
26826WAT     H280721   3.986   5.538   0.716
26827WAT      O80722   7.937   9.493   3.374
26827WAT     H180723   7.838   9.493   3.363
26827WAT     H280724   7.980   9.447   3.297
26828WAT      O80725   5.563   5.318   9.219
26828WAT     H180726   5.476   5.298   9.174
26828WAT     H280727   5.585   5.415   9.209
26829WAT      O80728   5.466   0.976   2.903
26829WAT     H180729   5.393   0.994   2.969
26829WAT     H280730   5.555   0.978   2.949
26830WAT      O80731   3.058   0.388   6.435
26830WAT     H180732   3.056   0.475   6.485
26830WAT     H280733   3.055   0.312   6.500
26831WAT      O80734   6.234   5.215   1.800
26831WAT     H180735   6.155   5.239   1.857
26831WAT     H280736   6.232   5.270   1.716
26832WAT      O80737   7.516   4.344   0.972
26832WAT     H180738   7.475   4.434   0.957
26832WAT     H280739   7.444   4.279   1.000
26833WAT      O80740   7.367   4.167   8.340
26833WAT     H180741   7.405   4.240   8.398
26833WAT     H280742   7.441   4.110   8.306
26834WAT      O80743   3.246   1.949   8.663
26834WAT     H180744   3.227   1.971   8.759
26834WAT     H280745   3.206   1.860   8.641
26835WAT      O80746   3.184   5.674   2.577
26835WAT     H180747   3.209   5.717   2.664
26835WAT     H280748   3.174   5.745   2.507
26836WAT      O80749   0.142   6.199   2.429
26836WAT     H180750   0.156   6.278   2.370
26836WAT     H280751   0.153   6.226   2.525
26837WAT      O80752   1.112   8.471   3.398
26837WAT     H180753   1.054   8.534   3.347
26837WAT     H280754   1.134   8.392   3.340
26838WAT      O80755   2.111   0.765   3.549
26838WAT     H180756   2.053   0.758   3.630
26838WAT     H280757   2.206   0.778   3.577
26839WAT      O80758   9.764   0.866   8.863
26839WAT     H180759   9.724   0.872   8.771
26839WAT     H280760   9.701   0.908   8.928
26840WAT      O80761   1.144   8.399   4.855
26840WAT     H180762   1.116   8.304   4.866
26840WAT     H280763   1.067   8.453   4.822
26841WAT      O80764   9.387   2.521   1.994
26841WAT     H180765   9.313   2.578   1.959
26841WAT     H280766   9.463   2.579   2.024
26842WAT      O80767   3.253   5.380   7.345
26842WAT     H180768   3.293   5.325   7.418
26842WAT     H280769   3.158   5.403   7.369
26843WAT      O80770   8.206   1.685   2.005
26843WAT     H180771   8.295   1.660   1.967
26843WAT     H280772   8.198   1.649   2.098
26844WAT      O80773   2.310   5.430   0.803
26844WAT     H180774   2.346   5.518   0.771
26844WAT     H280775   2.242   5.396   0.737
26845WAT      O80776   6.849   7.403   8.150
26845WAT     H180777   6.906   7.321   8.157
26845WAT     H280778   6.760   7.378   8.111
26846WAT      O80779   0.002   0.393   4.924
26846WAT     H180780   0.045   0.438   5.002
26846WAT     H280781   0.058   0.407   4.843
26847WAT      O80782   4.143   7.776   3.485
26847WAT     H180783   4.046   7.788   3.506
26847WAT     H280784   4.177   7.857   3.438
26848WAT      O80785   6.853   4.034   5.190
26848WAT     H180786   6.825   4.130   5.196
26848WAT     H280787   6.877   4.001   5.282
26849WAT      O80788   5.679   3.647   2.303
26849WAT     H180789   5.646   3.603   2.386
26849WAT     H280790   5.778   3.632   2.294
26850WAT      O80791   3.632   4.325   9.615
26850WAT     H180792   3.552   4.316   9.673
26850WAT     H280793   3.662   4.421   9.615
26851WAT      O80794   2.013   6.851   2.980
26851WAT     H180795   1.940   6.903   2.937
26851WAT     H280796   2.044   6.898   3.063
26852WAT      O80797   1.861   4.268   1.508
26852WAT     H180798   1.851   4.208   1.428
26852WAT     H280799   1.812   4.354   1.491
26853WAT      O80800   1.098   2.640   1.118
26853WAT     H180801   1.053   2.587   1.046
26853WAT     H280802   1.105   2.584   1.200
26854WAT      O80803   9.402   3.188   5.419
26854WAT     H180804   9.329   3.194   5.351
26854WAT     H280805   9.490   3.211   5.377
26855WAT      O80806   5.050   2.370   7.018
26855WAT     H180807   5.120   2.385   6.948
26855WAT     H280808   5.050   2.448   7.082
26856WAT      O80809   1.883   9.209   1.052
26856WAT     H180810   1.979   9.218   1.027
26856WAT     H280811   1.874   9.203   1.151
26857WAT      O80812   3.932   5.615   7.210
26857WAT     H180813   3.839   5.589   7.236
26857WAT     H280814   3.950   5.583   7.117
26858WAT      O80815   7.247   5.582   7.520
26858WAT     H180816   7.277   5.635   7.599
26858WAT     H280817   7.153   5.551   7.534
26859WAT      O80818   5.935   5.377   1.214
26859WAT     H180819   5.976   5.289   1.188
26859WAT     H280820   6.005   5.448   1.214
26860WAT      O80821   1.980   6.681   0.229
26860WAT     H180822   2.029   6.615   0.286
26860WAT     H280823   1.907   6.723   0.282
26861WAT      O80824   9.597   0.190   1.396
26861WAT     H180825   9.518   0.251   1.397
26861WAT     H280826   9.570   0.100   1.430
26862WAT      O80827   2.576   7.743   9.388
26862WAT     H180828   2.557   7.826   9.335
26862WAT     H280829   2.643   7.764   9.458
26863WAT      O80830   1.737   8.759   4.098
26863WAT     H180831   1.734   8.763   4.198
26863WAT     H280832   1.776   8.672   4.069
26864WAT      O80833   4.933   5.846   8.158
26864WAT     H180834   4.925   5.922   8.092
26864WAT     H280835   4.884   5.767   8.122
26865WAT      O80836   9.660   7.600   6.921
26865WAT     H180837   9.598   7.530   6.957
26865WAT     H280838   9.728   7.624   6.991
26866WAT      O80839   6.612   7.585   6.730
26866WAT     H180840   6.667   7.649   6.676
26866WAT     H280841   6.665   7.553   6.808
26867WAT      O80842   5.451   9.368   7.218
26867WAT     H180843   5.530   9.403   7.167
26867WAT     H280844   5.389   9.443   7.239
26868WAT      O80845   5.530   1.907   1.521
26868WAT     H180846   5.469   1.957   1.583
26868WAT     H280847   5.620   1.950   1.521
26869WAT      O80848   7.362   5.870   1.907
26869WAT     H180849   7.454   5.894   1.937
26869WAT     H280850   7.365   5.833   1.814
26870WAT      O80851   3.855   2.170   6.018
26870WAT     H180852   3.797   2.224   6.078
26870WAT     H280853   3.839   2.198   5.923
26871WAT      O80854   7.989   8.819   7.092
26871WAT     H180855   8.077   8.866   7.078
26871WAT     H280856   7.965   8.769   7.008
26872WAT      O80857   1.210   9.093   2.076
26872WAT     H180858   1.247   9.055   2.161
26872WAT     H280859   1.166   9.180   2.095
26873WAT      O80860   9.678   0.773   4.355
26873WAT     H180861   9.777   0.756   4.357
26873WAT     H280862   9.638   0.728   4.275
26874WAT      O80863   1.569   9.155   3.992
26874WAT     H180864   1.567   9.056   4.003
26874WAT     H280865   1.617   9.196   4.070
26875WAT      O80866   1.656   5.236   1.407
26875WAT     H180867   1.584   5.250   1.339
26875WAT     H280868   1.629   5.161   1.468
26876WAT      O80869   5.875   6.435   4.933
26876WAT     H180870   5.932   6.478   5.003
26876WAT     H280871   5.888   6.336   4.936
26877WAT      O80872   5.454   9.771   0.173
26877WAT     H180873   5.510   9.854   0.180
26877WAT     H280874   5.479   9.720   0.091
26878WAT      O80875   7.428   4.695   6.868
26878WAT     H180876   7.485   4.761   6.917
26878WAT     H280877   7.346   4.674   6.921
26879WAT      O80878   8.859   6.972   3.678
26879WAT     H180879   8.785   6.907   3.661
26879WAT     H280880   8.842   7.057   3.627
26880WAT      O80881   2.162   7.903   7.650
26880WAT     H180882   2.158   7.986   7.706
26880WAT     H280883   2.253   7.896   7.609
26881WAT      O80884   3.935   4.803   8.108
26881WAT     H180885   3.850   4.855   8.116
26881WAT     H280886   3.938   4.732   8.179
26882WAT      O80887   3.927   1.645   2.993
26882WAT     H180888   3.977   1.657   2.907
26882WAT     H280889   3.848   1.707   2.995
26883WAT      O80890   3.480   4.238   7.181
26883WAT     H180891   3.517   4.269   7.093
26883WAT     H280892   3.430   4.152   7.167
26884WAT      O80893   9.445   5.488   9.340
26884WAT     H180894   9.447   5.396   9.299
26884WAT     H280895   9.533   5.532   9.327
26885WAT      O80896   6.441   0.268   2.917
26885WAT     H180897   6.390   0.326   2.854
26885WAT     H280898   6.407   0.281   3.010
26886WAT      O80899   5.895   4.013   0.548
26886WAT     H180900   5.892   4.062   0.461
26886WAT     H280901   5.916   4.078   0.621
26887WAT      O80902   2.301   4.436   7.664
26887WAT     H180903   2.269   4.472   7.577
26887WAT     H280904   2.308   4.336   7.659
26888WAT      O80905   8.295   7.205   2.304
26888WAT     H180906   8.209   7.227   2.349
26888WAT     H280907   8.371   7.225   2.366
26889WAT      O80908   8.077   9.212   4.152
26889WAT     H180909   8.041   9.302   4.126
26889WAT     H280910   8.046   9.189   4.244
26890WAT      O80911   2.583   9.015   7.229
26890WAT     H180912   2.489   9.000   7.260
26890WAT     H280913   2.599   8.962   7.145
26891WAT      O80914   6.087   0.206   5.456
26891WAT     H180915   6.067   0.254   5.371
26891WAT     H280916   6.082   0.107   5.441
26892WAT      O80917   8.222   8.544   1.553
26892WAT     H180918   8.222   8.644   1.561
26892WAT     H280919   8.163   8.505   1.624
26893WAT      O80920   3.558   5.744   2.620
26893WAT     H180921   3.544   5.825   2.563
26893WAT     H280922   3.592   5.669   2.562
26894WAT      O80923   4.588   6.074   4.516
26894WAT     H180924   4.514   6.140   4.536
26894WAT     H280925   4.548   5.990   4.480
26895WAT      O80926   8.381   5.786   3.025
26895WAT     H180927   8.407   5.778   3.122
26895WAT     H280928   8.325   5.868   3.012
26896WAT      O80929   0.775   9.205   9.684
26896WAT     H180930   0.715   9.268   9.732
26896WAT     H280931   0.791   9.238   9.591
26897WAT      O80932   9.613   6.029   8.454
26897WAT     H180933   9.619   6.061   8.359
26897WAT     H280934   9.701   6.042   8.499
26898WAT      O80935   6.874   1.173   9.255
26898WAT     H180936   6.926   1.253   9.285
26898WAT     H280937   6.784   1.173   9.299
26899WAT      O80938   5.606   4.250   1.623
26899WAT     H180939   5.644   4.173   1.675
26899WAT     H280940   5.637   4.245   1.529
26900WAT      O80941   1.119   2.902   9.245
26900WAT     H180942   1.214   2.871   9.248
26900WAT     H280943   1.086   2.898   9.150
26901WAT      O80944   3.560   1.538   3.228
26901WAT     H180945   3.562   1.554   3.130
26901WAT     H280946   3.644   1.492   3.256
26902WAT      O80947   1.707   0.386   5.453
26902WAT     H180948   1.728   0.341   5.540
26902WAT     H280949   1.640   0.458   5.468
26903WAT      O80950   1.958   9.155   3.361
26903WAT     H180951   1.872   9.169   3.311
26903WAT     H280952   2.035   9.170   3.299
26904WAT      O80953   8.967   1.760   0.152
26904WAT     H180954   9.051   1.716   0.117
26904WAT     H280955   8.964   1.753   0.251
26905WAT      O80956   5.029   0.780   2.321
26905WAT     H180957   4.956   0.843   2.294
26905WAT     H280958   5.072   0.813   2.405
26906WAT      O80959   8.030   4.716   9.777
26906WAT     H180960   7.981   4.728   9.691
26906WAT     H280961   7.976   4.661   9.839
26907WAT      O80962   4.601   5.116   9.713
26907WAT     H180963   4.538   5.172   9.766
26907WAT     H280964   4.607   5.024   9.752
26908WAT      O80965   2.721   6.220   0.970
26908WAT     H180966   2.794   6.256   1.029
26908WAT     H280967   2.750   6.227   0.874
26909WAT      O80968   9.770   4.569   0.096
26909WAT     H180969   9.778   4.664   0.125
26909WAT     H280970   9.750   4.512   0.176
26910WAT      O80971   8.764   4.109   1.689
26910WAT     H180972   8.733   4.056   1.769
26910WAT     H280973   8.797   4.046   1.619
26911WAT      O80974   6.204   4.223   9.132
26911WAT     H180975   6.194   4.175   9.045
26911WAT     H280976   6.113   4.238   9.172
26912WAT      O80977   0.745   6.162   3.829
26912WAT     H180978   0.791   6.074   3.839
26912WAT     H280979   0.720   6.176   3.734
26913WAT      O80980   7.086   3.859   6.415
26913WAT     H180981   7.147   3.938   6.421
26913WAT     H280982   7.088   3.809   6.502
26914WAT      O80983   8.718   1.060   3.146
26914WAT     H180984   8.654   1.136   3.144
26914WAT     H280985   8.716   1.012   3.058
26915WAT      O80986   8.054   9.445   4.010
26915WAT     H180987   8.124   9.433   3.939
26915WAT     H280988   8.057   9.538   4.046
26916WAT      O80989   9.398   7.732   7.219
26916WAT     H180990   9.399   7.719   7.120
26916WAT     H280991   9.424   7.645   7.263
26917WAT      O80992   7.686   0.001   5.867
26917WAT     H180993   7.671   0.100   5.866
26917WAT     H280994   7.646  -0.038   5.950
26918WAT      O80995   3.839   6.497   5.211
26918WAT     H180996   3.934   6.508   5.183
26918WAT     H280997   3.832   6.424   5.279
26919WAT      O80998   9.203   5.124   8.416
26919WAT     H180999   9.234   5.217   8.397
26919WAT     H281000   9.247   5.061   8.352
26920WAT      O81001   6.460   3.605   8.802
26920WAT     H181002   6.472   3.519   8.752
26920WAT     H281003   6.362   3.626   8.807
26921WAT      O81004   1.847   7.071   0.420
26921WAT     H181005   1.817   7.110   0.507
26921WAT     H281006   1.818   7.130   0.345
26922WAT      O81007   4.306   2.832   4.837
26922WAT     H181008   4.250   2.752   4.814
26922WAT     H281009   4.361   2.858   4.758
26923WAT      O81010   9.705   3.658   5.278
26923WAT     H181011   9.789   3.711   5.267
26923WAT     H281012   9.727   3.568   5.316
26924WAT      O81013   3.959   1.528   9.095
26924WAT     H181014   3.881   1.537   9.033
26924WAT     H281015   3.977   1.616   9.138
26925WAT      O81016   0.731   3.349   7.449
26925WAT     H181017   0.812   3.321   7.501
26925WAT     H281018   0.688   3.427   7.495
26926WAT      O81019   0.152   7.723   7.002
26926WAT     H181020   0.075   7.777   7.034
26926WAT     H281021   0.237   7.773   7.021
26927WAT      O81022   3.735   1.786   1.473
26927WAT     H181023   3.769   1.756   1.562
26927WAT     H281024   3.635   1.778   1.470
26928WAT      O81025   0.076   3.645   4.117
26928WAT     H181026   0.099   3.575   4.049
26928WAT     H281027   0.000   3.612   4.174
26929WAT      O81028   6.495   6.729   7.805
26929WAT     H181029   6.437   6.668   7.751
26929WAT     H281030   6.465   6.726   7.901
26930WAT      O81031   2.242   0.239   2.913
26930WAT     H181032   2.221   0.141   2.921
26930WAT     H281033   2.297   0.268   2.991
26931WAT      O81034   8.234   5.604   7.190
26931WAT     H181035   8.234   5.616   7.090
26931WAT     H281036   8.218   5.692   7.233
26932WAT      O81037   3.350   7.116   8.482
26932WAT     H181038   3.315   7.035   8.529
26932WAT     H281039   3.274   7.175   8.454
26933WAT      O81040   7.436   6.820   5.848
26933WAT     H181041   7.500   6.841   5.922
26933WAT     H281042   7.456   6.729   5.812
26934WAT      O81043   1.451   0.794   9.451
26934WAT     H181044   1.528   0.746   9.494
26934WAT     H281045   1.466   0.799   9.352
26935WAT      O81046   2.624   6.428   3.664
26935WAT     H181047   2.586   6.503   3.609
26935WAT     H281048   2.653   6.354   3.603
26936WAT      O81049   6.114   1.249   4.116
26936WAT     H181050   6.159   1.331   4.080
26936WAT     H281051   6.174   1.206   4.184
26937WAT      O81052   2.077   9.751   9.273
26937WAT     H181053   2.039   9.742   9.364
26937WAT     H281054   2.004   9.769   9.207
26938WAT      O81055   6.740   3.678   8.174
26938WAT     H181056   6.742   3.600   8.112
26938WAT     H281057   6.655   3.729   8.162
26939WAT      O81058   6.943   3.703   1.282
26939WAT     H181059   6.996   3.730   1.201
26939WAT     H281060   6.936   3.781   1.344
26940WAT      O81061   0.397   6.365   7.841
26940WAT     H181062   0.455   6.391   7.765
26940WAT     H281063   0.319   6.312   7.807
26941WAT      O81064   7.808   1.210   9.117
26941WAT     H181065   7.897   1.176   9.085
26941WAT     H281066   7.737   1.183   9.052
26942WAT      O81067   1.654   6.653   1.930
26942WAT     H181068   1.692   6.742   1.956
26942WAT     H281069   1.584   6.666   1.859
26943WAT      O81070   3.970   8.253   6.925
26943WAT     H181071   4.008   8.344   6.911
26943WAT     H281072   4.029   8.185   6.881
26944WAT      O81073   5.772   5.249   9.525
26944WAT     H181074   5.821   5.321   9.475
26944WAT     H281075   5.839   5.187   9.566
26945WAT      O81076   9.675   3.340   0.377
26945WAT     H181077   9.760   3.356   0.327
26945WAT     H281078   9.597   3.349   0.314
26946WAT      O81079   6.926   5.698   2.392
26946WAT     H181080   7.023   5.717   2.409
26946WAT     H281081   6.918   5.635   2.315
26947WAT      O81082   7.683   4.955   1.171
26947WAT     H181083   7.775   4.944   1.132
26947WAT     H281084   7.629   4.872   1.153
26948WAT      O81085   3.129   4.694   8.971
26948WAT     H181086   3.053   4.634   8.994
26948WAT     H281087   3.200   4.686   9.041
26949WAT      O81088   7.762   9.393   3.954
26949WAT     H181089   7.753   9.337   3.872
26949WAT     H281090   7.855   9.427   3.961
26950WAT      O81091   3.635   2.046   6.581
26950WAT     H181092   3.650   1.959   6.628
26950WAT     H281093   3.617   2.030   6.484
26951WAT      O81094   0.132   7.353   3.830
26951WAT     H181095   0.090   7.282   3.773
26951WAT     H281096   0.061   7.416   3.861
26952WAT      O81097   4.861   4.783   6.702
26952WAT     H181098   4.946   4.816   6.743
26952WAT     H281099   4.791   4.855   6.705
26953WAT      O81100   5.180   1.069   4.411
26953WAT     H181101   5.111   1.012   4.456
26953WAT     H281102   5.218   1.019   4.333
26954WAT      O81103   1.343   2.330   4.362
26954WAT     H181104   1.253   2.329   4.406
26954WAT     H281105   1.380   2.237   4.362
26955WAT      O81106   3.133   4.311   9.646
26955WAT     H181107   3.055   4.311   9.583
26955WAT     H281108   3.218   4.313   9.593
26956WAT      O81109   1.550   3.190   4.474
26956WAT     H181110   1.594   3.140   4.548
26956WAT     H281111   1.460   3.223   4.504
26957WAT      O81112   7.095   7.775   0.288
26957WAT     H181113   7.121   7.700   0.349
26957WAT     H281114   7.050   7.847   0.341
26958WAT      O81115   2.796   7.552   4.935
26958WAT     H181116   2.765   7.459   4.917
26958WAT     H281117   2.891   7.562   4.908
26959WAT      O81118   8.351   4.473   6.752
26959WAT     H181119   8.435   4.507   6.795
26959WAT     H281120   8.292   4.432   6.822
26960WAT      O81121   1.921   4.558   0.718
26960WAT     H181122   1.877   4.602   0.796
26960WAT     H281123   1.959   4.628   0.658
26961WAT      O81124   6.775   9.338   1.414
26961WAT     H181125   6.866   9.377   1.401
26961WAT     H281126   6.706   9.401   1.378
26962WAT      O81127   6.722   4.911   8.681
26962WAT     H181128   6.625   4.893   8.694
26962WAT     H281129   6.776   4.852   8.741
26963WAT      O81130   8.892   8.434   5.565
26963WAT     H181131   8.937   8.522   5.548
26963WAT     H281132   8.959   8.360   5.554
26964WAT      O81133   0.986   5.559   0.347
26964WAT     H181134   1.053   5.614   0.396
26964WAT     H281135   1.005   5.462   0.362
26965WAT      O81136   5.904   8.004   1.035
26965WAT     H181137   5.989   8.024   1.084
26965WAT     H281138   5.908   8.044   0.943
26966WAT      O81139   4.507   0.965   6.108
26966WAT     H181140   4.436   1.011   6.055
26966WAT     H281141   4.584   1.026   6.121
26967WAT      O81142   3.638   1.672   2.660
26967WAT     H181143   3.694   1.735   2.608
26967WAT     H281144   3.544   1.705   2.664
26968WAT      O81145   7.074   8.947   6.187
26968WAT     H181146   7.091   8.870   6.126
26968WAT     H281147   6.978   8.947   6.215
26969WAT      O81148   8.058   7.260   0.500
26969WAT     H181149   7.993   7.207   0.446
26969WAT     H281150   8.071   7.215   0.589
26970WAT      O81151   3.343   7.529   2.777
26970WAT     H181152   3.384   7.496   2.862
26970WAT     H281153   3.395   7.494   2.699
26971WAT      O81154   0.932   0.434   3.731
26971WAT     H181155   0.908   0.528   3.757
26971WAT     H281156   0.924   0.424   3.632
26972WAT      O81157   8.258   2.485   5.772
26972WAT     H181158   8.198   2.406   5.762
26972WAT     H281159   8.203   2.567   5.788
26973WAT      O81160   6.876   9.180   6.467
26973WAT     H181161   6.869   9.123   6.385
26973WAT     H281162   6.836   9.270   6.448
26974WAT      O81163   1.326   7.257   8.082
26974WAT     H181164   1.383   7.333   8.114
26974WAT     H281165   1.347   7.237   7.987
26975WAT      O81166   6.205   9.833   9.591
26975WAT     H181167   6.277   9.786   9.540
26975WAT     H281168   6.132   9.769   9.613
26976WAT      O81169   2.873   8.523   2.046
26976WAT     H181170   2.957   8.472   2.030
26976WAT     H281171   2.815   8.518   1.964
26977WAT      O81172   0.266   0.110   7.156
26977WAT     H181173   0.287   0.172   7.081
26977WAT     H281174   0.198   0.043   7.126
26978WAT      O81175   0.690   3.253   6.670
26978WAT     H181176   0.740   3.221   6.589
26978WAT     H281177   0.750   3.313   6.723
26979WAT      O81178   2.250   5.073   8.522
26979WAT     H181179   2.318   5.001   8.538
26979WAT     H281180   2.182   5.072   8.595
26980WAT      O81181   4.532   8.226   8.938
26980WAT     H181182   4.484   8.140   8.926
26980WAT     H281183   4.470   8.295   8.974
26981WAT      O81184   7.262   0.993   2.993
26981WAT     H181185   7.239   1.090   2.980
26981WAT     H281186   7.182   0.937   2.971
26982WAT      O81187   4.072   5.264   9.051
26982WAT     H181188   4.120   5.352   9.057
26982WAT     H281189   4.072   5.233   8.956
26983WAT      O81190   8.614   0.904   6.032
26983WAT     H181191   8.708   0.937   6.022
26983WAT     H281192   8.558   0.974   6.075
26984WAT      O81193   2.829   7.558   6.907
26984WAT     H181194   2.836   7.601   6.997
26984WAT     H281195   2.820   7.459   6.918
26985WAT      O81196   1.593   2.006   9.179
26985WAT     H181197   1.520   1.958   9.226
26985WAT     H281198   1.674   2.010   9.238
26986WAT      O81199   5.742   9.195   8.682
26986WAT     H181200   5.696   9.271   8.637
26986WAT     H281201   5.674   9.130   8.716
26987WAT      O81202   6.821   6.776   2.866
26987WAT     H181203   6.823   6.729   2.955
26987WAT     H281204   6.806   6.874   2.880
26988WAT      O81205   5.429   0.778   0.544
26988WAT     H181206   5.516   0.743   0.578
26988WAT     H281207   5.432   0.878   0.539
26989WAT      O81208   8.196   6.197   6.841
26989WAT     H181209   8.204   6.276   6.780
26989WAT     H281210   8.274   6.137   6.828
26990WAT      O81211   1.922   4.366   5.812
26990WAT     H181212   1.856   4.416   5.755
26990WAT     H281213   1.891   4.366   5.907
26991WAT      O81214   2.177   2.251   4.756
26991WAT     H181215   2.187   2.154   4.730
26991WAT     H281216   2.080   2.275   4.755
26992WAT      O81217   6.789   6.228   4.832
26992WAT     H181218   6.806   6.324   4.809
26992WAT     H281219   6.794   6.172   4.749
26993WAT      O81220   1.416   1.811   9.301
26993WAT     H181221   1.401   1.761   9.386
26993WAT     H281222   1.394   1.752   9.223
26994WAT      O81223   0.888   8.527   3.576
26994WAT     H181224   0.925   8.509   3.485
26994WAT     H281225   0.962   8.530   3.643
26995WAT      O81226   6.619   4.378   2.157
26995WAT     H181227   6.685   4.339   2.222
26995WAT     H281228   6.585   4.465   2.193
26996WAT      O81229   1.325   3.580   9.593
26996WAT     H181230   1.282   3.537   9.514
26996WAT     H281231   1.348   3.510   9.660
26997WAT      O81232   6.639   0.765   1.422
26997WAT     H181233   6.596   0.746   1.510
26997WAT     H281234   6.602   0.704   1.352
26998WAT      O81235   9.153   6.262   0.845
26998WAT     H181236   9.124   6.193   0.778
26998WAT     H281237   9.077   6.324   0.865
26999WAT      O81238   8.542   5.239   3.642
26999WAT     H181239   8.616   5.261   3.578
26999WAT     H281240   8.529   5.140   3.646
27000WAT      O81241   6.280   3.933   9.494
27000WAT     H181242   6.357   3.876   9.524
27000WAT     H281243   6.257   3.998   9.566
27001WAT      O81244   1.373   7.454   7.418
27001WAT     H181245   1.457   7.508   7.427
27001WAT     H281246   1.305   7.487   7.483
27002WAT      O81247   1.564   3.178   8.691
27002WAT     H181248   1.467   3.159   8.675
27002WAT     H281249   1.605   3.213   8.606
27003WAT      O81250   3.318   7.435   9.724
27003WAT     H181251   3.233   7.487   9.737
27003WAT     H281252   3.348   7.399   9.812
27004WAT      O81253   5.730   8.482   8.528
27004WAT     H181254   5.802   8.420   8.559
27004WAT     H281255   5.647   8.431   8.508
27005WAT      O81256   5.751   0.909   1.784
27005WAT     H181257   5.739   0.958   1.870
27005WAT     H281258   5.703   0.959   1.711
27006WAT      O81259   7.209   8.552   6.148
27006WAT     H181260   7.284   8.530   6.086
27006WAT     H281261   7.172   8.468   6.187
27007WAT      O81262   0.846   1.179   5.443
27007WAT     H181263   0.748   1.176   5.425
27007WAT     H281264   0.861   1.197   5.541
27008WAT      O81265   0.838   3.354   1.683
27008WAT     H181266   0.937   3.367   1.687
27008WAT     H281267   0.807   3.314   1.769
27009WAT      O81268   8.571   8.694   7.497
27009WAT     H181269   8.569   8.616   7.559
27009WAT     H281270   8.630   8.672   7.419
27010WAT      O81271   3.961   2.113   1.835
27010WAT     H181272   3.997   2.062   1.914
27010WAT     H281273   3.959   2.210   1.856
27011WAT      O81274   6.954   5.076   8.077
27011WAT     H181275   6.865   5.121   8.086
27011WAT     H281276   7.025   5.136   8.114
27012WAT      O81277   0.586   1.185   2.015
27012WAT     H181278   0.564   1.282   2.020
27012WAT     H281279   0.678   1.174   1.977
27013WAT      O81280   8.347   6.257   0.511
27013WAT     H181281   8.292   6.332   0.547
27013WAT     H281282   8.441   6.287   0.497
27014WAT      O81283   0.978   0.522   6.687
27014WAT     H181284   1.027   0.446   6.646
27014WAT     H281285   0.899   0.488   6.738
27015WAT      O81286   4.712   3.614   3.660
27015WAT     H181287   4.730   3.709   3.682
27015WAT     H281288   4.632   3.608   3.599
27016WAT      O81289   1.886   7.151   4.645
27016WAT     H181290   1.962   7.207   4.613
27016WAT     H281291   1.886   7.063   4.597
27017WAT      O81292   4.780   4.211   5.620
27017WAT     H181293   4.760   4.175   5.529
27017WAT     H281294   4.733   4.298   5.634
27018WAT      O81295   6.882   7.587   9.744
27018WAT     H181296   6.819   7.556   9.815
27018WAT     H281297   6.971   7.607   9.785
27019WAT      O81298   6.799   4.458   2.566
27019WAT     H181299   6.838   4.422   2.650
27019WAT     H281300   6.838   4.548   2.546
27020WAT      O81301   4.883   2.111   5.905
27020WAT     H181302   4.863   2.209   5.908
27020WAT     H281303   4.982   2.097   5.910
27021WAT      O81304   3.672   6.537   0.310
27021WAT     H181305   3.595   6.480   0.338
27021WAT     H281306   3.657   6.569   0.216
27022WAT      O81307   6.221   0.678   3.063
27022WAT     H181308   6.298   0.689   3.126
27022WAT     H281309   6.218   0.757   3.001
27023WAT      O81310   1.273   9.087   0.900
27023WAT     H181311   1.261   9.073   0.802
27023WAT     H281312   1.371   9.082   0.922
27024WAT      O81313   9.864   6.200   7.913
27024WAT     H181314   9.786   6.142   7.889
27024WAT     H281315   9.831   6.281   7.963
27025WAT      O81316   0.497   4.514   1.884
27025WAT     H181317   0.484   4.597   1.830
27025WAT     H281318   0.594   4.490   1.887
27026WAT      O81319   1.645   4.977   9.829
27026WAT     H181320   1.655   5.073   9.802
27026WAT     H281321   1.723   4.949   9.884
27027WAT      O81322   5.263   2.960   0.381
27027WAT     H181323   5.286   2.970   0.478
27027WAT     H281324   5.334   2.908   0.335
27028WAT      O81325   5.772   7.806   2.122
27028WAT     H181326   5.737   7.712   2.122
27028WAT     H281327   5.823   7.822   2.038
27029WAT      O81328   9.006   1.389   0.892
27029WAT     H181329   9.088   1.334   0.872
27029WAT     H281330   9.006   1.471   0.835
27030WAT      O81331   2.144   4.390   0.733
27030WAT     H181332   2.073   4.460   0.720
27030WAT     H281333   2.100   4.304   0.760
27031WAT      O81334   7.333   2.803   1.272
27031WAT     H181335   7.273   2.779   1.348
27031WAT     H281336   7.373   2.893   1.287
27032WAT      O81337   1.381   5.536   7.859
27032WAT     H181338   1.466   5.487   7.874
27032WAT     H281339   1.372   5.559   7.762
27033WAT      O81340   5.529   2.063   4.494
27033WAT     H181341   5.539   2.159   4.467
27033WAT     H281342   5.436   2.033   4.477
27034WAT      O81343   0.955   8.749   2.817
27034WAT     H181344   0.982   8.657   2.845
27034WAT     H281345   0.957   8.755   2.717
27035WAT      O81346   9.791   3.553   4.313
27035WAT     H181347   9.732   3.474   4.330
27035WAT     H281348   9.854   3.563   4.390
27036WAT      O81349   2.461   2.994   5.820
27036WAT     H181350   2.432   3.051   5.742
27036WAT     H281351   2.432   2.900   5.804
27037WAT      O81352   8.670   0.096   2.402
27037WAT     H181353   8.708   0.112   2.493
27037WAT     H281354   8.723   0.148   2.334
27038WAT      O81355   3.222   1.061   1.280
27038WAT     H181356   3.242   0.969   1.315
27038WAT     H281357   3.145   1.057   1.217
27039WAT      O81358   5.023   1.918   1.694
27039WAT     H181359   5.038   1.889   1.599
27039WAT     H281360   5.035   1.841   1.755
27040WAT      O81361   9.484   3.976   7.736
27040WAT     H181362   9.448   3.930   7.817
27040WAT     H281363   9.407   4.007   7.679
27041WAT      O81364   9.663   3.336   4.416
27041WAT     H181365   9.641   3.251   4.368
27041WAT     H281366   9.647   3.325   4.514
27042WAT      O81367   4.800   5.106   1.713
27042WAT     H181368   4.866   5.109   1.637
27042WAT     H281369   4.719   5.160   1.689
27043WAT      O81370   4.421   0.847   5.222
27043WAT     H181371   4.336   0.895   5.199
27043WAT     H281372   4.411   0.750   5.199
27044WAT      O81373   7.378   8.001   8.256
27044WAT     H181374   7.404   8.096   8.239
27044WAT     H281375   7.379   7.951   8.169
27045WAT      O81376   1.183   5.194   8.721
27045WAT     H181377   1.118   5.266   8.695
27045WAT     H281378   1.272   5.213   8.678
27046WAT      O81379   9.720   6.192   2.490
27046WAT     H181380   9.748   6.288   2.492
27046WAT     H281381   9.786   6.137   2.541
27047WAT      O81382   6.521   1.146   8.297
27047WAT     H181383   6.598   1.111   8.350
27047WAT     H281384   6.555   1.208   8.226
27048WAT      O81385   3.111   2.871   5.846
27048WAT     H181386   3.167   2.867   5.764
27048WAT     H281387   3.051   2.951   5.843
27049WAT      O81388   6.389   9.236   4.629
27049WAT     H181389   6.394   9.163   4.560
27049WAT     H281390   6.387   9.325   4.584
27050WAT      O81391   2.953   5.017   3.085
27050WAT     H181392   2.963   4.920   3.109
27050WAT     H281393   3.039   5.065   3.103
27051WAT      O81394   2.210   8.689   6.213
27051WAT     H181395   2.186   8.741   6.294
27051WAT     H281396   2.215   8.750   6.134
27052WAT      O81397   7.997   9.400   4.596
27052WAT     H181398   8.027   9.392   4.691
27052WAT     H281399   7.899   9.416   4.594
27053WAT      O81400   1.412   5.809   4.910
27053WAT     H181401   1.356   5.770   4.836
27053WAT     H281402   1.352   5.849   4.979
27054WAT      O81403   7.916   7.015   4.696
27054WAT     H181404   7.984   7.048   4.761
27054WAT     H281405   7.825   7.042   4.727
27055WAT      O81406   2.550   9.633   4.976
27055WAT     H181407   2.535   9.684   5.060
27055WAT     H281408   2.517   9.540   4.987
27056WAT      O81409   3.907   1.408   9.834
27056WAT     H181410   3.978   1.477   9.850
27056WAT     H281411   3.855   1.393   9.918
27057WAT      O81412   4.610   1.236   8.311
27057WAT     H181413   4.593   1.225   8.213
27057WAT     H281414   4.564   1.164   8.362
27058WAT      O81415   1.449   3.667   4.192
27058WAT     H181416   1.547   3.681   4.180
27058WAT     H281417   1.408   3.643   4.104
27059WAT      O81418   6.231   1.646   6.278
27059WAT     H181419   6.315   1.695   6.258
27059WAT     H281420   6.248   1.580   6.351
27060WAT      O81421   7.751   4.796   1.726
27060WAT     H181422   7.725   4.889   1.753
27060WAT     H281423   7.716   4.731   1.793
27061WAT      O81424   2.228   1.908   6.066
27061WAT     H181425   2.236   1.924   6.164
27061WAT     H281426   2.164   1.833   6.049
27062WAT      O81427   7.556   2.679   3.375
27062WAT     H181428   7.457   2.669   3.360
27062WAT     H281429   7.593   2.746   3.310
27063WAT      O81430   7.993   6.138   0.305
27063WAT     H181431   8.040   6.103   0.386
27063WAT     H281432   8.037   6.103   0.223
27064WAT      O81433   5.322   0.988   1.238
27064WAT     H181434   5.240   0.939   1.210
27064WAT     H281435   5.381   0.926   1.290
27065WAT      O81436   4.187   0.512   3.124
27065WAT     H181437   4.134   0.595   3.109
27065WAT     H281438   4.173   0.449   3.048
27066WAT      O81439   9.533   6.776   8.871
27066WAT     H181440   9.530   6.683   8.834
27066WAT     H281441   9.619   6.820   8.845
27067WAT      O81442   4.817   4.539   6.830
27067WAT     H181443   4.851   4.451   6.795
27067WAT     H281444   4.836   4.611   6.763
27068WAT      O81445   6.187   2.657   9.483
27068WAT     H181446   6.236   2.696   9.405
27068WAT     H281447   6.113   2.598   9.449
27069WAT      O81448   1.482   6.064   9.390
27069WAT     H181449   1.403   6.007   9.369
27069WAT     H281450   1.516   6.041   9.481
27070WAT      O81451   1.988   3.855   3.648
27070WAT     H181452   1.930   3.937   3.644
27070WAT     H281453   2.083   3.883   3.662
27071WAT      O81454   3.938   9.442   4.979
27071WAT     H181455   3.863   9.376   4.981
27071WAT     H281456   4.010   9.408   4.918
27072WAT      O81457   6.559   5.392   0.050
27072WAT     H181458   6.563   5.338   0.135
27072WAT     H281459   6.618   5.350  -0.018
27073WAT      O81460   7.064   1.040   6.280
27073WAT     H181461   7.106   1.006   6.196
27073WAT     H281462   7.072   0.971   6.352
27074WAT      O81463   1.806   3.316   4.476
27074WAT     H181464   1.838   3.325   4.570
27074WAT     H281465   1.723   3.260   4.475
27075WAT      O81466   3.806   5.456   5.050
27075WAT     H181467   3.774   5.383   4.989
27075WAT     H281468   3.848   5.529   4.996
27076WAT      O81469   7.310   7.991   3.283
27076WAT     H181470   7.402   8.014   3.250
27076WAT     H281471   7.248   8.067   3.263
27077WAT      O81472   7.546   7.560   3.869
27077WAT     H181473   7.553   7.487   3.801
27077WAT     H281474   7.632   7.610   3.873
27078WAT      O81475   7.206   6.168   5.058
27078WAT     H181476   7.141   6.186   5.131
27078WAT     H281477   7.250   6.079   5.074
27079WAT      O81478   0.893   6.172   4.601
27079WAT     H181479   0.979   6.217   4.578
27079WAT     H281480   0.858   6.124   4.521
27080WAT      O81481   9.176   8.679   9.870
27080WAT     H181482   9.230   8.705   9.950
27080WAT     H281483   9.203   8.587   9.840
27081WAT      O81484   0.033   6.385   9.148
27081WAT     H181485   0.005   6.345   9.235
27081WAT     H281486   0.001   6.480   9.143
27082WAT      O81487   0.834   9.235   8.466
27082WAT     H181488   0.833   9.165   8.537
27082WAT     H281489   0.814   9.324   8.506
27083WAT      O81490   0.955   1.510   7.439
27083WAT     H181491   0.884   1.560   7.488
27083WAT     H281492   0.974   1.424   7.487
27084WAT      O81493   0.496   8.979   2.765
27084WAT     H181494   0.541   8.967   2.853
27084WAT     H281495   0.443   9.063   2.765
27085WAT      O81496   6.591   0.056   8.261
27085WAT     H181497   6.528   0.062   8.183
27085WAT     H281498   6.541   0.069   8.346
27086WAT      O81499   8.222   4.976   2.258
27086WAT     H181500   8.196   5.050   2.320
27086WAT     H281501   8.306   5.002   2.210
27087WAT      O81502   4.616   3.062   6.906
27087WAT     H181503   4.574   3.026   6.989
27087WAT     H281504   4.572   3.147   6.880
27088WAT      O81505   0.549   3.837   5.564
27088WAT     H181506   0.573   3.849   5.660
27088WAT     H281507   0.490   3.913   5.535
27089WAT      O81508   3.188   7.235   4.797
27089WAT     H181509   3.238   7.256   4.713
27089WAT     H281510   3.208   7.304   4.866
27090WAT      O81511   7.305   4.141   3.167
27090WAT     H181512   7.226   4.168   3.223
27090WAT     H281513   7.273   4.112   3.077
27091WAT      O81514   9.206   0.089   0.573
27091WAT     H181515   9.180   0.145   0.494
27091WAT     H281516   9.289   0.127   0.615
27092WAT      O81517   9.502   5.229   0.301
27092WAT     H181518   9.534   5.294   0.370
27092WAT     H281519   9.523   5.136   0.330
27093WAT      O81520   1.582   2.734   6.730
27093WAT     H181521   1.649   2.770   6.795
27093WAT     H281522   1.520   2.672   6.777
27094WAT      O81523   0.072   6.543   3.607
27094WAT     H181524   0.072   6.451   3.646
27094WAT     H281525   0.098   6.538   3.510
27095WAT      O81526   2.737   6.036   4.501
27095WAT     H181527   2.688   6.081   4.576
27095WAT     H281528   2.818   5.990   4.538
27096WAT      O81529   4.334   7.764   5.246
27096WAT     H181530   4.414   7.719   5.208
27096WAT     H281531   4.266   7.777   5.173
27097WAT      O81532   4.712   8.809   9.537
27097WAT     H181533   4.621   8.769   9.523
27097WAT     H281534   4.715   8.853   9.627
27098WAT      O81535   4.103   2.011   0.610
27098WAT     H181536   4.057   2.040   0.526
27098WAT     H281537   4.198   2.041   0.607
27099WAT      O81538   9.172   1.628   0.059
27099WAT     H181539   9.261   1.633   0.104
27099WAT     H281540   9.180   1.575  -0.025
27100WAT      O81541   9.185   4.479   9.163
27100WAT     H181542   9.245   4.542   9.212
27100WAT     H281543   9.159   4.404   9.223
27101WAT      O81544   7.590   6.202   9.671
27101WAT     H181545   7.578   6.106   9.694
27101WAT     H281546   7.502   6.249   9.678
27102WAT      O81547   4.714   1.840   1.693
27102WAT     H181548   4.713   1.741   1.702
27102WAT     H281549   4.806   1.875   1.711
27103WAT      O81550   1.005   7.709   0.414
27103WAT     H181551   1.068   7.746   0.346
27103WAT     H281552   0.920   7.681   0.369
27104WAT      O81553   1.019   8.903   3.300
27104WAT     H181554   0.953   8.945   3.363
27104WAT     H281555   1.038   8.966   3.225
27105WAT      O81556   9.276   5.746   4.142
27105WAT     H181557   9.220   5.729   4.060
27105WAT     H281558   9.372   5.729   4.120
27106WAT      O81559   4.084   6.369   6.521
27106WAT     H181560   4.119   6.435   6.588
27106WAT     H281561   4.004   6.407   6.475
27107WAT      O81562   7.284   6.141   3.389
27107WAT     H181563   7.272   6.052   3.434
27107WAT     H281564   7.370   6.141   3.338
27108WAT      O81565   4.414   1.285   9.620
27108WAT     H181566   4.499   1.337   9.615
27108WAT     H281567   4.418   1.209   9.556
27109WAT      O81568   4.203   4.843   9.410
27109WAT     H181569   4.286   4.790   9.425
27109WAT     H281570   4.203   4.923   9.470
27110WAT      O81571   7.441   1.815   9.886
27110WAT     H181572   7.412   1.910   9.878
27110WAT     H281573   7.499   1.791   9.808
27111WAT      O81574   2.657   5.127   4.721
27111WAT     H181575   2.567   5.162   4.747
27111WAT     H281576   2.707   5.101   4.803
27112WAT      O81577   8.547   5.573   8.171
27112WAT     H181578   8.448   5.559   8.169
27112WAT     H281579   8.587   5.541   8.085
27113WAT      O81580   6.403   7.286   8.921
27113WAT     H181581   6.441   7.342   8.995
27113WAT     H281582   6.303   7.291   8.924
27114WAT      O81583   9.154   9.532   0.147
27114WAT     H181584   9.173   9.492   0.057
27114WAT     H281585   9.183   9.468   0.218
27115WAT      O81586   4.493   8.153   0.070
27115WAT     H181587   4.576   8.131   0.019
27115WAT     H281588   4.472   8.250   0.059
27116WAT      O81589   7.804   1.351   2.448
27116WAT     H181590   7.727   1.401   2.407
27116WAT     H281591   7.868   1.323   2.376
27117WAT      O81592   5.822   0.830   7.925
27117WAT     H181593   5.821   0.929   7.939
27117WAT     H281594   5.873   0.786   7.999
27118WAT      O81595   8.572   6.447   9.220
27118WAT     H181596   8.579   6.504   9.302
27118WAT     H281597   8.578   6.505   9.139
27119WAT      O81598   4.185   8.456   6.800
27119WAT     H181599   4.176   8.454   6.701
27119WAT     H281600   4.280   8.439   6.826
27120WAT      O81601   9.821   7.504   6.700
27120WAT     H181602   9.806   7.554   6.615
27120WAT     H281603   9.762   7.543   6.771
27121WAT      O81604   2.244   9.701   5.146
27121WAT     H181605   2.181   9.741   5.212
27121WAT     H281606   2.338   9.717   5.176
27122WAT      O81607   0.925   4.596   0.356
27122WAT     H181608   0.982   4.567   0.433
27122WAT     H281609   0.936   4.694   0.341
27123WAT      O81610   9.256   2.043   8.518
27123WAT     H181611   9.354   2.051   8.535
27123WAT     H281612   9.239   2.044   8.419
27124WAT      O81613   6.160   5.521   0.548
27124WAT     H181614   6.110   5.441   0.514
27124WAT     H281615   6.202   5.569   0.470
27125WAT      O81616   9.032   0.167   8.839
27125WAT     H181617   8.983   0.241   8.794
27125WAT     H281618   9.130   0.178   8.824
27126WAT      O81619   0.639   1.485   6.035
27126WAT     H181620   0.676   1.559   6.090
27126WAT     H281621   0.707   1.458   5.966
27127WAT      O81622   0.674   9.235   0.361
27127WAT     H181623   0.647   9.327   0.390
27127WAT     H281624   0.594   9.188   0.322
27128WAT      O81625   4.469   9.681   7.569
27128WAT     H181626   4.407   9.747   7.525
27128WAT     H281627   4.433   9.589   7.556
27129WAT      O81628   4.519   7.331   6.053
27129WAT     H181629   4.604   7.373   6.020
27129WAT     H281630   4.447   7.400   6.055
27130WAT      O81631   6.342   6.479   6.760
27130WAT     H181632   6.421   6.538   6.779
27130WAT     H281633   6.371   6.403   6.702
27131WAT      O81634   9.173   3.159   2.543
27131WAT     H181635   9.128   3.204   2.465
27131WAT     H281636   9.189   3.227   2.615
27132WAT      O81637   5.922   2.826   9.825
27132WAT     H181638   5.963   2.895   9.884
27132WAT     H281639   5.989   2.753   9.808
27133WAT      O81640   1.700   2.587   4.993
27133WAT     H181641   1.694   2.547   5.085
27133WAT     H281642   1.765   2.663   4.995
27134WAT      O81643   5.713   2.566   4.474
27134WAT     H181644   5.658   2.554   4.557
27134WAT     H281645   5.795   2.510   4.480
27135WAT      O81646   4.768   8.799   6.861
27135WAT     H181647   4.788   8.725   6.798
27135WAT     H281648   4.745   8.761   6.951
27136WAT      O81649   1.272   0.087   7.128
27136WAT     H181650   1.256  -0.007   7.157
27136WAT     H281651   1.308   0.088   7.034
27137WAT      O81652   1.411   5.958   6.782
27137WAT     H181653   1.319   5.966   6.819
27137WAT     H281654   1.477   5.989   6.851
27138WAT      O81655   2.603   8.106   1.601
27138WAT     H181656   2.522   8.087   1.546
27138WAT     H281657   2.626   8.026   1.656
27139WAT      O81658   4.140   2.205   5.680
27139WAT     H181659   4.202   2.186   5.757
27139WAT     H281660   4.046   2.193   5.709
27140WAT      O81661   6.409   5.167   5.700
27140WAT     H181662   6.369   5.099   5.761
27140WAT     H281663   6.499   5.135   5.669
27141WAT      O81664   1.986   8.612   8.429
27141WAT     H181665   1.922   8.650   8.362
27141WAT     H281666   2.075   8.657   8.420
27142WAT      O81667   6.989   9.813   0.045
27142WAT     H181668   6.993   9.791   0.142
27142WAT     H281669   6.976   9.729  -0.008
27143WAT      O81670   4.643   8.987   3.883
27143WAT     H181671   4.727   9.030   3.848
27143WAT     H281672   4.573   8.987   3.811
27144WAT      O81673   8.576   3.878   7.810
27144WAT     H181674   8.506   3.852   7.878
27144WAT     H281675   8.604   3.797   7.759
27145WAT      O81676   7.930   7.640   9.195
27145WAT     H181677   7.873   7.566   9.231
27145WAT     H281678   7.947   7.626   9.098
27146WAT      O81679   7.399   6.341   8.152
27146WAT     H181680   7.453   6.397   8.215
27146WAT     H281681   7.428   6.245   8.158
27147WAT      O81682   2.720   1.997   4.132
27147WAT     H181683   2.656   2.060   4.175
27147WAT     H281684   2.717   2.007   4.033
27148WAT      O81685   1.794   9.360   7.276
27148WAT     H181686   1.739   9.386   7.356
27148WAT     H281687   1.832   9.442   7.234
27149WAT      O81688   4.039   6.311   6.066
27149WAT     H181689   4.052   6.363   5.982
27149WAT     H281690   4.014   6.217   6.043
27150WAT      O81691   1.096   0.845   5.658
27150WAT     H181692   1.169   0.807   5.715
27150WAT     H281693   1.008   0.833   5.704
27151WAT      O81694   1.354   2.849   1.088
27151WAT     H181695   1.413   2.929   1.076
27151WAT     H281696   1.264   2.879   1.121
27152WAT      O81697   4.752   1.894   9.083
27152WAT     H181698   4.812   1.921   9.157
27152WAT     H281699   4.658   1.889   9.116
27153WAT      O81700   2.444   9.500   0.262
27153WAT     H181701   2.459   9.453   0.175
27153WAT     H281702   2.531   9.533   0.299
27154WAT      O81703   5.061   0.327   0.176
27154WAT     H181704   5.087   0.231   0.168
27154WAT     H281705   4.983   0.336   0.238
27155WAT      O81706   1.803   1.852   0.595
27155WAT     H181707   1.894   1.894   0.600
27155WAT     H281708   1.813   1.753   0.582
27156WAT      O81709   7.318   5.353   7.389
27156WAT     H181710   7.408   5.368   7.349
27156WAT     H281711   7.292   5.433   7.443
27157WAT      O81712   4.735   1.292   9.171
27157WAT     H181713   4.707   1.279   9.266
27157WAT     H281714   4.727   1.388   9.146
27158WAT      O81715   6.500   0.713   1.646
27158WAT     H181716   6.508   0.793   1.705
27158WAT     H281717   6.403   0.694   1.627
27159WAT      O81718   4.786   2.621   5.694
27159WAT     H181719   4.807   2.649   5.601
27159WAT     H281720   4.726   2.689   5.736
27160WAT      O81721   1.781   8.030   2.473
27160WAT     H181722   1.810   8.110   2.421
27160WAT     H281723   1.738   8.059   2.559
27161WAT      O81724   9.657   3.351   2.720
27161WAT     H181725   9.710   3.279   2.765
27161WAT     H281726   9.713   3.433   2.709
27162WAT      O81727   7.588   8.727   3.452
27162WAT     H181728   7.608   8.782   3.370
27162WAT     H281729   7.606   8.631   3.432
27163WAT      O81730   5.012   0.441   3.734
27163WAT     H181731   4.935   0.500   3.710
27163WAT     H281732   5.085   0.497   3.774
27164WAT      O81733   7.401   2.612   9.673
27164WAT     H181734   7.370   2.592   9.766
27164WAT     H281735   7.355   2.696   9.641
27165WAT      O81736   5.301   1.861   1.895
27165WAT     H181737   5.243   1.822   1.966
27165WAT     H281738   5.368   1.792   1.865
27166WAT      O81739   4.559   2.338   6.577
27166WAT     H181740   4.619   2.330   6.656
27166WAT     H281741   4.526   2.247   6.550
27167WAT      O81742   9.249   0.279   7.802
27167WAT     H181743   9.255   0.227   7.887
27167WAT     H281744   9.188   0.357   7.815
27168WAT      O81745   9.144   3.666   1.575
27168WAT     H181746   9.169   3.718   1.493
27168WAT     H281747   9.080   3.593   1.550
27169WAT      O81748   3.494   0.638   7.465
27169WAT     H181749   3.579   0.597   7.430
27169WAT     H281750   3.427   0.643   7.391
27170WAT      O81751   4.417   9.037   7.243
27170WAT     H181752   4.469   9.122   7.237
27170WAT     H281753   4.478   8.960   7.223
27171WAT      O81754   9.492   8.736   5.700
27171WAT     H181755   9.492   8.724   5.601
27171WAT     H281756   9.523   8.828   5.723
27172WAT      O81757   0.690   8.937   7.262
27172WAT     H181758   0.782   8.948   7.299
27172WAT     H281759   0.654   8.847   7.286
27173WAT      O81760   1.934   7.153   8.613
27173WAT     H181761   2.013   7.092   8.612
27173WAT     H281762   1.867   7.120   8.679
27174WAT      O81763   7.620   2.254   7.263
27174WAT     H181764   7.702   2.229   7.211
27174WAT     H281765   7.613   2.354   7.268
27175WAT      O81766   0.873   4.296   5.681
27175WAT     H181767   0.863   4.209   5.632
27175WAT     H281768   0.883   4.370   5.614
27176WAT      O81769   5.882   4.642   1.663
27176WAT     H181770   5.937   4.702   1.721
27176WAT     H281771   5.807   4.695   1.621
27177WAT      O81772   5.259   4.605   9.658
27177WAT     H181773   5.271   4.553   9.742
27177WAT     H281774   5.174   4.578   9.613
27178WAT      O81775   8.484   9.240   2.164
27178WAT     H181776   8.554   9.312   2.164
27178WAT     H281777   8.394   9.282   2.174
27179WAT      O81778   2.373   1.064   3.848
27179WAT     H181779   2.371   1.084   3.946
27179WAT     H281780   2.329   0.975   3.832
27180WAT      O81781   5.134   7.310   4.006
27180WAT     H181782   5.086   7.396   4.025
27180WAT     H281783   5.067   7.236   3.994
27181WAT      O81784   2.346   0.116   9.077
27181WAT     H181785   2.363   0.202   9.125
27181WAT     H281786   2.266   0.127   9.018
27182WAT      O81787   1.851   8.412   8.889
27182WAT     H181788   1.910   8.454   8.820
27182WAT     H281789   1.761   8.456   8.886
27183WAT      O81790   9.020   7.195   5.854
27183WAT     H181791   8.997   7.137   5.932
27183WAT     H281792   9.108   7.240   5.869
27184WAT      O81793   2.999   2.824   5.328
27184WAT     H181794   2.940   2.878   5.388
27184WAT     H281795   3.032   2.744   5.379
27185WAT      O81796   9.585   7.781   1.341
27185WAT     H181797   9.503   7.750   1.390
27185WAT     H281798   9.567   7.781   1.243
27186WAT      O81799   7.295   2.990   3.926
27186WAT     H181800   7.241   2.930   3.867
27186WAT     H281801   7.240   3.070   3.952
27187WAT      O81802   0.333   2.251   9.362
27187WAT     H181803   0.287   2.339   9.352
27187WAT     H281804   0.313   2.193   9.283
27188WAT      O81805   2.257   5.863   6.672
27188WAT     H181806   2.335   5.870   6.609
27188WAT     H281807   2.283   5.900   6.761
27189WAT      O81808   0.438   6.553   5.592
27189WAT     H181809   0.513   6.565   5.658
27189WAT     H281810   0.356   6.597   5.628
27190WAT      O81811   8.067   2.563   0.520
27190WAT     H181812   8.014   2.517   0.591
27190WAT     H281813   8.053   2.662   0.527
27191WAT      O81814   1.292   1.265   0.789
27191WAT     H181815   1.256   1.288   0.880
27191WAT     H281816   1.392   1.264   0.792
27192WAT      O81817   4.305   9.356   1.689
27192WAT     H181818   4.282   9.259   1.688
27192WAT     H281819   4.235   9.407   1.739
27193WAT      O81820   4.696   0.322   7.345
27193WAT     H181821   4.744   0.406   7.372
27193WAT     H281822   4.655   0.280   7.426
27194WAT      O81823   2.079   0.172   4.445
27194WAT     H181824   2.008   0.233   4.412
27194WAT     H281825   2.136   0.141   4.369
27195WAT      O81826   7.935   5.591   4.878
27195WAT     H181827   8.005   5.537   4.830
27195WAT     H281828   7.857   5.532   4.900
27196WAT      O81829   0.706   4.847   0.410
27196WAT     H181830   0.721   4.935   0.365
27196WAT     H281831   0.779   4.831   0.477
27197WAT      O81832   0.330   6.012   4.057
27197WAT     H181833   0.236   5.990   4.083
27197WAT     H281834   0.393   5.973   4.124
27198WAT      O81835   5.567   4.863   6.546
27198WAT     H181836   5.608   4.863   6.455
27198WAT     H281837   5.480   4.913   6.543
27199WAT      O81838   4.327   5.463   8.623
27199WAT     H181839   4.403   5.488   8.564
27199WAT     H281840   4.359   5.405   8.698
27200WAT      O81841   0.406   9.264   1.411
27200WAT     H181842   0.317   9.218   1.416
27200WAT     H281843   0.451   9.257   1.500
27201WAT      O81844   4.813   8.980   4.104
27201WAT     H181845   4.907   9.008   4.085
27201WAT     H281846   4.753   9.016   4.032
27202WAT      O81847   2.258   0.688   0.113
27202WAT     H181848   2.317   0.608   0.114
27202WAT     H281849   2.303   0.764   0.160
27203WAT      O81850   1.303   8.084   6.291
27203WAT     H181851   1.346   8.155   6.235
27203WAT     H281852   1.213   8.116   6.321
27204WAT      O81853   3.632   4.681   6.691
27204WAT     H181854   3.691   4.636   6.759
27204WAT     H281855   3.594   4.613   6.629
27205WAT      O81856   8.288   6.649   4.921
27205WAT     H181857   8.226   6.682   4.850
27205WAT     H281858   8.246   6.663   5.011
27206WAT      O81859   7.934   9.788   0.643
27206WAT     H181860   7.939   9.832   0.554
27206WAT     H281861   7.939   9.688   0.631
27207WAT      O81862   5.155   5.376   1.893
27207WAT     H181863   5.067   5.361   1.848
27207WAT     H281864   5.155   5.330   1.981
27208WAT      O81865   9.112   7.097   7.941
27208WAT     H181866   9.091   7.023   7.877
27208WAT     H281867   9.040   7.167   7.936
27209WAT      O81868   2.025   9.443   9.877
27209WAT     H181869   2.111   9.494   9.883
27209WAT     H281870   2.014   9.407   9.784
27210WAT      O81871   1.955   6.489   6.866
27210WAT     H181872   2.007   6.519   6.786
27210WAT     H281873   1.891   6.560   6.893
27211WAT      O81874   3.496   7.886   6.055
27211WAT     H181875   3.470   7.978   6.084
27211WAT     H281876   3.424   7.821   6.078
27212WAT      O81877   5.201   4.290   5.321
27212WAT     H181878   5.179   4.377   5.364
27212WAT     H281879   5.262   4.238   5.381
27213WAT      O81880   4.078   9.802   0.223
27213WAT     H181881   4.015   9.842   0.289
27213WAT     H281882   4.150   9.869   0.201
27214WAT      O81883   4.098   1.907   4.882
27214WAT     H181884   4.193   1.936   4.869
27214WAT     H281885   4.043   1.940   4.806
27215WAT      O81886   9.176   0.420   5.228
27215WAT     H181887   9.274   0.437   5.216
27215WAT     H281888   9.152   0.331   5.188
27216WAT      O81889   8.424   8.776   9.831
27216WAT     H181890   8.390   8.747   9.920
27216WAT     H281891   8.509   8.728   9.810
27217WAT      O81892   2.883   2.700   5.106
27217WAT     H181893   2.851   2.608   5.128
27217WAT     H281894   2.924   2.742   5.187
27218WAT      O81895   2.573   6.841   1.220
27218WAT     H181896   2.576   6.881   1.312
27218WAT     H281897   2.573   6.741   1.228
27219WAT      O81898   8.393   3.250   2.521
27219WAT     H181899   8.415   3.153   2.527
27219WAT     H281900   8.303   3.267   2.561
27220WAT      O81901   6.476   1.244   6.376
27220WAT     H181902   6.417   1.229   6.456
27220WAT     H281903   6.570   1.223   6.401
27221WAT      O81904   5.967   0.355   3.594
27221WAT     H181905   5.964   0.406   3.508
27221WAT     H281906   6.025   0.274   3.583
27222WAT      O81907   7.259   2.407   8.145
27222WAT     H181908   7.280   2.470   8.219
27222WAT     H281909   7.197   2.336   8.179
27223WAT      O81910   7.338   8.491   5.578
27223WAT     H181911   7.427   8.495   5.623
27223WAT     H281912   7.317   8.396   5.555
27224WAT      O81913   6.448   7.680   5.610
27224WAT     H181914   6.433   7.767   5.656
27224WAT     H281915   6.394   7.677   5.526
27225WAT      O81916   2.382   4.601   4.231
27225WAT     H181917   2.402   4.659   4.310
27225WAT     H281918   2.393   4.654   4.147
27226WAT      O81919   5.646   3.228   7.033
27226WAT     H181920   5.621   3.156   6.968
27226WAT     H281921   5.716   3.286   6.991
27227WAT      O81922   3.354   5.157   5.480
27227WAT     H181923   3.445   5.147   5.520
27227WAT     H281924   3.314   5.067   5.464
27228WAT      O81925   9.363   4.966   3.031
27228WAT     H181926   9.343   4.881   2.983
27228WAT     H281927   9.341   4.955   3.128
27229WAT      O81928   2.731   1.903   2.144
27229WAT     H181929   2.696   1.866   2.230
27229WAT     H281930   2.711   1.838   2.070
27230WAT      O81931   4.871   3.961   2.454
27230WAT     H181932   4.788   3.952   2.398
27230WAT     H281933   4.931   4.029   2.412
27231WAT      O81934   2.773   5.717   7.111
27231WAT     H181935   2.704   5.721   7.038
27231WAT     H281936   2.864   5.718   7.070
27232WAT      O81937   4.148   9.058   4.976
27232WAT     H181938   4.169   9.070   5.073
27232WAT     H281939   4.176   9.140   4.926
27233WAT      O81940   4.303   8.342   3.576
27233WAT     H181941   4.271   8.359   3.482
27233WAT     H281942   4.382   8.281   3.574
27234WAT      O81943   2.944   7.582   9.406
27234WAT     H181944   3.006   7.511   9.371
27234WAT     H281945   2.899   7.548   9.488
27235WAT      O81946   8.991   5.284   1.322
27235WAT     H181947   9.017   5.191   1.349
27235WAT     H281948   8.968   5.337   1.404
27236WAT      O81949   9.003   1.644   5.934
27236WAT     H181950   8.905   1.621   5.928
27236WAT     H281951   9.045   1.634   5.844
27237WAT      O81952   0.265   0.355   6.079
27237WAT     H181953   0.200   0.279   6.076
27237WAT     H281954   0.359   0.319   6.077
27238WAT      O81955   2.040   2.828   4.115
27238WAT     H181956   1.986   2.882   4.050
27238WAT     H281957   2.086   2.890   4.179
27239WAT      O81958   4.822   3.267   9.247
27239WAT     H181959   4.725   3.242   9.247
27239WAT     H281960   4.851   3.287   9.154
27240WAT      O81961   0.868   5.035   7.270
27240WAT     H181962   0.847   5.075   7.359
27240WAT     H281963   0.921   5.101   7.215
27241WAT      O81964   5.337   1.787   7.431
27241WAT     H181965   5.331   1.701   7.481
27241WAT     H281966   5.365   1.860   7.493
27242WAT      O81967   5.827   2.622   5.677
27242WAT     H181968   5.793   2.714   5.698
27242WAT     H281969   5.860   2.620   5.582
27243WAT      O81970   9.403   1.071   7.147
27243WAT     H181971   9.469   1.146   7.156
27243WAT     H281972   9.357   1.077   7.059
27244WAT      O81973   1.472   9.584   7.733
27244WAT     H181974   1.486   9.657   7.666
27244WAT     H281975   1.407   9.517   7.696
27245WAT      O81976   5.572   6.872   0.516
27245WAT     H181977   5.559   6.817   0.433
27245WAT     H281978   5.535   6.964   0.501
27246WAT      O81979   6.674   9.108   1.101
27246WAT     H181980   6.690   9.035   1.035
27246WAT     H281981   6.737   9.098   1.179
27247WAT      O81982   8.458   9.092   3.202
27247WAT     H181983   8.467   9.099   3.301
27247WAT     H281984   8.507   9.012   3.169
27248WAT      O81985   8.635   4.185   4.368
27248WAT     H181986   8.673   4.196   4.460
27248WAT     H281987   8.709   4.165   4.304
27249WAT      O81988   4.789   1.159   4.344
27249WAT     H181989   4.854   1.090   4.313
27249WAT     H281990   4.793   1.166   4.444
27250WAT      O81991   4.139   6.862   8.654
27250WAT     H181992   4.134   6.958   8.624
27250WAT     H281993   4.048   6.830   8.679
27251WAT      O81994   7.331   4.934   0.550
27251WAT     H181995   7.426   4.926   0.522
27251WAT     H281996   7.311   5.029   0.574
27252WAT      O81997   1.688   8.240   7.651
27252WAT     H181998   1.742   8.324   7.642
27252WAT     H281999   1.702   8.202   7.742
27253WAT      O82000   6.743   4.259   8.157
27253WAT     H182001   6.804   4.336   8.140
27253WAT     H282002   6.719   4.256   8.254
27254WAT      O82003   5.886   9.603   5.804
27254WAT     H182004   5.800   9.653   5.812
27254WAT     H282005   5.940   9.615   5.887
27255WAT      O82006   7.575   4.047   5.383
27255WAT     H182007   7.484   4.006   5.385
27255WAT     H282008   7.568   4.143   5.358
27256WAT      O82009   9.290   7.137   5.376
27256WAT     H182010   9.251   7.050   5.407
27256WAT     H282011   9.270   7.150   5.278
27257WAT      O82012   3.825   9.388   7.629
27257WAT     H182013   3.784   9.322   7.566
27257WAT     H282014   3.784   9.378   7.719
27258WAT      O82015   5.592   8.567   4.437
27258WAT     H182016   5.559   8.557   4.531
27258WAT     H282017   5.635   8.481   4.408
27259WAT      O82018   8.622   0.038   5.242
27259WAT     H182019   8.536   0.026   5.291
27259WAT     H282020   8.604   0.068   5.149
27260WAT      O82021   8.616   9.681   2.293
27260WAT     H182022   8.666   9.766   2.307
27260WAT     H282023   8.563   9.660   2.375
27261WAT      O82024   0.970   1.404   9.812
27261WAT     H182025   0.926   1.490   9.834
27261WAT     H282026   1.037   1.418   9.739
27262WAT      O82027   9.727   3.547   4.680
27262WAT     H182028   9.759   3.581   4.769
27262WAT     H282029   9.805   3.535   4.619
27263WAT      O82030   1.980   5.028   0.426
27263WAT     H182031   1.906   5.053   0.364
27263WAT     H282032   2.067   5.026   0.376
27264WAT      O82033   1.350   1.869   1.744
27264WAT     H182034   1.314   1.779   1.719
27264WAT     H282035   1.404   1.905   1.668
27265WAT      O82036   2.955   4.777   3.466
27265WAT     H182037   2.885   4.706   3.460
27265WAT     H282038   2.924   4.848   3.530
27266WAT      O82039   0.575   3.989   8.693
27266WAT     H182040   0.522   3.925   8.637
27266WAT     H282041   0.615   3.940   8.771
27267WAT      O82042   3.691   0.224   1.555
27267WAT     H182043   3.609   0.277   1.576
27267WAT     H282044   3.757   0.283   1.508
27268WAT      O82045   6.821   7.439   5.808
27268WAT     H182046   6.770   7.362   5.770
27268WAT     H282047   6.779   7.466   5.895
27269WAT      O82048   1.718   3.829   2.546
27269WAT     H182049   1.795   3.831   2.610
27269WAT     H282050   1.651   3.761   2.576
27270WAT      O82051   3.536   7.361   0.134
27270WAT     H182052   3.514   7.350   0.231
27270WAT     H282053   3.634   7.353   0.121
27271WAT      O82054   1.629   2.926   6.533
27271WAT     H182055   1.722   2.926   6.497
27271WAT     H282056   1.617   2.849   6.595
27272WAT      O82057   9.698   8.963   3.759
27272WAT     H182058   9.632   8.909   3.708
27272WAT     H282059   9.684   8.948   3.857
27273WAT      O82060   6.356   1.829   9.680
27273WAT     H182061   6.335   1.797   9.773
27273WAT     H282062   6.339   1.928   9.675
27274WAT      O82063   6.842   7.286   7.254
27274WAT     H182064   6.760   7.274   7.197
27274WAT     H282065   6.824   7.250   7.345
27275WAT      O82066   8.293   5.720   3.747
27275WAT     H182067   8.216   5.676   3.700
27275WAT     H282068   8.289   5.699   3.845
27276WAT      O82069   5.270   3.846   2.196
27276WAT     H182070   5.277   3.920   2.264
27276WAT     H282071   5.208   3.873   2.123
27277WAT      O82072   1.116   2.796   7.740
27277WAT     H182073   1.027   2.763   7.710
27277WAT     H282074   1.168   2.720   7.781
27278WAT      O82075   1.948   2.494   0.757
27278WAT     H182076   1.867   2.528   0.709
27278WAT     H282077   2.006   2.445   0.693
27279WAT      O82078   7.730   2.102   6.857
27279WAT     H182079   7.818   2.107   6.810
27279WAT     H282080   7.737   2.146   6.947
27280WAT      O82081   5.298   3.220   1.586
27280WAT     H182082   5.283   3.305   1.536
27280WAT     H282083   5.216   3.197   1.639
27281WAT      O82084   7.313   0.958   7.522
27281WAT     H182085   7.322   0.897   7.443
27281WAT     H282086   7.328   1.052   7.494
27282WAT      O82087   4.804   3.609   8.329
27282WAT     H182088   4.745   3.687   8.308
27282WAT     H282089   4.899   3.639   8.336
27283WAT      O82090   8.994   4.470   6.576
27283WAT     H182091   8.999   4.375   6.545
27283WAT     H282092   8.957   4.527   6.502
27284WAT      O82093   2.450   6.724   6.508
27284WAT     H182094   2.546   6.710   6.484
27284WAT     H282095   2.436   6.707   6.605
27285WAT      O82096   8.940   7.153   0.790
27285WAT     H182097   9.039   7.143   0.781
27285WAT     H282098   8.907   7.101   0.869
27286WAT      O82099   4.639   0.264   2.143
27286WAT     H182100   4.603   0.326   2.073
27286WAT     H282101   4.564   0.208   2.178
27287WAT      O82102   5.791   6.593   4.029
27287WAT     H182103   5.827   6.681   3.999
27287WAT     H282104   5.866   6.527   4.037
27288WAT      O82105   3.818   1.554   5.851
27288WAT     H182106   3.882   1.560   5.774
27288WAT     H282107   3.761   1.473   5.841
27289WAT      O82108   5.669   7.640   9.810
27289WAT     H182109   5.704   7.576   9.878
27289WAT     H282110   5.624   7.589   9.737
27290WAT      O82111   0.521   6.610   8.196
27290WAT     H182112   0.544   6.528   8.145
27290WAT     H282113   0.421   6.619   8.200
27291WAT      O82114   0.266   7.769   4.840
27291WAT     H182115   0.173   7.747   4.872
27291WAT     H282116   0.332   7.744   4.910
27292WAT      O82117   5.024   5.808   3.479
27292WAT     H182118   4.994   5.766   3.394
27292WAT     H282119   4.990   5.902   3.484
27293WAT      O82120   3.916   3.579   4.613
27293WAT     H182121   3.871   3.529   4.686
27293WAT     H282122   3.966   3.656   4.651
27294WAT      O82123   1.120   0.453   5.844
27294WAT     H182124   1.147   0.548   5.856
27294WAT     H282125   1.050   0.447   5.773
27295WAT      O82126   0.711   0.750   9.276
27295WAT     H182127   0.749   0.658   9.283
27295WAT     H282128   0.739   0.804   9.356
27296WAT      O82129   0.673   4.693   5.209
27296WAT     H182130   0.628   4.751   5.277
27296WAT     H282131   0.747   4.642   5.253
27297WAT      O82132   4.593   2.324   3.898
27297WAT     H182133   4.575   2.251   3.832
27297WAT     H282134   4.632   2.403   3.851
27298WAT      O82135   2.906   0.466   9.155
27298WAT     H182136   2.948   0.431   9.071
27298WAT     H282137   2.841   0.539   9.132
27299WAT      O82138   4.284   3.140   2.864
27299WAT     H182139   4.279   3.217   2.800
27299WAT     H282140   4.365   3.149   2.921
27300WAT      O82141   0.829   9.771   7.558
27300WAT     H182142   0.736   9.809   7.565
27300WAT     H282143   0.870   9.767   7.650
27301WAT      O82144   5.767   3.580   5.542
27301WAT     H182145   5.678   3.536   5.555
27301WAT     H282146   5.820   3.571   5.626
27302WAT      O82147   5.404   6.784   3.939
27302WAT     H182148   5.463   6.835   4.001
27302WAT     H282149   5.308   6.801   3.963
27303WAT      O82150   8.233   2.040   4.388
27303WAT     H182151   8.318   2.033   4.440
27303WAT     H282152   8.221   2.134   4.357
27304WAT      O82153   1.675   5.695   4.818
27304WAT     H182154   1.677   5.654   4.727
27304WAT     H282155   1.584   5.731   4.837
27305WAT      O82156   6.802   7.316   1.165
27305WAT     H182157   6.834   7.224   1.141
27305WAT     H282158   6.836   7.341   1.255
27306WAT      O82159   0.234   6.943   1.575
27306WAT     H182160   0.185   6.866   1.534
27306WAT     H282161   0.224   6.941   1.674
27307WAT      O82162   8.335   6.287   9.350
27307WAT     H182163   8.394   6.337   9.286
27307WAT     H282164   8.385   6.269   9.435
27308WAT      O82165   6.249   3.542   3.698
27308WAT     H182166   6.226   3.445   3.705
27308WAT     H282167   6.245   3.584   3.789
27309WAT      O82168   9.027   1.887   0.816
27309WAT     H182169   8.980   1.818   0.871
27309WAT     H282170   9.096   1.843   0.758
27310WAT      O82171   2.437   2.635   0.649
27310WAT     H182172   2.375   2.645   0.727
27310WAT     H282173   2.512   2.574   0.675
27311WAT      O82174   4.514   1.715   9.232
27311WAT     H182175   4.514   1.812   9.255
27311WAT     H282176   4.420   1.683   9.224
27312WAT      O82177   8.299   7.381   6.716
27312WAT     H182178   8.223   7.337   6.764
27312WAT     H282179   8.385   7.353   6.760
27313WAT      O82180   1.174   1.706   6.294
27313WAT     H182181   1.175   1.631   6.360
27313WAT     H282182   1.096   1.695   6.232
27314WAT      O82183   9.288   4.453   1.424
27314WAT     H182184   9.210   4.443   1.363
27314WAT     H282185   9.264   4.421   1.515
27315WAT      O82186   8.114   0.997   6.293
27315WAT     H182187   8.136   1.094   6.305
27315WAT     H282188   8.176   0.957   6.225
27316WAT      O82189   5.958   7.369   6.787
27316WAT     H182190   6.003   7.433   6.725
27316WAT     H282191   5.978   7.395   6.882
27317WAT      O82192   3.771   2.378   3.542
27317WAT     H182193   3.835   2.435   3.492
27317WAT     H282194   3.816   2.338   3.622
27318WAT      O82195   6.400   3.000   3.667
27318WAT     H182196   6.421   3.094   3.697
27318WAT     H282197   6.456   2.936   3.720
27319WAT      O82198   3.026   6.859   5.674
27319WAT     H182199   3.060   6.848   5.768
27319WAT     H282200   3.048   6.777   5.621
27320WAT      O82201   9.886   7.938   3.144
27320WAT     H182202   9.855   7.968   3.053
27320WAT     H282203   9.824   7.868   3.179
27321WAT      O82204   5.139   2.699   9.565
27321WAT     H182205   5.234   2.681   9.593
27321WAT     H282206   5.077   2.639   9.617
27322WAT      O82207   1.410   6.779   2.588
27322WAT     H182208   1.498   6.808   2.625
27322WAT     H282209   1.405   6.805   2.491
27323WAT      O82210   4.311   8.478   4.961
27323WAT     H182211   4.263   8.463   4.874
27323WAT     H282212   4.273   8.559   5.006
27324WAT      O82213   5.721   8.651   1.365
27324WAT     H182214   5.626   8.639   1.395
27324WAT     H282215   5.780   8.656   1.445
27325WAT      O82216   8.545   8.007   0.151
27325WAT     H182217   8.456   7.991   0.109
27325WAT     H282218   8.614   8.021   0.080
27326WAT      O82219   7.026   5.151   9.822
27326WAT     H182220   7.040   5.053   9.809
27326WAT     H282221   7.032   5.197   9.734
27327WAT      O82222   7.324   7.196   5.038
27327WAT     H182223   7.367   7.267   4.981
27327WAT     H282224   7.305   7.233   5.128
27328WAT      O82225   5.781   6.916   5.793
27328WAT     H182226   5.863   6.891   5.742
27328WAT     H282227   5.732   6.832   5.819
27329WAT      O82228   3.530   6.323   7.347
27329WAT     H182229   3.562   6.263   7.420
27329WAT     H282230   3.507   6.269   7.267
27330WAT      O82231   9.299   6.800   2.374
27330WAT     H182232   9.303   6.878   2.437
27330WAT     H282233   9.246   6.726   2.417
27331WAT      O82234   5.072   3.092   9.269
27331WAT     H182235   4.984   3.137   9.284
27331WAT     H282236   5.101   3.045   9.352
27332WAT      O82237   5.946   7.968   0.401
27332WAT     H182238   5.959   8.034   0.475
27332WAT     H282239   6.008   7.891   0.414
27333WAT      O82240   9.748   8.766   4.626
27333WAT     H182241   9.779   8.733   4.538
27333WAT     H282242   9.787   8.711   4.699
27334WAT      O82243   9.028   8.672   0.835
27334WAT     H182244   9.091   8.703   0.906
27334WAT     H282245   9.079   8.652   0.751
27335WAT      O82246   6.076   3.910   6.480
27335WAT     H182247   6.029   3.963   6.551
27335WAT     H282248   6.043   3.939   6.390
27336WAT      O82249   8.119   4.757   3.960
27336WAT     H182250   8.204   4.808   3.976
27336WAT     H282251   8.052   4.781   4.031
27337WAT      O82252   2.225   0.233   9.719
27337WAT     H182253   2.177   0.203   9.637
27337WAT     H282254   2.195   0.325   9.744
27338WAT      O82255   0.645   2.580   8.518
27338WAT     H182256   0.641   2.670   8.475
27338WAT     H282257   0.654   2.510   8.447
27339WAT      O82258   3.792   1.762   5.291
27339WAT     H182259   3.864   1.744   5.223
27339WAT     H282260   3.784   1.683   5.352
27340WAT      O82261   7.503   3.574   9.455
27340WAT     H182262   7.409   3.587   9.422
27340WAT     H282263   7.548   3.663   9.459
27341WAT      O82264   0.872   8.851   5.452
27341WAT     H182265   0.888   8.875   5.357
27341WAT     H282266   0.936   8.779   5.480
27342WAT      O82267   7.167   4.998   8.357
27342WAT     H182268   7.138   5.084   8.316
27342WAT     H282269   7.234   4.953   8.296
27343WAT      O82270   0.612   5.621   6.497
27343WAT     H182271   0.590   5.685   6.571
27343WAT     H282272   0.533   5.613   6.436
27344WAT      O82273   7.834   1.674   5.813
27344WAT     H182274   7.878   1.670   5.724
27344WAT     H282275   7.735   1.661   5.802
27345WAT      O82276   7.516   0.537   6.369
27345WAT     H182277   7.505   0.632   6.343
27345WAT     H282278   7.439   0.508   6.426
27346WAT      O82279   8.192   4.202   4.146
27346WAT     H182280   8.232   4.110   4.155
27346WAT     H282281   8.097   4.194   4.114
27347WAT      O82282   7.490   2.063   6.677
27347WAT     H182283   7.539   1.998   6.619
27347WAT     H282284   7.548   2.091   6.754
27348WAT      O82285   5.270   6.580   0.228
27348WAT     H182286   5.214   6.552   0.150
27348WAT     H282287   5.238   6.533   0.310
27349WAT      O82288   6.189   7.524   3.276
27349WAT     H182289   6.110   7.530   3.338
27349WAT     H282290   6.181   7.442   3.220
27350WAT      O82291   1.135   6.729   3.241
27350WAT     H182292   1.165   6.758   3.150
27350WAT     H282293   1.134   6.629   3.246
27351WAT      O82294   0.858   3.802   2.692
27351WAT     H182295   0.916   3.818   2.612
27351WAT     H282296   0.902   3.735   2.752
27352WAT      O82297   0.715   9.160   6.058
27352WAT     H182298   0.707   9.081   5.997
27352WAT     H282299   0.629   9.175   6.106
27353WAT      O82300   4.886   2.570   5.296
27353WAT     H182301   4.967   2.612   5.254
27353WAT     H282302   4.803   2.612   5.259
27354WAT      O82303   0.698   7.969   7.640
27354WAT     H182304   0.695   8.067   7.663
27354WAT     H282305   0.724   7.917   7.722
27355WAT      O82306   2.293   3.452   6.457
27355WAT     H182307   2.259   3.539   6.491
27355WAT     H282308   2.376   3.467   6.402
27356WAT      O82309   1.102   6.890   8.371
27356WAT     H182310   1.050   6.911   8.454
27356WAT     H282311   1.096   6.968   8.308
27357WAT      O82312   5.837   3.804   4.580
27357WAT     H182313   5.905   3.866   4.542
27357WAT     H282314   5.755   3.807   4.523
27358WAT      O82315   6.238   8.441   4.116
27358WAT     H182316   6.315   8.390   4.154
27358WAT     H282317   6.156   8.384   4.120
27359WAT      O82318   4.299   0.085   5.561
27359WAT     H182319   4.225   0.048   5.617
27359WAT     H282320   4.363   0.135   5.620
27360WAT      O82321   1.462   6.022   4.194
27360WAT     H182322   1.552   5.979   4.200
27360WAT     H282323   1.428   6.043   4.285
27361WAT      O82324   9.143   5.597   3.242
27361WAT     H182325   9.227   5.636   3.204
27361WAT     H282326   9.075   5.589   3.170
27362WAT      O82327   5.773   1.009   2.741
27362WAT     H182328   5.747   1.090   2.794
27362WAT     H282329   5.740   0.927   2.787
27363WAT      O82330   7.362   0.612   5.555
27363WAT     H182331   7.423   0.670   5.501
27363WAT     H282332   7.355   0.522   5.510
27364WAT      O82333   3.611   2.551   0.696
27364WAT     H182334   3.643   2.461   0.665
27364WAT     H282335   3.642   2.567   0.790
27365WAT      O82336   0.990   8.221   6.008
27365WAT     H182337   1.036   8.264   6.086
27365WAT     H282338   0.998   8.122   6.015
27366WAT      O82339   1.841   2.382   0.458
27366WAT     H182340   1.939   2.378   0.481
27366WAT     H282341   1.793   2.440   0.523
27367WAT      O82342   3.211   5.488   0.807
27367WAT     H182343   3.231   5.572   0.857
27367WAT     H282344   3.120   5.455   0.831
27368WAT      O82345   9.562   4.460   5.220
27368WAT     H182346   9.516   4.548   5.206
27368WAT     H282347   9.547   4.429   5.314
27369WAT      O82348   4.490   6.433   0.227
27369WAT     H182349   4.425   6.358   0.232
27369WAT     H282350   4.444   6.519   0.251
27370WAT      O82351   9.461   0.379   5.212
27370WAT     H182352   9.501   0.365   5.122
27370WAT     H282353   9.494   0.466   5.250
27371WAT      O82354   7.445   7.372   6.498
27371WAT     H182355   7.383   7.426   6.440
27371WAT     H282356   7.536   7.372   6.458
27372WAT      O82357   7.624   2.305   4.703
27372WAT     H182358   7.546   2.245   4.683
27372WAT     H282359   7.591   2.397   4.724
27373WAT      O82360   3.862   6.969   6.540
27373WAT     H182361   3.875   7.018   6.626
27373WAT     H282362   3.781   7.005   6.493
27374WAT      O82363   0.452   3.339   1.744
27374WAT     H182364   0.435   3.338   1.843
27374WAT     H282365   0.507   3.419   1.720
27375WAT      O82366   1.937   5.116   5.968
27375WAT     H182367   1.860   5.060   5.936
27375WAT     H282368   1.992   5.143   5.889
27376WAT      O82369   7.152   1.558   2.615
27376WAT     H182370   7.239   1.580   2.658
27376WAT     H282371   7.145   1.606   2.527
27377WAT      O82372   6.290   8.930   4.695
27377WAT     H182373   6.241   9.017   4.700
27377WAT     H282374   6.225   8.855   4.695
27378WAT      O82375   5.082   5.171   5.924
27378WAT     H182376   5.075   5.116   6.008
27378WAT     H282377   4.991   5.204   5.899
27379WAT      O82378   8.348   3.910   1.811
27379WAT     H182379   8.309   3.865   1.731
27379WAT     H282380   8.298   3.881   1.893
27380WAT      O82381   6.418   7.478   1.351
27380WAT     H182382   6.327   7.472   1.310
27380WAT     H282383   6.449   7.574   1.349
27381WAT      O82384   4.532   3.616   0.621
27381WAT     H182385   4.607   3.609   0.687
27381WAT     H282386   4.483   3.529   0.616
27382WAT      O82387   8.262   4.261   3.433
27382WAT     H182388   8.301   4.198   3.500
27382WAT     H282389   8.328   4.334   3.412
27383WAT      O82390   9.035   0.863   3.287
27383WAT     H182391   9.002   0.801   3.216
27383WAT     H282392   9.009   0.957   3.263
27384WAT      O82393   1.316   3.226   9.114
27384WAT     H182394   1.273   3.148   9.069
27384WAT     H282395   1.361   3.196   9.198
27385WAT      O82396   2.417   7.394   5.180
27385WAT     H182397   2.444   7.310   5.226
27385WAT     H282398   2.379   7.373   5.090
27386WAT      O82399   6.619   6.500   1.346
27386WAT     H182400   6.629   6.414   1.296
27386WAT     H282401   6.548   6.490   1.416
27387WAT      O82402   6.227   5.467   8.788
27387WAT     H182403   6.253   5.553   8.832
27387WAT     H282404   6.221   5.480   8.689
27388WAT      O82405   0.573   0.568   0.929
27388WAT     H182406   0.622   0.481   0.924
27388WAT     H282407   0.612   0.624   1.002
27389WAT      O82408   5.535   0.744   7.903
27389WAT     H182409   5.548   0.787   7.992
27389WAT     H282410   5.610   0.768   7.842
27390WAT      O82411   5.847   9.268   1.055
27390WAT     H182412   5.931   9.312   1.087
27390WAT     H282413   5.863   9.170   1.045
27391WAT      O82414   5.585   0.996   9.111
27391WAT     H182415   5.621   1.079   9.069
27391WAT     H282416   5.490   1.009   9.137
27392WAT      O82417   8.494   3.017   6.941
27392WAT     H182418   8.506   2.948   6.869
27392WAT     H282419   8.494   2.972   7.030
27393WAT      O82420   1.448   5.193   0.238
27393WAT     H182421   1.521   5.261   0.246
27393WAT     H282422   1.483   5.104   0.266
27394WAT      O82423   2.823   9.488   9.149
27394WAT     H182424   2.731   9.509   9.180
27394WAT     H282425   2.823   9.472   9.050
27395WAT      O82426   2.417   3.340   3.777
27395WAT     H182427   2.511   3.335   3.741
27395WAT     H282428   2.358   3.382   3.708
27396WAT      O82429   4.425   6.426   7.237
27396WAT     H182430   4.458   6.348   7.289
27396WAT     H282431   4.400   6.500   7.299
27397WAT      O82432   0.572   3.235   0.810
27397WAT     H182433   0.478   3.228   0.842
27397WAT     H282434   0.598   3.331   0.802
27398WAT      O82435   9.286   0.706   9.809
27398WAT     H182436   9.195   0.671   9.830
27398WAT     H282437   9.355   0.650   9.855
27399WAT      O82438   9.695   7.454   7.420
27399WAT     H182439   9.704   7.355   7.433
27399WAT     H282440   9.697   7.475   7.322
27400WAT      O82441   5.851   2.208   0.512
27400WAT     H182442   5.780   2.265   0.471
27400WAT     H282443   5.809   2.136   0.567
27401WAT      O82444   7.022   3.362   6.403
27401WAT     H182445   7.080   3.332   6.327
27401WAT     H282446   6.960   3.287   6.429
27402WAT      O82447   3.695   4.204   9.380
27402WAT     H182448   3.632   4.127   9.392
27402WAT     H282449   3.682   4.269   9.456
27403WAT      O82450   2.654   0.328   2.062
27403WAT     H182451   2.576   0.267   2.074
27403WAT     H282452   2.624   0.413   2.019
27404WAT      O82453   3.560   4.668   5.519
27404WAT     H182454   3.594   4.709   5.434
27404WAT     H282455   3.566   4.735   5.593
27405WAT      O82456   2.293   9.482   8.299
27405WAT     H182457   2.368   9.469   8.364
27405WAT     H282458   2.314   9.558   8.238
27406WAT      O82459   9.805   3.582   2.581
27406WAT     H182460   9.887   3.635   2.560
27406WAT     H282461   9.759   3.557   2.496
27407WAT      O82462   5.577   2.386   0.707
27407WAT     H182463   5.654   2.334   0.746
27407WAT     H282464   5.494   2.365   0.759
27408WAT      O82465   0.810   1.792   9.680
27408WAT     H182466   0.814   1.702   9.635
27408WAT     H282467   0.785   1.862   9.614
27409WAT      O82468   2.642   8.022   3.323
27409WAT     H182469   2.684   7.988   3.240
27409WAT     H282470   2.648   8.122   3.326
27410WAT      O82471   9.338   4.644   4.697
27410WAT     H182472   9.245   4.638   4.733
27410WAT     H282473   9.344   4.722   4.634
27411WAT      O82474   1.787   0.773   1.685
27411WAT     H182475   1.818   0.689   1.730
27411WAT     H282476   1.828   0.779   1.594
27412WAT      O82477   8.769   0.212   5.747
27412WAT     H182478   8.761   0.291   5.687
27412WAT     H282479   8.777   0.129   5.692
27413WAT      O82480   2.059   0.897   2.981
27413WAT     H182481   2.113   0.946   3.050
27413WAT     H282482   2.012   0.820   3.024
27414WAT      O82483   3.541   9.450   6.899
27414WAT     H182484   3.553   9.501   6.814
27414WAT     H282485   3.478   9.374   6.885
27415WAT      O82486   6.823   5.229   4.235
27415WAT     H182487   6.901   5.292   4.224
27415WAT     H282488   6.857   5.138   4.257
27416WAT      O82489   7.034   9.779   2.862
27416WAT     H182490   7.085   9.769   2.948
27416WAT     H282491   7.030   9.876   2.837
27417WAT      O82492   1.972   7.114   9.223
27417WAT     H182493   1.998   7.037   9.281
27417WAT     H282494   2.050   7.174   9.210
27418WAT      O82495   1.623   0.276   1.625
27418WAT     H182496   1.637   0.238   1.716
27418WAT     H282497   1.540   0.332   1.625
27419WAT      O82498   6.625   5.707   2.124
27419WAT     H182499   6.636   5.614   2.087
27419WAT     H282500   6.554   5.755   2.073
27420WAT      O82501   9.372   8.039   7.631
27420WAT     H182502   9.375   8.049   7.531
27420WAT     H282503   9.303   7.971   7.655
27421WAT      O82504   8.243   4.390   5.944
27421WAT     H182505   8.233   4.291   5.949
27421WAT     H282506   8.231   4.429   6.035
27422WAT      O82507   4.113   9.418   5.977
27422WAT     H182508   4.075   9.408   5.885
27422WAT     H282509   4.039   9.439   6.041
27423WAT      O82510   4.297   1.612   5.760
27423WAT     H182511   4.298   1.610   5.860
27423WAT     H282512   4.230   1.547   5.726
27424WAT      O82513   8.524   4.909   9.027
27424WAT     H182514   8.580   4.839   8.982
27424WAT     H282515   8.427   4.891   9.008
27425WAT      O82516   9.873   5.643   8.461
27425WAT     H182517   9.829   5.688   8.539
27425WAT     H282518   9.839   5.684   8.376
27426WAT      O82519   0.814   7.734   6.391
27426WAT     H182520   0.842   7.752   6.297
27426WAT     H282521   0.724   7.775   6.407
27427WAT      O82522   7.618   7.636   8.797
27427WAT     H182523   7.542   7.593   8.747
27427WAT     H282524   7.696   7.645   8.736
27428WAT      O82525   2.542   8.895   0.508
27428WAT     H182526   2.577   8.921   0.418
27428WAT     H282527   2.570   8.962   0.576
27429WAT      O82528   4.228   1.974   3.889
27429WAT     H182529   4.198   2.055   3.939
27429WAT     H282530   4.324   1.956   3.909
27430WAT      O82531   0.484   3.426   6.725
27430WAT     H182532   0.580   3.404   6.713
27430WAT     H282533   0.462   3.512   6.678
27431WAT      O82534   4.643   4.876   1.161
27431WAT     H182535   4.603   4.967   1.171
27431WAT     H282536   4.685   4.868   1.071
27432WAT      O82537   3.586   9.133   7.945
27432WAT     H182538   3.500   9.173   7.913
27432WAT     H282539   3.617   9.063   7.881
27433WAT      O82540   3.086   4.349   2.629
27433WAT     H182541   3.081   4.449   2.623
27433WAT     H282542   3.109   4.322   2.722
27434WAT      O82543   7.729   4.174   2.622
27434WAT     H182544   7.818   4.180   2.667
27434WAT     H282545   7.742   4.146   2.527
27435WAT      O82546   9.463   6.332   1.951
27435WAT     H182547   9.424   6.280   2.027
27435WAT     H282548   9.399   6.403   1.922
27436WAT      O82549   0.776   6.716   2.293
27436WAT     H182550   0.751   6.619   2.282
27436WAT     H282551   0.821   6.748   2.210
27437WAT      O82552   6.933   7.276   6.653
27437WAT     H182553   6.986   7.192   6.639
27437WAT     H282554   6.946   7.337   6.575
27438WAT      O82555   0.327   3.553   3.237
27438WAT     H182556   0.302   3.648   3.217
27438WAT     H282557   0.392   3.551   3.312
27439WAT      O82558   6.944   1.397   1.572
27439WAT     H182559   6.976   1.324   1.511
27439WAT     H282560   6.902   1.357   1.653
27440WAT      O82561   1.670   9.751   3.981
27440WAT     H182562   1.633   9.754   3.888
27440WAT     H282563   1.674   9.656   4.013
27441WAT      O82564   4.210   2.368   3.277
27441WAT     H182565   4.128   2.311   3.282
27441WAT     H282566   4.283   2.317   3.230
27442WAT      O82567   1.992   6.566   1.512
27442WAT     H182568   2.050   6.614   1.579
27442WAT     H282569   2.038   6.565   1.423
27443WAT      O82570   2.164   6.364   2.912
27443WAT     H182571   2.104   6.286   2.928
27443WAT     H282572   2.259   6.336   2.924
27444WAT      O82573   6.177   5.546   9.555
27444WAT     H182574   6.275   5.568   9.554
27444WAT     H282575   6.163   5.456   9.514
27445WAT      O82576   2.071   5.772   2.478
27445WAT     H182577   2.110   5.743   2.565
27445WAT     H282578   2.026   5.694   2.434
27446WAT      O82579   7.366   1.416   5.589
27446WAT     H182580   7.365   1.510   5.624
27446WAT     H282581   7.278   1.397   5.544
27447WAT      O82582   3.704   7.312   4.205
27447WAT     H182583   3.777   7.338   4.142
27447WAT     H282584   3.620   7.360   4.181
27448WAT      O82585   2.204   2.616   8.847
27448WAT     H182586   2.298   2.613   8.879
27448WAT     H282587   2.200   2.662   8.758
27449WAT      O82588   9.144   3.323   7.011
27449WAT     H182589   9.157   3.422   7.003
27449WAT     H282590   9.093   3.303   7.094
27450WAT      O82591   0.410   5.963   1.435
27450WAT     H182592   0.500   6.002   1.420
27450WAT     H282593   0.342   6.036   1.438
27451WAT      O82594   1.630   4.436   5.849
27451WAT     H182595   1.653   4.469   5.757
27451WAT     H282596   1.538   4.396   5.848
27452WAT      O82597   7.362   5.965   0.195
27452WAT     H182598   7.391   5.984   0.289
27452WAT     H282599   7.285   5.902   0.195
27453WAT      O82600   2.790   3.937   9.831
27453WAT     H182601   2.842   3.869   9.780
27453WAT     H282602   2.823   3.940   9.926
27454WAT      O82603   8.022   8.671   5.167
27454WAT     H182604   8.083   8.711   5.235
27454WAT     H282605   8.014   8.573   5.184
27455WAT      O82606   1.893   2.230   6.716
27455WAT     H182607   1.894   2.317   6.668
27455WAT     H282608   1.799   2.200   6.730
27456WAT      O82609   8.110   0.016   6.336
27456WAT     H182610   8.072   0.102   6.303
27456WAT     H282611   8.056  -0.016   6.414
27457WAT      O82612   1.252   2.882   6.266
27457WAT     H182613   1.286   2.796   6.302
27457WAT     H282614   1.165   2.905   6.310
27458WAT      O82615   9.854   7.009   3.295
27458WAT     H182616   9.835   6.918   3.332
27458WAT     H282617   9.843   7.078   3.367
27459WAT      O82618   8.022   9.399   6.460
27459WAT     H182619   7.997   9.394   6.363
27459WAT     H282620   8.122   9.402   6.468
27460WAT      O82621   7.592   3.001   5.776
27460WAT     H182622   7.629   2.927   5.719
27460WAT     H282623   7.667   3.051   5.818
27461WAT      O82624   7.709   8.601   0.647
27461WAT     H182625   7.700   8.503   0.628
27461WAT     H282626   7.661   8.622   0.732
27462WAT      O82627   0.293   1.685   7.424
27462WAT     H182628   0.292   1.782   7.399
27462WAT     H282629   0.374   1.641   7.385
27463WAT      O82630   0.145   1.011   8.967
27463WAT     H182631   0.092   1.036   8.886
27463WAT     H282632   0.240   0.992   8.940
27464WAT      O82633   1.059   3.337   1.279
27464WAT     H182634   1.096   3.426   1.255
27464WAT     H282635   0.971   3.348   1.325
27465WAT      O82636   6.521   6.167   8.764
27465WAT     H182637   6.539   6.074   8.796
27465WAT     H282638   6.435   6.200   8.803
27466WAT      O82639   6.212   0.198   3.595
27466WAT     H182640   6.270   0.280   3.604
27466WAT     H282641   6.193   0.161   3.686
27467WAT      O82642   6.366   9.444   2.348
27467WAT     H182643   6.415   9.471   2.431
27467WAT     H282644   6.272   9.421   2.371
27468WAT      O82645   0.729   0.358   1.010
27468WAT     H182646   0.675   0.307   1.077
27468WAT     H282647   0.811   0.394   1.054
27469WAT      O82648   3.398   6.246   1.581
27469WAT     H182649   3.434   6.308   1.512
27469WAT     H282650   3.305   6.220   1.558
27470WAT      O82651   3.419   2.905   9.495
27470WAT     H182652   3.320   2.915   9.494
27470WAT     H282653   3.457   2.944   9.411
27471WAT      O82654   6.696   0.168   2.896
27471WAT     H182655   6.722   0.116   2.977
27471WAT     H282656   6.599   0.194   2.903
27472WAT      O82657   7.617   3.164   0.983
27472WAT     H182658   7.567   3.249   1.000
27472WAT     H282659   7.588   3.095   1.050
27473WAT      O82660   1.867   0.225   9.013
27473WAT     H182661   1.824   0.305   8.971
27473WAT     H282662   1.807   0.146   9.003
27474WAT      O82663   3.403   3.631   2.133
27474WAT     H182664   3.358   3.571   2.067
27474WAT     H282665   3.339   3.702   2.162
27475WAT      O82666   9.712   5.074   5.765
27475WAT     H182667   9.803   5.088   5.725
27475WAT     H282668   9.714   4.994   5.825
27476WAT      O82669   4.146   8.116   5.489
27476WAT     H182670   4.159   8.017   5.482
27476WAT     H282671   4.186   8.149   5.574
27477WAT      O82672   4.196   8.295   9.343
27477WAT     H182673   4.239   8.334   9.262
27477WAT     H282674   4.190   8.365   9.414
27478WAT      O82675   4.014   2.655   6.506
27478WAT     H182676   4.097   2.619   6.465
27478WAT     H282677   3.986   2.597   6.583
27479WAT      O82678   0.008   4.158   1.687
27479WAT     H182679  -0.059   4.092   1.655
27479WAT     H282680  -0.035   4.248   1.694
27480WAT      O82681   4.737   4.256   1.265
27480WAT     H182682   4.763   4.160   1.258
27480WAT     H282683   4.637   4.263   1.271
27481WAT      O82684   6.290   7.651   9.107
27481WAT     H182685   6.219   7.707   9.065
27481WAT     H282686   6.262   7.555   9.107
27482WAT      O82687   1.348   2.474   8.568
27482WAT     H182688   1.390   2.459   8.658
27482WAT     H282689   1.270   2.536   8.578
27483WAT      O82690   2.353   8.802   9.102
27483WAT     H182691   2.335   8.714   9.059
27483WAT     H282692   2.444   8.834   9.076
27484WAT      O82693   0.256   3.033   1.172
27484WAT     H182694   0.186   2.967   1.201
27484WAT     H282695   0.331   3.032   1.238
27485WAT      O82696   7.355   1.407   1.329
27485WAT     H182697   7.365   1.393   1.427
27485WAT     H282698   7.371   1.504   1.307
27486WAT      O82699   5.166   5.864   5.833
27486WAT     H182700   5.088   5.925   5.850
27486WAT     H282701   5.218   5.898   5.755
27487WAT      O82702   0.560   9.557   4.494
27487WAT     H182703   0.473   9.547   4.543
27487WAT     H282704   0.585   9.469   4.452
27488WAT      O82705   8.302   3.255   2.022
27488WAT     H182706   8.263   3.323   1.959
27488WAT     H282707   8.270   3.164   1.995
27489WAT      O82708   9.090   8.874   0.464
27489WAT     H182709   9.089   8.974   0.468
27489WAT     H282710   9.004   8.839   0.502
27490WAT      O82711   1.657   6.608   7.423
27490WAT     H182712   1.650   6.515   7.387
27490WAT     H282713   1.732   6.656   7.377
27491WAT      O82714   9.825   0.208   6.363
27491WAT     H182715   9.731   0.176   6.375
27491WAT     H282716   9.872   0.206   6.452
27492WAT      O82717   8.188   2.392   8.213
27492WAT     H182718   8.089   2.380   8.201
27492WAT     H282719   8.233   2.303   8.207
27493WAT      O82720   2.894   7.599   0.944
27493WAT     H182721   2.801   7.611   0.980
27493WAT     H282722   2.927   7.508   0.966
27494WAT      O82723   6.470   0.884   5.494
27494WAT     H182724   6.454   0.841   5.583
27494WAT     H282725   6.383   0.904   5.450
27495WAT      O82726   6.426   4.031   6.072
27495WAT     H182727   6.499   3.990   6.017
27495WAT     H282728   6.340   3.984   6.053
27496WAT      O82729   0.062   3.356   8.562
27496WAT     H182730   0.072   3.269   8.610
27496WAT     H282731  -0.028   3.395   8.582
27497WAT      O82732   0.525   6.917   9.701
27497WAT     H182733   0.466   6.978   9.649
27497WAT     H282734   0.585   6.867   9.639
27498WAT      O82735   6.835   4.414   3.547
27498WAT     H182736   6.877   4.412   3.456
27498WAT     H282737   6.738   4.394   3.539
27499WAT      O82738   3.654   6.879   7.511
27499WAT     H182739   3.663   6.802   7.574
27499WAT     H282740   3.558   6.892   7.488
27500WAT      O82741   4.987   0.943   8.024
27500WAT     H182742   4.965   1.013   7.957
27500WAT     H282743   4.954   0.971   8.114
27501WAT      O82744   0.798   4.935   6.251
27501WAT     H182745   0.762   4.888   6.332
27501WAT     H282746   0.743   4.910   6.171
27502WAT      O82747   9.322   8.910   5.458
27502WAT     H182748   9.422   8.907   5.449
27502WAT     H282749   9.283   8.821   5.433
27503WAT      O82750   9.456   4.016   3.916
27503WAT     H182751   9.531   4.077   3.942
27503WAT     H282752   9.467   3.928   3.962
27504WAT      O82753   4.105   0.509   8.819
27504WAT     H182754   4.053   0.525   8.735
27504WAT     H282755   4.044   0.475   8.890
27505WAT      O82756   5.708   4.920   6.786
27505WAT     H182757   5.648   4.907   6.865
27505WAT     H282758   5.657   4.898   6.703
27506WAT      O82759   1.824   5.412   8.912
27506WAT     H182760   1.851   5.507   8.926
27506WAT     H282761   1.906   5.355   8.911
27507WAT      O82762   6.949   9.408   9.207
27507WAT     H182763   7.037   9.371   9.175
27507WAT     H282764   6.887   9.332   9.225
27508WAT      O82765   6.930   4.079   4.220
27508WAT     H182766   6.854   4.125   4.174
27508WAT     H282767   6.894   4.011   4.284
27509WAT      O82768   5.683   1.161   6.549
27509WAT     H182769   5.706   1.161   6.452
27509WAT     H282770   5.603   1.103   6.565
27510WAT      O82771   9.890   9.646   2.005
27510WAT     H182772   9.826   9.684   1.939
27510WAT     H282773   9.887   9.699   2.089
27511WAT      O82774   8.606   2.067   1.061
27511WAT     H182775   8.699   2.064   1.098
27511WAT     H282776   8.571   1.974   1.051
27512WAT      O82777   0.056   7.103   7.348
27512WAT     H182778   0.130   7.121   7.414
27512WAT     H282779  -0.032   7.123   7.390
27513WAT      O82780   3.267   9.373   2.095
27513WAT     H182781   3.300   9.285   2.060
27513WAT     H282782   3.179   9.359   2.142
27514WAT      O82783   6.507   1.813   9.272
27514WAT     H182784   6.512   1.817   9.172
27514WAT     H282785   6.429   1.868   9.304
27515WAT      O82786   7.725   6.080   0.241
27515WAT     H182787   7.814   6.111   0.274
27515WAT     H282788   7.713   5.983   0.261
27516WAT      O82789   0.177   4.291   6.971
27516WAT     H182790   0.110   4.340   7.026
27516WAT     H282791   0.192   4.200   7.010
27517WAT      O82792   6.812   7.029   6.354
27517WAT     H182793   6.734   6.971   6.328
27517WAT     H282794   6.778   7.118   6.384
27518WAT      O82795   9.428   0.178   4.905
27518WAT     H182796   9.515   0.220   4.931
27518WAT     H282797   9.445   0.096   4.851
27519WAT      O82798   2.186   6.894   7.620
27519WAT     H182799   2.205   6.863   7.527
27519WAT     H282800   2.234   6.836   7.685
27520WAT      O82801   8.955   4.810   3.483
27520WAT     H182802   8.994   4.756   3.557
27520WAT     H282803   8.891   4.877   3.520
27521WAT      O82804   1.238   7.907   6.629
27521WAT     H182805   1.187   7.982   6.672
27521WAT     H282806   1.174   7.837   6.598
27522WAT      O82807   8.246   5.951   3.591
27522WAT     H182808   8.261   5.868   3.644
27522WAT     H282809   8.150   5.956   3.563
27523WAT      O82810   3.682   8.158   9.655
27523WAT     H182811   3.587   8.134   9.638
27523WAT     H282812   3.740   8.077   9.642
27524WAT      O82813   7.530   3.233   0.360
27524WAT     H182814   7.567   3.233   0.267
27524WAT     H282815   7.599   3.267   0.424
27525WAT      O82816   0.490   9.213   0.954
27525WAT     H182817   0.408   9.267   0.935
27525WAT     H282818   0.531   9.244   1.040
27526WAT      O82819   9.339   4.598   2.576
27526WAT     H182820   9.340   4.681   2.632
27526WAT     H282821   9.377   4.522   2.628
27527WAT      O82822   9.365   3.086   9.292
27527WAT     H182823   9.343   3.070   9.388
27527WAT     H282824   9.349   3.002   9.240
27528WAT      O82825   4.006   5.782   8.424
27528WAT     H182826   3.915   5.799   8.387
27528WAT     H282827   4.049   5.708   8.373
27529WAT      O82828   9.025   6.206   4.062
27529WAT     H182829   9.073   6.266   3.998
27529WAT     H282830   9.091   6.162   4.123
27530WAT      O82831   0.103   8.265   6.088
27530WAT     H182832   0.020   8.213   6.069
27530WAT     H282833   0.084   8.339   6.152
27531WAT      O82834   7.569   7.824   9.568
27531WAT     H182835   7.476   7.850   9.543
27531WAT     H282836   7.601   7.883   9.642
27532WAT      O82837   8.291   5.772   5.842
27532WAT     H182838   8.236   5.778   5.926
27532WAT     H282839   8.266   5.846   5.780
27533WAT      O82840   4.007   5.146   2.629
27533WAT     H182841   3.982   5.142   2.532
27533WAT     H282842   4.103   5.120   2.640
27534WAT      O82843   7.198   9.708   4.237
27534WAT     H182844   7.245   9.630   4.277
27534WAT     H282845   7.115   9.677   4.190
27535WAT      O82846   0.837   6.972   5.952
27535WAT     H182847   0.907   7.019   5.899
27535WAT     H282848   0.768   6.935   5.890
27536WAT      O82849   9.585   5.987   6.858
27536WAT     H182850   9.647   5.955   6.786
27536WAT     H282851   9.638   6.006   6.941
27537WAT      O82852   5.548   9.692   3.771
27537WAT     H182853   5.530   9.783   3.809
27537WAT     H282854   5.463   9.638   3.772
27538WAT      O82855   4.808   4.623   9.750
27538WAT     H182856   4.829   4.684   9.673
27538WAT     H282857   4.722   4.576   9.731
27539WAT      O82858   8.186   1.989   1.225
27539WAT     H182859   8.187   2.046   1.307
27539WAT     H282860   8.143   1.900   1.246
27540WAT      O82861   3.258   4.126   5.243
27540WAT     H182862   3.180   4.125   5.305
27540WAT     H282863   3.343   4.127   5.296
27541WAT      O82864   8.775   6.310   1.127
27541WAT     H182865   8.746   6.216   1.111
27541WAT     H282866   8.694   6.369   1.133
27542WAT      O82867   8.731   2.402   5.414
27542WAT     H182868   8.712   2.465   5.339
27542WAT     H282869   8.803   2.338   5.387
27543WAT      O82870   3.934   9.265   7.255
27543WAT     H182871   3.874   9.218   7.190
27543WAT     H282872   4.028   9.237   7.241
27544WAT      O82873   3.818   0.211   2.317
27544WAT     H182874   3.790   0.122   2.282
27544WAT     H282875   3.869   0.199   2.402
27545WAT      O82876   6.554   7.168   0.838
27545WAT     H182877   6.480   7.194   0.900
27545WAT     H282878   6.514   7.136   0.752
27546WAT      O82879   7.022   4.927   5.821
27546WAT     H182880   7.105   4.883   5.855
27546WAT     H282881   7.000   5.005   5.879
27547WAT      O82882   0.876   2.752   4.638
27547WAT     H182883   0.805   2.692   4.599
27547WAT     H282884   0.960   2.743   4.584
27548WAT      O82885   3.685   7.105   4.356
27548WAT     H182886   3.698   7.190   4.306
27548WAT     H282887   3.604   7.057   4.321
27549WAT      O82888   0.085   9.397   1.511
27549WAT     H182889   0.146   9.469   1.544
27549WAT     H282890   0.002   9.395   1.566
27550WAT      O82891   8.872   3.479   7.346
27550WAT     H182892   8.896   3.518   7.435
27550WAT     H282893   8.772   3.477   7.337
27551WAT      O82894   6.763   5.154   8.796
27551WAT     H182895   6.831   5.210   8.749
27551WAT     H282896   6.750   5.069   8.746
27552WAT      O82897   7.360   4.573   0.961
27552WAT     H182898   7.403   4.591   0.872
27552WAT     H282899   7.344   4.660   1.008
27553WAT      O82900   7.492   3.656   2.226
27553WAT     H182901   7.435   3.696   2.155
27553WAT     H282902   7.588   3.670   2.203
27554WAT      O82903   6.938   4.254   7.815
27554WAT     H182904   6.842   4.250   7.844
27554WAT     H282905   6.997   4.236   7.893
27555WAT      O82906   8.277   2.951   7.672
27555WAT     H182907   8.271   2.901   7.758
27555WAT     H282908   8.187   2.955   7.629
27556WAT      O82909   8.642   4.899   9.457
27556WAT     H182910   8.704   4.913   9.380
27556WAT     H282911   8.547   4.907   9.426
27557WAT      O82912   4.575   4.382   9.426
27557WAT     H182913   4.526   4.325   9.360
27557WAT     H282914   4.628   4.323   9.487
27558WAT      O82915   4.952   5.219   8.276
27558WAT     H182916   4.930   5.128   8.311
27558WAT     H282917   5.048   5.222   8.250
27559WAT      O82918   9.788   4.030   3.829
27559WAT     H182919   9.714   4.097   3.823
27559WAT     H282920   9.772   3.957   3.763
27560WAT      O82921   5.247   2.076   8.986
27560WAT     H182922   5.229   2.033   8.898
27560WAT     H282923   5.306   2.017   9.041
27561WAT      O82924   1.093   9.197   6.426
27561WAT     H182925   1.046   9.273   6.471
27561WAT     H282926   1.073   9.199   6.328
27562WAT      O82927   6.695   4.631   1.673
27562WAT     H182928   6.721   4.719   1.711
27562WAT     H282929   6.670   4.569   1.747
27563WAT      O82930   2.810   4.027   1.553
27563WAT     H182931   2.774   3.936   1.573
27563WAT     H282932   2.736   4.086   1.520
27564WAT      O82933   9.041   6.962   2.266
27564WAT     H182934   9.122   6.904   2.273
27564WAT     H282935   9.037   7.002   2.175
27565WAT      O82936   4.949   9.599   0.223
27565WAT     H182937   4.977   9.670   0.157
27565WAT     H282938   4.855   9.572   0.206
27566WAT      O82939   1.987   1.135   0.648
27566WAT     H182940   1.943   1.137   0.558
27566WAT     H282941   1.935   1.075   0.709
27567WAT      O82942   2.499   6.515   8.418
27567WAT     H182943   2.522   6.475   8.507
27567WAT     H282944   2.550   6.469   8.346
27568WAT      O82945   7.613   7.336   7.728
27568WAT     H182946   7.559   7.317   7.645
27568WAT     H282947   7.658   7.424   7.719
27569WAT      O82948   4.699   3.867   6.115
27569WAT     H182949   4.610   3.908   6.131
27569WAT     H282950   4.748   3.919   6.045
27570WAT      O82951   7.359   4.729   4.614
27570WAT     H182952   7.363   4.737   4.714
27570WAT     H282953   7.410   4.648   4.586
27571WAT      O82954   3.283   4.570   5.478
27571WAT     H182955   3.223   4.589   5.400
27571WAT     H282956   3.373   4.612   5.462
27572WAT      O82957   3.483   0.161  -0.000
27572WAT     H182958   3.462   0.067   0.028
27572WAT     H282959   3.582   0.171  -0.010
27573WAT      O82960   7.359   1.757   8.907
27573WAT     H182961   7.371   1.796   8.816
27573WAT     H282962   7.437   1.782   8.965
27574WAT      O82963   8.858   7.171   4.837
27574WAT     H182964   8.886   7.086   4.794
27574WAT     H282965   8.766   7.195   4.809
27575WAT      O82966   0.808   9.207   1.800
27575WAT     H182967   0.835   9.232   1.708
27575WAT     H282968   0.758   9.120   1.798
27576WAT      O82969   3.895   9.544   6.160
27576WAT     H182970   3.810   9.543   6.213
27576WAT     H282971   3.967   9.588   6.214
27577WAT      O82972   2.328   1.086   4.878
27577WAT     H182973   2.393   1.144   4.830
27577WAT     H282974   2.318   0.999   4.831
27578WAT      O82975   8.768   1.117   6.417
27578WAT     H182976   8.721   1.160   6.494
27578WAT     H282977   8.866   1.139   6.420
27579WAT      O82978   8.547   1.232   8.044
27579WAT     H182979   8.452   1.205   8.061
27579WAT     H282980   8.564   1.235   7.945
27580WAT      O82981   8.415   3.696   8.556
27580WAT     H182982   8.501   3.649   8.571
27580WAT     H282983   8.370   3.714   8.644
27581WAT      O82984   7.878   0.262   6.067
27581WAT     H182985   7.867   0.167   6.097
27581WAT     H282986   7.797   0.315   6.092
27582WAT      O82987   3.288   3.822   1.198
27582WAT     H182988   3.320   3.766   1.274
27582WAT     H282989   3.188   3.819   1.193
27583WAT      O82990   5.413   6.975   6.904
27583WAT     H182991   5.324   7.018   6.886
27583WAT     H282992   5.453   7.016   6.986
27584WAT      O82993   0.311   7.084   9.281
27584WAT     H182994   0.342   7.115   9.191
27584WAT     H282995   0.216   7.112   9.294
27585WAT      O82996   5.057   4.005   2.030
27585WAT     H182997   5.013   4.013   1.940
27585WAT     H282998   5.119   4.083   2.043
27586WAT      O82999   7.379   1.628   8.552
27586WAT     H183000   7.302   1.691   8.566
27586WAT     H283001   7.344   1.537   8.531
27587WAT      O83002   0.299   8.230   4.003
27587WAT     H183003   0.370   8.160   4.006
27587WAT     H283004   0.213   8.189   3.974
27588WAT      O83005   2.271   5.310   8.411
27588WAT     H183006   2.269   5.221   8.456
27588WAT     H283007   2.199   5.368   8.450
27589WAT      O83008   6.146   0.480   2.878
27589WAT     H183009   6.221   0.464   2.813
27589WAT     H283010   6.164   0.564   2.929
27590WAT      O83011   9.159   8.637   0.603
27590WAT     H183012   9.169   8.689   0.518
27590WAT     H283013   9.235   8.659   0.664
27591WAT      O83014   7.139   7.017   8.068
27591WAT     H183015   7.198   7.016   7.987
27591WAT     H283016   7.177   6.957   8.138
27592WAT      O83017   6.924   6.165   6.507
27592WAT     H183018   6.863   6.171   6.586
27592WAT     H283019   6.897   6.088   6.449
27593WAT      O83020   2.035   1.244   6.167
27593WAT     H183021   2.126   1.226   6.206
27593WAT     H283022   1.988   1.312   6.222
27594WAT      O83023   1.406   4.219   8.141
27594WAT     H183024   1.400   4.131   8.186
27594WAT     H283025   1.484   4.270   8.176
27595WAT      O83026   7.477   3.424   2.920
27595WAT     H183027   7.427   3.356   2.973
27595WAT     H283028   7.501   3.501   2.979
27596WAT      O83029   4.871   6.771   0.524
27596WAT     H183030   4.930   6.819   0.460
27596WAT     H283031   4.780   6.813   0.524
27597WAT      O83032   4.697   7.021   2.686
27597WAT     H183033   4.770   7.058   2.629
27597WAT     H283034   4.641   7.095   2.722
27598WAT      O83035   2.364   3.144   7.870
27598WAT     H183036   2.449   3.169   7.916
27598WAT     H283037   2.334   3.220   7.813
27599WAT      O83038   8.035   1.859   6.836
27599WAT     H183039   7.956   1.817   6.792
27599WAT     H283040   8.083   1.791   6.892
27600WAT      O83041   7.761   2.364   0.200
27600WAT     H183042   7.856   2.391   0.184
27600WAT     H283043   7.733   2.396   0.291
27601WAT      O83044   7.120   3.082   9.552
27601WAT     H183045   7.105   3.064   9.649
27601WAT     H283046   7.204   3.134   9.540
27602WAT      O83047   4.056   8.912   6.974
27602WAT     H183048   4.051   8.826   6.923
27602WAT     H283049   4.014   8.900   7.064
27603WAT      O83050   3.412   4.635   7.558
27603WAT     H183051   3.494   4.619   7.613
27603WAT     H283052   3.357   4.706   7.601
27604WAT      O83053   3.288   0.571   5.737
27604WAT     H183054   3.286   0.471   5.738
27604WAT     H283055   3.282   0.604   5.643
27605WAT      O83056   3.868   6.255   3.480
27605WAT     H183057   3.917   6.199   3.414
27605WAT     H283058   3.822   6.196   3.546
27606WAT      O83059   6.276   9.329   7.105
27606WAT     H183060   6.191   9.361   7.148
27606WAT     H283061   6.256   9.253   7.044
27607WAT      O83062   8.913   2.803   5.730
27607WAT     H183063   8.896   2.706   5.714
27607WAT     H283064   8.827   2.854   5.725
27608WAT      O83065   4.956   5.288   3.326
27608WAT     H183066   5.001   5.272   3.238
27608WAT     H283067   4.865   5.326   3.311
27609WAT      O83068   7.070   5.396   4.380
27609WAT     H183069   7.068   5.345   4.295
27609WAT     H283070   7.135   5.353   4.444
27610WAT      O83071   7.171   9.177   1.081
27610WAT     H183072   7.224   9.112   1.135
27610WAT     H283073   7.234   9.237   1.030
27611WAT      O83074   2.157   3.548   5.023
27611WAT     H183075   2.181   3.512   4.933
27611WAT     H283076   2.201   3.492   5.093
27612WAT      O83077   1.364   8.279   7.666
27612WAT     H183078   1.432   8.233   7.723
27612WAT     H283079   1.402   8.295   7.575
27613WAT      O83080   2.235   6.027   7.695
27613WAT     H183081   2.267   5.981   7.778
27613WAT     H283082   2.157   5.977   7.658
27614WAT      O83083   2.515   4.733   5.490
27614WAT     H183084   2.455   4.713   5.412
27614WAT     H283085   2.468   4.706   5.575
27615WAT      O83086   3.211   1.950   3.509
27615WAT     H183087   3.302   1.935   3.547
27615WAT     H283088   3.212   2.031   3.451
27616WAT      O83089   1.416   4.886   1.768
27616WAT     H183090   1.384   4.792   1.755
27616WAT     H283091   1.351   4.935   1.825
27617WAT      O83092   2.434   3.416   9.671
27617WAT     H183093   2.383   3.500   9.651
27617WAT     H283094   2.488   3.429   9.754
27618WAT      O83095   7.207   5.524   5.544
27618WAT     H183096   7.297   5.484   5.563
27618WAT     H283097   7.144   5.500   5.617
27619WAT      O83098   0.549   8.522   9.600
27619WAT     H183099   0.480   8.523   9.528
27619WAT     H283100   0.505   8.530   9.690
27620WAT      O83101   1.023   7.390   9.362
27620WAT     H183102   1.028   7.396   9.262
27620WAT     H283103   0.934   7.424   9.393
27621WAT      O83104   4.007   6.602   4.004
27621WAT     H183105   3.951   6.626   4.083
27621WAT     H283106   3.979   6.512   3.969
27622WAT      O83107   7.601   4.798   5.504
27622WAT     H183108   7.699   4.816   5.495
27622WAT     H283109   7.577   4.716   5.452
27623WAT      O83110   7.672   5.511   5.748
27623WAT     H183111   7.764   5.542   5.774
27623WAT     H283112   7.604   5.556   5.805
27624WAT      O83113   2.182   2.520   4.919
27624WAT     H183114   2.254   2.482   4.861
27624WAT     H283115   2.223   2.559   5.001
27625WAT      O83116   0.520   5.291   2.040
27625WAT     H183117   0.604   5.298   2.094
27625WAT     H283118   0.451   5.352   2.079
27626WAT      O83119   6.316   5.399   5.398
27626WAT     H183120   6.398   5.455   5.410
27626WAT     H283121   6.330   5.336   5.322
27627WAT      O83122   2.607   2.405   8.411
27627WAT     H183123   2.705   2.426   8.407
27627WAT     H283124   2.558   2.484   8.449
27628WAT      O83125   1.396   7.846   0.921
27628WAT     H183126   1.431   7.856   1.014
27628WAT     H283127   1.298   7.827   0.924
27629WAT      O83128   7.475   8.574   2.015
27629WAT     H183129   7.474   8.602   2.111
27629WAT     H283130   7.568   8.549   1.988
27630WAT      O83131   9.851   8.995   5.177
27630WAT     H183132   9.942   9.015   5.141
27630WAT     H283133   9.860   8.947   5.265
27631WAT      O83134   0.667   9.730   4.805
27631WAT     H183135   0.722   9.813   4.795
27631WAT     H283136   0.583   9.753   4.856
27632WAT      O83137   2.143   6.151   0.665
27632WAT     H183138   2.091   6.182   0.585
27632WAT     H283139   2.124   6.055   0.683
27633WAT      O83140   4.426   3.819   8.138
27633WAT     H183141   4.502   3.797   8.199
27633WAT     H283142   4.438   3.912   8.102
27634WAT      O83143   3.717   2.758   0.909
27634WAT     H183144   3.654   2.835   0.919
27634WAT     H283145   3.685   2.682   0.965
27635WAT      O83146   1.421   3.919   3.691
27635WAT     H183147   1.324   3.942   3.689
27635WAT     H283148   1.432   3.820   3.693
27636WAT      O83149   3.165   4.622   3.422
27636WAT     H183150   3.118   4.704   3.455
27636WAT     H283151   3.114   4.584   3.344
27637WAT      O83152   4.278   0.885   2.648
27637WAT     H183153   4.301   0.883   2.551
27637WAT     H283154   4.362   0.889   2.703
27638WAT      O83155   9.814   3.073   6.703
27638WAT     H183156   9.899   3.022   6.687
27638WAT     H283157   9.827   3.136   6.779
27639WAT      O83158   7.828   3.210   4.945
27639WAT     H183159   7.735   3.243   4.932
27639WAT     H283160   7.889   3.257   4.882
27640WAT      O83161   4.473   3.990   2.496
27640WAT     H183162   4.486   4.075   2.547
27640WAT     H283163   4.496   4.005   2.400
27641WAT      O83164   8.993   6.505   6.627
27641WAT     H183165   9.071   6.542   6.678
27641WAT     H283166   9.017   6.416   6.588
27642WAT      O83167   8.368   0.686   3.026
27642WAT     H183168   8.340   0.767   2.974
27642WAT     H283169   8.466   0.690   3.043
27643WAT      O83170   0.532   6.050   5.366
27643WAT     H183171   0.496   6.135   5.326
27643WAT     H283172   0.457   5.986   5.379
27644WAT      O83173   4.174   0.869   5.643
27644WAT     H183174   4.249   0.917   5.599
27644WAT     H283175   4.132   0.804   5.579
27645WAT      O83176   7.928   3.853   1.133
27645WAT     H183177   7.997   3.898   1.076
27645WAT     H283178   7.970   3.777   1.182
27646WAT      O83179   3.593   0.818   8.823
27646WAT     H183180   3.649   0.772   8.892
27646WAT     H283181   3.586   0.915   8.846
27647WAT      O83182   1.413   2.937   7.333
27647WAT     H183183   1.348   2.903   7.401
27647WAT     H283184   1.372   2.931   7.242
27648WAT      O83185   6.075   1.964   3.650
27648WAT     H183186   6.074   2.034   3.722
27648WAT     H283187   6.130   1.996   3.573
27649WAT      O83188   7.940   2.800   3.283
27649WAT     H183189   7.872   2.834   3.219
27649WAT     H283190   8.013   2.753   3.233
27650WAT      O83191   0.729   4.407   7.025
27650WAT     H183192   0.775   4.420   6.937
27650WAT     H283193   0.645   4.355   7.011
27651WAT      O83194   5.431   6.394   1.065
27651WAT     H183195   5.439   6.475   1.008
27651WAT     H283196   5.351   6.341   1.036
27652WAT      O83197   2.397   8.185   4.568
27652WAT     H183198   2.375   8.102   4.619
27652WAT     H283199   2.447   8.248   4.628
27653WAT      O83200   3.703   2.711   4.380
27653WAT     H183201   3.662   2.787   4.329
27653WAT     H283202   3.637   2.636   4.387
27654WAT      O83203   1.810   0.810   9.228
27654WAT     H183204   1.871   0.847   9.159
27654WAT     H283205   1.827   0.712   9.239
27655WAT      O83206   7.943   3.430   6.077
27655WAT     H183207   7.915   3.468   5.989
27655WAT     H283208   7.894   3.478   6.150
27656WAT      O83209   7.314   2.421   9.523
27656WAT     H183210   7.386   2.360   9.490
27656WAT     H283211   7.356   2.500   9.569
27657WAT      O83212   4.228   6.912   6.007
27657WAT     H183213   4.297   6.985   6.012
27657WAT     H283214   4.206   6.881   6.100
27658WAT      O83215   5.139   3.939   8.670
27658WAT     H183216   5.148   3.842   8.649
27658WAT     H283217   5.089   3.950   8.756
27659WAT      O83218   3.097   4.496   4.074
27659WAT     H183219   3.145   4.582   4.092
27659WAT     H283220   3.078   4.488   3.976
27660WAT      O83221   5.613   3.370   0.929
27660WAT     H183222   5.667   3.307   0.984
27660WAT     H283223   5.519   3.371   0.962
27661WAT      O83224   7.158   0.189   7.713
27661WAT     H183225   7.233   0.125   7.699
27661WAT     H283226   7.181   0.252   7.787
27662WAT      O83227   6.619   0.328   3.314
27662WAT     H183228   6.631   0.408   3.372
27662WAT     H283229   6.654   0.348   3.222
27663WAT      O83230   0.133   4.614   3.484
27663WAT     H183231   0.200   4.585   3.416
27663WAT     H283232   0.074   4.537   3.508
27664WAT      O83233   4.170   8.908   6.246
27664WAT     H183234   4.149   8.871   6.337
27664WAT     H283235   4.251   8.965   6.251
27665WAT      O83236   5.699   0.565   4.824
27665WAT     H183237   5.625   0.545   4.887
27665WAT     H283238   5.787   0.550   4.870
27666WAT      O83239   7.628   1.355   6.626
27666WAT     H183240   7.581   1.406   6.554
27666WAT     H283241   7.712   1.315   6.588
27667WAT      O83242   5.226   5.418   8.072
27667WAT     H183243   5.241   5.501   8.127
27667WAT     H283244   5.294   5.413   8.000
27668WAT      O83245   8.777   2.318   1.255
27668WAT     H183246   8.784   2.236   1.199
27668WAT     H283247   8.868   2.342   1.290
27669WAT      O83248   9.253   1.174   6.299
27669WAT     H183249   9.301   1.093   6.265
27669WAT     H283250   9.285   1.255   6.248
27670WAT      O83251   8.020   1.474   8.833
27670WAT     H183252   8.030   1.569   8.862
27670WAT     H283253   8.063   1.414   8.901
27671WAT      O83254   6.004   6.445   2.008
27671WAT     H183255   5.940   6.478   2.077
27671WAT     H283256   6.016   6.346   2.018
27672WAT      O83257   1.579   8.549   1.052
27672WAT     H183258   1.491   8.586   1.022
27672WAT     H283259   1.587   8.557   1.151
27673WAT      O83260   3.358   3.902   7.126
27673WAT     H183261   3.263   3.933   7.113
27673WAT     H283262   3.412   3.927   7.046
27674WAT      O83263   7.263   0.914   3.639
27674WAT     H183264   7.231   0.850   3.569
27674WAT     H283265   7.208   0.903   3.722
27675WAT      O83266   9.733   8.254   5.994
27675WAT     H183267   9.764   8.337   5.947
27675WAT     H283268   9.672   8.278   6.069
27676WAT      O83269   4.623   2.636   5.213
27676WAT     H183270   4.593   2.658   5.120
27676WAT     H283271   4.608   2.538   5.230
27677WAT      O83272   2.001   5.832   0.455
27677WAT     H183273   2.042   5.803   0.542
27677WAT     H283274   1.919   5.777   0.438
27678WAT      O83275   6.952   4.458   6.443
27678WAT     H183276   6.868   4.428   6.400
27678WAT     H283277   6.942   4.552   6.475
27679WAT      O83278   9.639   3.817   6.788
27679WAT     H183279   9.694   3.734   6.791
27679WAT     H283280   9.593   3.830   6.876
27680WAT      O83281   8.830   3.301   4.447
27680WAT     H183282   8.808   3.308   4.349
27680WAT     H283283   8.928   3.287   4.458
27681WAT      O83284   3.609   8.812   6.181
27681WAT     H183285   3.697   8.765   6.189
27681WAT     H283286   3.556   8.772   6.106
27682WAT      O83287   0.831   5.301   5.511
27682WAT     H183288   0.878   5.388   5.525
27682WAT     H283289   0.853   5.265   5.421
27683WAT      O83290   1.662   2.179   5.763
27683WAT     H183291   1.640   2.225   5.849
27683WAT     H283292   1.627   2.086   5.764
27684WAT      O83293   3.532   9.468   0.681
27684WAT     H183294   3.513   9.422   0.594
27684WAT     H283295   3.529   9.567   0.668
27685WAT      O83296   2.310   4.436   3.771
27685WAT     H183297   2.302   4.396   3.680
27685WAT     H283298   2.225   4.420   3.822
27686WAT      O83299   3.164   6.494   6.053
27686WAT     H183300   3.174   6.426   5.980
27686WAT     H283301   3.249   6.500   6.105
27687WAT      O83302   2.194   1.444   8.344
27687WAT     H183303   2.225   1.527   8.298
27687WAT     H283304   2.273   1.390   8.373
27688WAT      O83305   7.746   2.302   8.546
27688WAT     H183306   7.689   2.272   8.470
27688WAT     H283307   7.744   2.233   8.618
27689WAT      O83308   2.266   2.706   1.793
27689WAT     H183309   2.254   2.719   1.694
27689WAT     H283310   2.184   2.739   1.841
27690WAT      O83311   7.796   9.175   7.677
27690WAT     H183312   7.749   9.211   7.596
27690WAT     H283313   7.737   9.108   7.723
27691WAT      O83314   1.507   5.215   3.593
27691WAT     H183315   1.545   5.278   3.661
27691WAT     H283316   1.408   5.223   3.592
27692WAT      O83317   0.458   5.465   9.854
27692WAT     H183318   0.429   5.406   9.778
27692WAT     H283319   0.443   5.416   9.940
27693WAT      O83320   5.715   7.681   7.555
27693WAT     H183321   5.771   7.611   7.511
27693WAT     H283322   5.669   7.642   7.635
27694WAT      O83323   5.156   2.327   6.483
27694WAT     H183324   5.068   2.369   6.502
27694WAT     H283325   5.189   2.280   6.565
27695WAT      O83326   2.506   6.503   9.437
27695WAT     H183327   2.590   6.466   9.398
27695WAT     H283328   2.528   6.559   9.517
27696WAT      O83329   2.399   4.642   5.078
27696WAT     H183330   2.448   4.724   5.107
27696WAT     H283331   2.447   4.601   5.000
27697WAT      O83332   0.037   7.364   3.227
27697WAT     H183333   0.095   7.444   3.212
27697WAT     H283334   0.086   7.297   3.282
27698WAT      O83335   6.100   3.634   4.536
27698WAT     H183336   6.066   3.567   4.470
27698WAT     H283337   6.081   3.727   4.503
27699WAT      O83338   5.946   7.450   5.978
27699WAT     H183339   6.038   7.487   5.970
27699WAT     H283340   5.939   7.366   5.923
27700WAT      O83341   4.772   5.570   3.670
27700WAT     H183342   4.830   5.625   3.730
27700WAT     H283343   4.737   5.627   3.596
27701WAT      O83344   1.740   1.328   2.808
27701WAT     H183345   1.817   1.309   2.747
27701WAT     H283346   1.655   1.323   2.756
27702WAT      O83347   5.955   3.433   4.419
27702WAT     H183348   5.880   3.418   4.355
27702WAT     H283349   6.036   3.383   4.389
27703WAT      O83350   9.809   8.295   0.165
27703WAT     H183351   9.735   8.325   0.226
27703WAT     H283352   9.782   8.310   0.070
27704WAT      O83353   0.677   9.584   3.288
27704WAT     H183354   0.592   9.605   3.338
27704WAT     H283355   0.720   9.503   3.328
27705WAT      O83356   6.582   9.029   1.629
27705WAT     H183357   6.622   9.098   1.689
27705WAT     H283358   6.510   8.979   1.679
27706WAT      O83359   2.661   2.909   3.134
27706WAT     H183360   2.695   3.002   3.148
27706WAT     H283361   2.576   2.912   3.082
27707WAT      O83362   6.779   7.778   2.454
27707WAT     H183363   6.745   7.699   2.506
27707WAT     H283364   6.869   7.804   2.488
27708WAT      O83365   7.892   7.069   7.049
27708WAT     H183366   7.967   7.122   7.088
27708WAT     H283367   7.827   7.131   7.006
27709WAT      O83368   4.596   1.864   3.739
27709WAT     H183369   4.541   1.875   3.822
27709WAT     H283370   4.675   1.925   3.744
27710WAT      O83371   1.981   7.900   4.033
27710WAT     H183372   1.919   7.879   4.108
27710WAT     H283373   1.939   7.874   3.946
27711WAT      O83374   9.243   6.863   5.324
27711WAT     H183375   9.237   6.820   5.234
27711WAT     H283376   9.327   6.833   5.369
27712WAT      O83377   9.482   9.149   6.801
27712WAT     H183378   9.568   9.175   6.846
27712WAT     H283379   9.470   9.050   6.808
27713WAT      O83380   4.652   0.594   2.546
27713WAT     H183381   4.661   0.512   2.489
27713WAT     H283382   4.631   0.567   2.640
27714WAT      O83383   8.691   3.667   1.622
27714WAT     H183384   8.637   3.641   1.702
27714WAT     H283385   8.776   3.614   1.621
27715WAT      O83386   2.782   2.688   4.543
27715WAT     H183387   2.687   2.698   4.510
27715WAT     H283388   2.817   2.599   4.515
27716WAT      O83389   3.057   9.791   6.842
27716WAT     H183390   2.974   9.845   6.850
27716WAT     H283391   3.114   9.805   6.923
27717WAT      O83392   2.255   1.767   4.852
27717WAT     H183393   2.322   1.836   4.825
27717WAT     H283394   2.266   1.745   4.949
27718WAT      O83395   5.845   2.031   4.049
27718WAT     H183396   5.866   1.937   4.025
27718WAT     H283397   5.913   2.092   4.009
27719WAT      O83398   3.149   1.217   9.878
27719WAT     H183399   3.050   1.214   9.874
27719WAT     H283400   3.180   1.185   9.968
27720WAT      O83401   5.215   0.105   9.725
27720WAT     H183402   5.151   0.033   9.751
27720WAT     H283403   5.235   0.162   9.805
27721WAT      O83404   3.353   7.171   2.588
27721WAT     H183405   3.423   7.189   2.519
27721WAT     H283406   3.380   7.212   2.675
27722WAT      O83407   6.676   2.365   2.824
27722WAT     H183408   6.675   2.464   2.837
27722WAT     H283409   6.583   2.332   2.810
27723WAT      O83410   8.272   6.469   4.617
27723WAT     H183411   8.239   6.376   4.604
27723WAT     H283412   8.359   6.468   4.667
27724WAT      O83413   7.843   0.792   1.044
27724WAT     H183414   7.816   0.850   1.122
27724WAT     H283415   7.773   0.799   0.972
27725WAT      O83416   1.749   1.118   8.163
27725WAT     H183417   1.709   1.052   8.226
27725WAT     H283418   1.826   1.165   8.207
27726WAT      O83419   2.231   2.612   2.573
27726WAT     H183420   2.228   2.648   2.666
27726WAT     H283421   2.202   2.516   2.573
27727WAT      O83422   8.228   1.587   4.441
27727WAT     H183423   8.269   1.615   4.354
27727WAT     H283424   8.239   1.488   4.453
27728WAT      O83425   5.593   7.803   5.405
27728WAT     H183426   5.527   7.879   5.402
27728WAT     H283427   5.672   7.830   5.461
27729WAT      O83428   3.581   6.790   0.514
27729WAT     H183429   3.679   6.783   0.492
27729WAT     H283430   3.565   6.752   0.605
27730WAT      O83431   7.792   6.795   4.579
27730WAT     H183432   7.715   6.767   4.635
27730WAT     H283433   7.837   6.874   4.622
27731WAT      O83434   4.718   2.954   4.549
27731WAT     H183435   4.698   3.026   4.484
27731WAT     H283436   4.817   2.940   4.554
27732WAT      O83437   6.979   4.299   4.667
27732WAT     H183438   7.061   4.351   4.693
27732WAT     H283439   6.926   4.352   4.600
27733WAT      O83440   7.645   4.061   3.386
27733WAT     H183441   7.718   4.048   3.319
27733WAT     H283442   7.616   4.157   3.386
27734WAT      O83443   7.324   9.235   8.574
27734WAT     H183444   7.407   9.195   8.613
27734WAT     H283445   7.278   9.291   8.642
27735WAT      O83446   0.213   7.930   5.098
27735WAT     H183447   0.293   7.900   5.150
27735WAT     H283448   0.230   7.920   5.000
27736WAT      O83449   4.658   2.628   2.218
27736WAT     H183450   4.642   2.631   2.119
27736WAT     H283451   4.686   2.719   2.249
27737WAT      O83452   6.249   9.687   4.896
27737WAT     H183453   6.166   9.718   4.943
27737WAT     H283454   6.305   9.634   4.959
27738WAT      O83455   5.340   0.217   0.351
27738WAT     H183456   5.298   0.188   0.265
27738WAT     H283457   5.400   0.295   0.333
27739WAT      O83458   3.262   2.920   5.298
27739WAT     H183459   3.264   2.951   5.203
27739WAT     H283460   3.168   2.901   5.325
27740WAT      O83461   4.255   8.833   9.701
27740WAT     H183462   4.163   8.827   9.661
27740WAT     H283463   4.252   8.795   9.794
27741WAT      O83464   5.171   1.438   8.650
27741WAT     H183465   5.238   1.512   8.651
27741WAT     H283466   5.179   1.383   8.733
27742WAT      O83467   1.860   5.278   4.773
27742WAT     H183468   1.894   5.184   4.775
27742WAT     H283469   1.916   5.332   4.710
27743WAT      O83470   4.731   6.638   4.986
27743WAT     H183471   4.689   6.603   5.070
27743WAT     H283472   4.683   6.720   4.956
27744WAT      O83473   6.068   3.023   1.578
27744WAT     H183474   5.985   3.078   1.586
27744WAT     H283475   6.082   2.996   1.483
27745WAT      O83476   0.807   8.176   0.214
27745WAT     H183477   0.710   8.197   0.208
27745WAT     H283478   0.852   8.203   0.129
27746WAT      O83479   5.031   7.154   2.857
27746WAT     H183480   5.080   7.231   2.898
27746WAT     H283481   4.985   7.185   2.774
27747WAT      O83482   5.180   9.476   8.920
27747WAT     H183483   5.157   9.381   8.943
27747WAT     H283484   5.112   9.537   8.962
27748WAT      O83485   9.377   9.326   3.631
27748WAT     H183486   9.391   9.237   3.589
27748WAT     H283487   9.400   9.320   3.728
27749WAT      O83488   2.790   6.455   6.188
27749WAT     H183489   2.861   6.522   6.209
27749WAT     H283490   2.722   6.497   6.127
27750WAT      O83491   3.722   2.195   0.206
27750WAT     H183492   3.741   2.105   0.167
27750WAT     H283493   3.634   2.229   0.172
27751WAT      O83494   7.729   6.265   4.600
27751WAT     H183495   7.800   6.268   4.670
27751WAT     H283496   7.732   6.351   4.547
27752WAT      O83497   8.128   6.932   6.706
27752WAT     H183498   8.166   6.950   6.616
27752WAT     H283499   8.194   6.881   6.761
27753WAT      O83500   7.856   8.044   4.708
27753WAT     H183501   7.937   8.029   4.764
27753WAT     H283502   7.821   8.137   4.722
27754WAT      O83503   0.447   5.602   3.026
27754WAT     H183504   0.407   5.674   3.083
27754WAT     H283505   0.444   5.630   2.930
27755WAT      O83506   4.091   0.397   8.474
27755WAT     H183507   4.070   0.344   8.392
27755WAT     H283508   4.118   0.335   8.547
27756WAT      O83509   6.125   4.811   7.453
27756WAT     H183510   6.106   4.747   7.378
27756WAT     H283511   6.106   4.904   7.422
27757WAT      O83512   9.295   8.970   6.009
27757WAT     H183513   9.254   8.879   6.010
27757WAT     H283514   9.236   9.032   5.957
27758WAT      O83515   0.701   7.867   2.734
27758WAT     H183516   0.666   7.926   2.661
27758WAT     H283517   0.666   7.774   2.721
27759WAT      O83518   3.312   8.817   1.669
27759WAT     H183519   3.267   8.728   1.676
27759WAT     H283520   3.253   8.880   1.618
27760WAT      O83521   1.218   8.111   3.830
27760WAT     H183522   1.180   8.045   3.767
27760WAT     H283523   1.270   8.180   3.779
27761WAT      O83524   5.286   2.382   1.593
27761WAT     H183525   5.231   2.457   1.557
27761WAT     H283526   5.226   2.314   1.635
27762WAT      O83527   5.033   4.517   9.518
27762WAT     H183528   5.093   4.477   9.449
27762WAT     H283529   4.979   4.591   9.476
27763WAT      O83530   1.927   7.673   7.017
27763WAT     H183531   1.857   7.635   7.077
27763WAT     H283532   2.005   7.704   7.071
27764WAT      O83533   6.091   5.093   2.204
27764WAT     H183534   6.050   5.003   2.193
27764WAT     H283535   6.153   5.092   2.283
27765WAT      O83536   5.344   5.617   8.193
27765WAT     H183537   5.411   5.684   8.160
27765WAT     H283538   5.270   5.665   8.241
27766WAT      O83539   1.604   2.162   4.834
27766WAT     H183540   1.579   2.118   4.921
27766WAT     H283541   1.549   2.244   4.821
27767WAT      O83542   8.365   0.007   3.460
27767WAT     H183543   8.335   0.043   3.548
27767WAT     H283544   8.288  -0.039   3.415
27768WAT      O83545   2.012   3.280   7.025
27768WAT     H183546   2.046   3.303   6.934
27768WAT     H283547   2.014   3.361   7.084
27769WAT      O83548   5.201   0.570   5.521
27769WAT     H183549   5.234   0.654   5.564
27769WAT     H283550   5.276   0.525   5.472
27770WAT      O83551   8.853   3.039   3.256
27770WAT     H183552   8.932   2.989   3.219
27770WAT     H283553   8.796   2.977   3.309
27771WAT      O83554   6.823   0.172   9.844
27771WAT     H183555   6.855   0.088   9.889
27771WAT     H283556   6.735   0.154   9.799
27772WAT      O83557   7.240   6.409   2.304
27772WAT     H183558   7.145   6.403   2.273
27772WAT     H283559   7.245   6.381   2.400
27773WAT      O83560   1.085   3.345   4.462
27773WAT     H183561   1.131   3.405   4.397
27773WAT     H283562   0.989   3.372   4.470
27774WAT      O83563   8.223   4.312   3.773
27774WAT     H183564   8.283   4.337   3.849
27774WAT     H283565   8.147   4.377   3.768
27775WAT      O83566   4.467   6.179   1.334
27775WAT     H183567   4.457   6.260   1.276
27775WAT     H283568   4.499   6.102   1.278
27776WAT      O83569   5.495   3.598   2.518
27776WAT     H183570   5.485   3.697   2.530
27776WAT     H283571   5.417   3.564   2.465
27777WAT      O83572   8.890   9.579   8.678
27777WAT     H183573   8.959   9.555   8.610
27777WAT     H283574   8.799   9.575   8.636
27778WAT      O83575   0.456   6.214   0.264
27778WAT     H183576   0.473   6.267   0.181
27778WAT     H283577   0.470   6.117   0.245
27779WAT      O83578   4.580   2.844   3.475
27779WAT     H183579   4.502   2.854   3.415
27779WAT     H283580   4.590   2.927   3.531
27780WAT      O83581   4.757   8.686   6.169
27780WAT     H183582   4.731   8.759   6.232
27780WAT     H283583   4.831   8.718   6.110
27781WAT      O83584   0.182   0.070   8.153
27781WAT     H183585   0.116   0.100   8.222
27781WAT     H283586   0.258   0.135   8.149
27782WAT      O83587   7.035   5.071   2.697
27782WAT     H183588   7.134   5.079   2.707
27782WAT     H283589   6.993   5.065   2.787
27783WAT      O83590   0.192   8.953   7.197
27783WAT     H183591   0.275   8.968   7.250
27783WAT     H283592   0.193   9.011   7.115
27784WAT      O83593   8.871   8.045   7.146
27784WAT     H183594   8.849   8.131   7.100
27784WAT     H283595   8.800   8.023   7.213
27785WAT      O83596   0.358   6.869   9.006
27785WAT     H183597   0.429   6.799   9.005
27785WAT     H283598   0.286   6.842   9.070
27786WAT      O83599   6.514   4.104   6.698
27786WAT     H183600   6.599   4.090   6.647
27786WAT     H283601   6.534   4.155   6.782
27787WAT      O83602   1.868   2.764   2.762
27787WAT     H183603   1.833   2.824   2.689
27787WAT     H283604   1.844   2.803   2.851
27788WAT      O83605   8.301   7.017   9.384
27788WAT     H183606   8.339   7.108   9.401
27788WAT     H283607   8.218   7.025   9.328
27789WAT      O83608   0.131   4.706   8.007
27789WAT     H183609   0.048   4.669   8.048
27789WAT     H283610   0.210   4.674   8.060
27790WAT      O83611   8.150   5.830   6.083
27790WAT     H183612   8.081   5.901   6.072
27790WAT     H283613   8.193   5.839   6.172
27791WAT      O83614   1.790   4.668   8.487
27791WAT     H183615   1.696   4.653   8.456
27791WAT     H283616   1.793   4.748   8.547
27792WAT      O83617   9.102   5.358   1.836
27792WAT     H183618   9.158   5.408   1.770
27792WAT     H283619   9.065   5.276   1.793
27793WAT      O83620   7.374   6.744   2.543
27793WAT     H183621   7.400   6.718   2.636
27793WAT     H283622   7.427   6.823   2.514
27794WAT      O83623   0.688   8.693   8.031
27794WAT     H183624   0.721   8.782   8.000
27794WAT     H283625   0.604   8.669   7.982
27795WAT      O83626   2.497   0.197   3.580
27795WAT     H183627   2.492   0.130   3.507
27795WAT     H283628   2.412   0.195   3.633
27796WAT      O83629   3.501   2.110   3.674
27796WAT     H183630   3.586   2.094   3.625
27796WAT     H283631   3.489   2.040   3.744
27797WAT      O83632   7.558   5.163   4.397
27797WAT     H183633   7.513   5.082   4.434
27797WAT     H283634   7.491   5.219   4.349
27798WAT      O83635   7.391   8.851   1.111
27798WAT     H183636   7.419   8.774   1.168
27798WAT     H283637   7.342   8.918   1.167
27799WAT      O83638   0.607   1.488   2.253
27799WAT     H183639   0.519   1.481   2.300
27799WAT     H283640   0.592   1.487   2.154
27800WAT      O83641   0.842   6.863   1.806
27800WAT     H183642   0.767   6.836   1.747
27800WAT     H283643   0.915   6.905   1.752
27801WAT      O83644   6.674   3.780   0.384
27801WAT     H183645   6.615   3.700   0.398
27801WAT     H283646   6.760   3.766   0.433
27802WAT      O83647   4.900   5.985   3.863
27802WAT     H183648   4.985   6.038   3.870
27802WAT     H283649   4.897   5.940   3.774
27803WAT      O83650   4.894   0.210   8.322
27803WAT     H183651   4.892   0.118   8.361
27803WAT     H283652   4.912   0.204   8.224
27804WAT      O83653   1.733   0.381   7.271
27804WAT     H183654   1.635   0.400   7.262
27804WAT     H283655   1.754   0.295   7.224
27805WAT      O83656   8.034   6.925   3.756
27805WAT     H183657   7.966   6.913   3.684
27805WAT     H283658   8.077   7.015   3.747
27806WAT      O83659   0.694   5.385   8.077
27806WAT     H183660   0.652   5.474   8.059
27806WAT     H283661   0.623   5.318   8.099
27807WAT      O83662   2.854   3.330   4.404
27807WAT     H183663   2.868   3.249   4.460
27807WAT     H283664   2.833   3.302   4.310
27808WAT      O83665   3.042   2.489   2.089
27808WAT     H183666   2.963   2.441   2.127
27808WAT     H283667   3.069   2.563   2.152
27809WAT      O83668   4.595   6.675   3.420
27809WAT     H183669   4.597   6.629   3.508
27809WAT     H283670   4.549   6.764   3.430
27810WAT      O83671   9.385   8.421   0.926
27810WAT     H183672   9.294   8.430   0.885
27810WAT     H283673   9.405   8.325   0.941
27811WAT      O83674   7.104   5.907   0.992
27811WAT     H183675   7.042   5.944   0.923
27811WAT     H283676   7.196   5.898   0.953
27812WAT      O83677   8.629   3.267   8.376
27812WAT     H183678   8.639   3.288   8.473
27812WAT     H283679   8.715   3.228   8.341
27813WAT      O83680   3.066   8.438   7.400
27813WAT     H183681   3.115   8.524   7.415
27813WAT     H283682   3.108   8.388   7.325
27814WAT      O83683   1.377   3.835   7.003
27814WAT     H183684   1.317   3.882   6.938
27814WAT     H283685   1.437   3.772   6.953
27815WAT      O83686   4.858   4.582   6.040
27815WAT     H183687   4.791   4.511   6.062
27815WAT     H283688   4.857   4.600   5.942
27816WAT      O83689   5.331   9.573   7.343
27816WAT     H183690   5.344   9.631   7.423
27816WAT     H283691   5.234   9.570   7.318
27817WAT      O83692   3.934   5.867   9.224
27817WAT     H183693   3.906   5.947   9.277
27817WAT     H283694   3.948   5.893   9.129
27818WAT      O83695   7.437   6.308   4.782
27818WAT     H183696   7.422   6.240   4.711
27818WAT     H283697   7.459   6.262   4.868
27819WAT      O83698   6.392   9.119   5.239
27819WAT     H183699   6.316   9.090   5.180
27819WAT     H283700   6.456   9.043   5.250
27820WAT      O83701   4.196   7.221   2.419
27820WAT     H183702   4.207   7.319   2.439
27820WAT     H283703   4.276   7.171   2.451
27821WAT      O83704   7.907   1.344   1.547
27821WAT     H183705   7.910   1.376   1.642
27821WAT     H283706   7.911   1.244   1.547
27822WAT      O83707   6.890   9.312   0.902
27822WAT     H183708   6.965   9.377   0.890
27822WAT     H283709   6.912   9.227   0.854
27823WAT      O83710   2.879   6.048   3.711
27823WAT     H183711   2.876   6.031   3.613
27823WAT     H283712   2.785   6.054   3.746
27824WAT      O83713   9.577   4.322   8.684
27824WAT     H183714   9.578   4.337   8.585
27824WAT     H283715   9.537   4.232   8.703
27825WAT      O83716   0.360   3.194   8.299
27825WAT     H183717   0.354   3.104   8.343
27825WAT     H283718   0.270   3.237   8.298
27826WAT      O83719   1.077   2.889   8.981
27826WAT     H183720   1.062   2.804   8.931
27826WAT     H283721   1.167   2.926   8.956
27827WAT      O83722   7.469   8.305   7.888
27827WAT     H183723   7.400   8.326   7.820
27827WAT     H283724   7.557   8.291   7.843
27828WAT      O83725   1.882   8.773   8.236
27828WAT     H183726   1.972   8.770   8.193
27828WAT     H283727   1.814   8.733   8.174
27829WAT      O83728   9.878   4.433   7.091
27829WAT     H183729   9.855   4.517   7.042
27829WAT     H283730   9.856   4.445   7.188
27830WAT      O83731   5.236   7.289   0.030
27830WAT     H183732   5.230   7.300   0.129
27830WAT     H283733   5.329   7.309  -0.000
27831WAT      O83734   8.598   9.482   7.716
27831WAT     H183735   8.693   9.452   7.717
27831WAT     H283736   8.588   9.561   7.777
27832WAT      O83737   3.859   5.703   8.128
27832WAT     H183738   3.763   5.688   8.154
27832WAT     H283739   3.875   5.801   8.115
27833WAT      O83740   1.893   1.727   6.298
27833WAT     H183741   1.801   1.764   6.311
27833WAT     H283742   1.911   1.714   6.201
27834WAT      O83743   1.457   0.442   2.471
27834WAT     H183744   1.401   0.458   2.552
27834WAT     H283745   1.420   0.493   2.394
27835WAT      O83746   8.085   7.596   4.247
27835WAT     H183747   8.061   7.665   4.315
27835WAT     H283748   8.085   7.505   4.290
27836WAT      O83749   7.899   9.673   5.915
27836WAT     H183750   7.819   9.734   5.911
27836WAT     H283751   7.982   9.727   5.924
27837WAT      O83752   6.965   3.516   4.168
27837WAT     H183753   7.026   3.534   4.245
27837WAT     H283754   6.916   3.430   4.185
27838WAT      O83755   4.950   8.809   9.020
27838WAT     H183756   4.985   8.717   9.002
27838WAT     H283757   4.872   8.803   9.082
27839WAT      O83758   9.835   9.532   8.500
27839WAT     H183759   9.869   9.619   8.536
27839WAT     H283760   9.860   9.458   8.562
27840WAT      O83761   6.940   7.616   1.333
27840WAT     H183762   6.931   7.604   1.235
27840WAT     H283763   6.965   7.711   1.354
27841WAT      O83764   6.410   9.027   5.674
27841WAT     H183765   6.509   9.013   5.682
27841WAT     H283766   6.392   9.115   5.631
27842WAT      O83767   2.326   6.069   3.122
27842WAT     H183768   2.356   6.121   3.042
27842WAT     H283769   2.310   5.974   3.096
27843WAT      O83770   7.666   8.383   4.142
27843WAT     H183771   7.759   8.347   4.144
27843WAT     H283772   7.601   8.308   4.128
27844WAT      O83773   4.384   5.708   0.181
27844WAT     H183774   4.416   5.794   0.220
27844WAT     H283775   4.334   5.656   0.251
27845WAT      O83776   6.248   4.631   3.422
27845WAT     H183777   6.346   4.619   3.409
27845WAT     H283778   6.204   4.541   3.426
27846WAT      O83779   6.122   9.582   4.649
27846WAT     H183780   6.031   9.624   4.654
27846WAT     H283781   6.182   9.626   4.716
27847WAT      O83782   5.266   4.556   7.548
27847WAT     H183783   5.207   4.475   7.558
27847WAT     H283784   5.336   4.555   7.620
27848WAT      O83785   5.446   7.324   4.844
27848WAT     H183786   5.498   7.239   4.832
27848WAT     H283787   5.372   7.327   4.777
27849WAT      O83788   1.954   8.063   1.796
27849WAT     H183789   1.875   8.069   1.735
27849WAT     H283790   1.957   8.144   1.855
27850WAT      O83791   3.985   5.268   7.271
27850WAT     H183792   4.055   5.303   7.332
27850WAT     H283793   4.006   5.294   7.177
27851WAT      O83794   1.162   7.594   8.823
27851WAT     H183795   1.253   7.630   8.803
27851WAT     H283796   1.133   7.627   8.913
27852WAT      O83797   8.506   8.077   9.032
27852WAT     H183798   8.408   8.077   9.011
27852WAT     H283799   8.557   8.043   8.953
27853WAT      O83800   2.194   8.911   9.664
27853WAT     H183801   2.159   8.845   9.599
27853WAT     H283802   2.178   9.004   9.630
27854WAT      O83803   8.014   2.075   7.660
27854WAT     H183804   7.945   2.102   7.592
27854WAT     H283805   8.030   1.977   7.654
27855WAT      O83806   0.746   6.523   6.081
27855WAT     H183807   0.795   6.467   6.013
27855WAT     H283808   0.789   6.510   6.171
27856WAT      O83809   4.531   1.349   4.342
27856WAT     H183810   4.622   1.374   4.308
27856WAT     H283811   4.532   1.254   4.374
27857WAT      O83812   1.330   7.964   1.909
27857WAT     H183813   1.238   7.990   1.939
27857WAT     H283814   1.369   7.899   1.974
27858WAT      O83815   8.276   1.015   3.296
27858WAT     H183816   8.321   1.053   3.216
27858WAT     H283817   8.333   0.943   3.336
27859WAT      O83818   9.673   2.850   6.792
27859WAT     H183819   9.730   2.914   6.740
27859WAT     H283820   9.731   2.798   6.856
27860WAT      O83821   2.997   7.559   6.489
27860WAT     H183822   2.965   7.654   6.481
27860WAT     H283823   3.089   7.558   6.528
27861WAT      O83824   4.866   7.312   6.317
27861WAT     H183825   4.811   7.327   6.399
27861WAT     H283826   4.892   7.216   6.311
27862WAT      O83827   6.489   5.901   1.074
27862WAT     H183828   6.424   5.858   1.011
27862WAT     H283829   6.503   5.996   1.047
27863WAT      O83830   1.244   1.872   5.132
27863WAT     H183831   1.261   1.875   5.033
27863WAT     H283832   1.172   1.937   5.156
27864WAT      O83833   2.271   3.474   3.585
27864WAT     H183834   2.328   3.486   3.504
27864WAT     H283835   2.180   3.512   3.567
27865WAT      O83836   8.946   1.541   3.246
27865WAT     H183837   9.025   1.540   3.185
27865WAT     H283838   8.972   1.582   3.333
27866WAT      O83839   7.566   5.436   9.215
27866WAT     H183840   7.568   5.361   9.282
27866WAT     H283841   7.586   5.400   9.124
27867WAT      O83842   4.526   8.806   2.220
27867WAT     H183843   4.576   8.720   2.205
27867WAT     H283844   4.433   8.797   2.183
27868WAT      O83845   3.183   4.501   4.997
27868WAT     H183846   3.268   4.539   5.032
27868WAT     H283847   3.193   4.402   4.983
27869WAT      O83848   2.588   1.064   2.637
27869WAT     H183849   2.498   1.066   2.595
27869WAT     H283850   2.582   1.101   2.730
27870WAT      O83851   9.464   5.306   6.303
27870WAT     H183852   9.542   5.243   6.304
27870WAT     H283853   9.438   5.327   6.209
27871WAT      O83854   3.531   3.206   2.733
27871WAT     H183855   3.514   3.291   2.684
27871WAT     H283856   3.475   3.133   2.693
27872WAT      O83857   0.604   7.210   7.789
27872WAT     H183858   0.575   7.149   7.715
27872WAT     H283859   0.686   7.173   7.832
27873WAT      O83860   2.797   3.105   1.904
27873WAT     H183861   2.724   3.081   1.841
27873WAT     H283862   2.767   3.086   1.998
27874WAT      O83863   7.142   4.180   1.916
27874WAT     H183864   7.157   4.269   1.874
27874WAT     H283865   7.175   4.181   2.010
27875WAT      O83866   4.466   7.746   8.025
27875WAT     H183867   4.520   7.825   7.997
27875WAT     H283868   4.393   7.730   7.959
27876WAT      O83869   5.298   2.353   6.844
27876WAT     H183870   5.377   2.310   6.888
27876WAT     H283871   5.255   2.288   6.782
27877WAT      O83872   5.217   3.808   0.087
27877WAT     H183873   5.154   3.751   0.034
27877WAT     H283874   5.281   3.750   0.138
27878WAT      O83875   5.456   4.206   0.262
27878WAT     H183876   5.382   4.250   0.313
27878WAT     H283877   5.422   4.177   0.172
27879WAT      O83878   6.804   8.833   9.266
27879WAT     H183879   6.863   8.813   9.344
27879WAT     H283880   6.856   8.883   9.196
27880WAT      O83881   6.470   4.607   2.666
27880WAT     H183882   6.559   4.650   2.677
27880WAT     H283883   6.479   4.526   2.607
27881WAT      O83884   4.730   5.456   2.823
27881WAT     H183885   4.685   5.381   2.775
27881WAT     H283886   4.669   5.492   2.894
27882WAT      O83887   9.428   3.351   8.391
27882WAT     H183888   9.344   3.364   8.340
27882WAT     H283889   9.507   3.370   8.332
27883WAT      O83890   1.583   6.926   6.800
27883WAT     H183891   1.583   6.830   6.771
27883WAT     H283892   1.489   6.959   6.805
27884WAT      O83893   0.823   8.534   4.393
27884WAT     H183894   0.748   8.589   4.429
27884WAT     H283895   0.883   8.591   4.337
27885WAT      O83896   8.978   4.065   2.060
27885WAT     H183897   9.023   4.032   2.143
27885WAT     H283898   8.920   4.143   2.083
27886WAT      O83899   2.218   2.919   6.196
27886WAT     H183900   2.221   2.981   6.275
27886WAT     H283901   2.202   2.825   6.228
27887WAT      O83902   3.295   1.451   1.442
27887WAT     H183903   3.259   1.449   1.349
27887WAT     H283904   3.239   1.392   1.500
27888WAT      O83905   1.298   7.341   5.206
27888WAT     H183906   1.241   7.287   5.267
27888WAT     H283907   1.368   7.282   5.166
27889WAT      O83908   7.213   6.431   3.786
27889WAT     H183909   7.208   6.392   3.694
27889WAT     H283910   7.298   6.482   3.796
27890WAT      O83911   1.573   0.896   1.795
27890WAT     H183912   1.596   0.861   1.886
27890WAT     H283913   1.633   0.853   1.727
27891WAT      O83914   3.198   5.358   0.275
27891WAT     H183915   3.142   5.277   0.261
27891WAT     H283916   3.293   5.338   0.253
27892WAT      O83917   2.353   8.952   1.064
27892WAT     H183918   2.260   8.987   1.073
27892WAT     H283919   2.379   8.949   0.968
27893WAT      O83920   6.955   0.505   8.109
27893WAT     H183921   6.944   0.407   8.093
27893WAT     H283922   6.871   0.541   8.150
27894WAT      O83923   8.657   6.460   2.408
27894WAT     H183924   8.675   6.381   2.467
27894WAT     H283925   8.740   6.516   2.401
27895WAT      O83926   7.855   7.963   9.347
27895WAT     H183927   7.797   8.043   9.363
27895WAT     H283928   7.942   7.974   9.397
27896WAT      O83929   1.489   2.940   2.183
27896WAT     H183930   1.529   3.015   2.236
27896WAT     H283931   1.546   2.858   2.194
27897WAT      O83932   3.790   3.292   6.112
27897WAT     H183933   3.792   3.266   6.208
27897WAT     H283934   3.843   3.376   6.099
27898WAT      O83935   6.746   0.100   8.604
27898WAT     H183936   6.799   0.038   8.663
27898WAT     H283937   6.650   0.074   8.606
27899WAT      O83938   0.309   5.973   7.633
27899WAT     H183939   0.262   6.018   7.709
27899WAT     H283940   0.316   6.036   7.555
27900WAT      O83941   9.773   9.468   3.391
27900WAT     H183942   9.860   9.433   3.426
27900WAT     H283943   9.719   9.506   3.466
27901WAT      O83944   1.044   2.184   8.379
27901WAT     H183945   0.977   2.253   8.408
27901WAT     H283946   1.122   2.187   8.441
27902WAT      O83947   8.645   2.878   6.042
27902WAT     H183948   8.633   2.947   6.114
27902WAT     H283949   8.555   2.848   6.009
27903WAT      O83950   6.429   7.770   7.239
27903WAT     H183951   6.453   7.697   7.303
27903WAT     H283952   6.407   7.731   7.150
27904WAT      O83953   0.543   5.301   9.082
27904WAT     H183954   0.561   5.204   9.098
27904WAT     H283955   0.628   5.353   9.096
27905WAT      O83956   2.935   2.733   7.686
27905WAT     H183957   2.933   2.833   7.695
27905WAT     H283958   2.843   2.699   7.671
27906WAT      O83959   9.363   8.751   9.645
27906WAT     H183960   9.268   8.779   9.651
27906WAT     H283961   9.369   8.651   9.643
27907WAT      O83962   1.566   4.381   9.150
27907WAT     H183963   1.546   4.401   9.246
27907WAT     H283964   1.569   4.466   9.098
27908WAT      O83965   2.029   0.780   6.612
27908WAT     H183966   2.076   0.777   6.524
27908WAT     H283967   2.072   0.716   6.675
27909WAT      O83968   5.517   3.587   7.562
27909WAT     H183969   5.444   3.537   7.515
27909WAT     H283970   5.490   3.605   7.657
27910WAT      O83971   4.421   9.348   8.255
27910WAT     H183972   4.435   9.433   8.304
27910WAT     H283973   4.436   9.271   8.317
27911WAT      O83974   4.324   0.425   2.096
27911WAT     H183975   4.245   0.368   2.076
27911WAT     H283976   4.395   0.410   2.027
27912WAT      O83977   8.962   6.538   0.422
27912WAT     H183978   9.025   6.537   0.499
27912WAT     H283979   8.882   6.482   0.442
27913WAT      O83980   8.981   5.124   3.241
27913WAT     H183981   9.049   5.053   3.223
27913WAT     H283982   9.022   5.197   3.295
27914WAT      O83983   7.768   0.657   8.247
27914WAT     H183984   7.685   0.674   8.301
27914WAT     H283985   7.842   0.632   8.309
27915WAT      O83986   8.688   6.169   4.687
27915WAT     H183987   8.681   6.259   4.643
27915WAT     H283988   8.776   6.162   4.734
27916WAT      O83989   1.223   4.438   7.917
27916WAT     H183990   1.207   4.368   7.848
27916WAT     H283991   1.163   4.422   7.995
27917WAT      O83992   7.420   3.478   5.387
27917WAT     H183993   7.340   3.515   5.340
27917WAT     H283994   7.503   3.505   5.338
27918WAT      O83995   3.250   9.762   6.665
27918WAT     H183996   3.164   9.765   6.716
27918WAT     H283997   3.236   9.801   6.574
27919WAT      O83998   7.746   6.167   4.193
27919WAT     H183999   7.792   6.206   4.273
27919WAT     H284000   7.812   6.121   4.135
27920WAT      O84001   7.451   5.428   0.984
27920WAT     H184002   7.430   5.525   0.976
27920WAT     H284003   7.550   5.414   0.982
27921WAT      O84004   4.950   7.419   2.234
27921WAT     H184005   4.989   7.335   2.272
27921WAT     H284006   5.013   7.495   2.251
27922WAT      O84007   9.250   5.800   7.814
27922WAT     H184008   9.230   5.887   7.859
27922WAT     H284009   9.318   5.749   7.867
27923WAT      O84010   3.922   8.172   5.323
27923WAT     H184011   3.999   8.141   5.379
27923WAT     H284012   3.919   8.118   5.238
27924WAT      O84013   3.618   1.288   6.097
27924WAT     H184014   3.623   1.327   6.189
27924WAT     H284015   3.589   1.360   6.033
27925WAT      O84016   0.455   4.691   4.694
27925WAT     H184017   0.488   4.698   4.789
27925WAT     H284018   0.405   4.605   4.682
27926WAT      O84019   7.213   1.667   3.366
27926WAT     H184020   7.171   1.655   3.456
27926WAT     H284021   7.254   1.581   3.336
27927WAT      O84022   3.661   2.963   3.071
27927WAT     H184023   3.583   3.025   3.064
27927WAT     H284024   3.646   2.899   3.147
27928WAT      O84025   3.811   2.485   4.691
27928WAT     H184026   3.817   2.441   4.781
27928WAT     H284027   3.874   2.562   4.687
27929WAT      O84028   8.212   4.258   1.153
27929WAT     H184029   8.112   4.268   1.156
27929WAT     H284030   8.249   4.264   1.246
27930WAT      O84031   3.727   7.382   1.367
27930WAT     H184032   3.701   7.425   1.453
27930WAT     H284033   3.725   7.450   1.293
27931WAT      O84034   4.518   4.502   2.144
27931WAT     H184035   4.431   4.496   2.194
27931WAT     H284036   4.574   4.576   2.183
27932WAT      O84037   2.253   7.776   2.130
27932WAT     H184038   2.213   7.758   2.220
27932WAT     H284039   2.196   7.842   2.081
27933WAT      O84040   9.840   5.848   8.672
27933WAT     H184041   9.842   5.936   8.624
27933WAT     H284042   9.887   5.856   8.760
27934WAT      O84043   0.749   5.075   2.808
27934WAT     H184044   0.791   4.984   2.812
27934WAT     H284045   0.797   5.136   2.871
27935WAT      O84046   0.035   8.927   7.460
27935WAT     H184047  -0.040   8.994   7.460
27935WAT     H284048   0.104   8.954   7.392
27936WAT      O84049   1.353   6.307   3.251
27936WAT     H184050   1.290   6.231   3.232
27936WAT     H284051   1.340   6.338   3.346
27937WAT      O84052   0.837   0.234   1.544
27937WAT     H184053   0.822   0.289   1.462
27937WAT     H284054   0.826   0.290   1.626
27938WAT      O84055   6.410   3.469   7.630
27938WAT     H184056   6.484   3.470   7.697
27938WAT     H284057   6.327   3.506   7.672
27939WAT      O84058   3.132   3.910   3.702
27939WAT     H184059   3.077   3.828   3.687
27939WAT     H284060   3.085   3.989   3.662
27940WAT      O84061   6.513   0.041   7.094
27940WAT     H184062   6.582   0.074   7.031
27940WAT     H284063   6.436   0.003   7.042
27941WAT      O84064   5.037   0.819   5.582
27941WAT     H184065   5.008   0.876   5.505
27941WAT     H284066   5.134   0.835   5.601
27942WAT      O84067   8.659   9.365   4.060
27942WAT     H184068   8.565   9.394   4.040
27942WAT     H284069   8.714   9.376   3.977
27943WAT      O84070   0.808   3.048   4.613
27943WAT     H184071   0.719   3.054   4.568
27943WAT     H284072   0.829   2.952   4.633
27944WAT      O84073   7.371   0.946   4.040
27944WAT     H184074   7.441   1.016   4.053
27944WAT     H284075   7.293   0.985   3.992
27945WAT      O84076   3.184   3.050   5.064
27945WAT     H184077   3.155   3.117   5.132
27945WAT     H284078   3.104   3.012   5.018
27946WAT      O84079   8.321   6.457   8.939
27946WAT     H184080   8.323   6.440   8.841
27946WAT     H284081   8.229   6.485   8.966
27947WAT      O84082   8.648   9.222   8.687
27947WAT     H184083   8.691   9.212   8.777
27947WAT     H284084   8.656   9.136   8.637
27948WAT      O84085   7.886   4.345   4.372
27948WAT     H184086   7.940   4.371   4.292
27948WAT     H284087   7.945   4.345   4.453
27949WAT      O84088   4.677   2.165   5.565
27949WAT     H184089   4.752   2.130   5.620
27949WAT     H284090   4.714   2.217   5.487
27950WAT      O84091   9.567   0.486   9.396
27950WAT     H184092   9.624   0.522   9.322
27950WAT     H284093   9.522   0.562   9.443
27951WAT      O84094   4.374   3.646   4.158
27951WAT     H184095   4.357   3.568   4.219
27951WAT     H284096   4.383   3.614   4.064
27952WAT      O84097   3.283   1.977   0.011
27952WAT     H184098   3.233   1.977  -0.075
27952WAT     H284099   3.238   2.038   0.076
27953WAT      O84100   6.057   2.750   4.929
27953WAT     H184101   5.989   2.795   4.986
27953WAT     H284102   6.020   2.664   4.893
27954WAT      O84103   1.643   0.123   2.600
27954WAT     H184104   1.594   0.199   2.642
27954WAT     H284105   1.622   0.038   2.649
27955WAT      O84106   2.906   6.893   6.084
27955WAT     H184107   2.917   6.988   6.112
27955WAT     H284108   2.810   6.876   6.060
27956WAT      O84109   8.856   5.101   0.992
27956WAT     H184110   8.769   5.151   0.992
27956WAT     H284111   8.871   5.060   1.082
27957WAT      O84112   4.769   3.769   1.426
27957WAT     H184113   4.738   3.789   1.333
27957WAT     H284114   4.843   3.832   1.450
27958WAT      O84115   8.650   6.315   7.743
27958WAT     H184116   8.715   6.293   7.671
27958WAT     H284117   8.609   6.231   7.778
27959WAT      O84118   0.261   2.019   6.880
27959WAT     H184119   0.245   1.998   6.784
27959WAT     H284120   0.185   2.073   6.916
27960WAT      O84121   5.183   5.352   9.781
27960WAT     H184122   5.093   5.348   9.824
27960WAT     H284123   5.231   5.434   9.810
27961WAT      O84124   9.204   3.814   8.976
27961WAT     H184125   9.180   3.778   8.886
27961WAT     H284126   9.182   3.911   8.980
27962WAT      O84127   5.129   1.880   2.841
27962WAT     H184128   5.030   1.875   2.827
27962WAT     H284129   5.167   1.953   2.784
27963WAT      O84130   4.729   8.401   4.494
27963WAT     H184131   4.656   8.383   4.429
27963WAT     H284132   4.729   8.330   4.565
27964WAT      O84133   1.076   4.992   6.584
27964WAT     H184134   1.168   4.958   6.564
27964WAT     H284135   1.049   5.058   6.514
27965WAT      O84136   3.948   8.469   1.920
27965WAT     H184137   4.040   8.429   1.924
27965WAT     H284138   3.919   8.496   2.012
27966WAT      O84139   2.215   1.814   9.210
27966WAT     H184140   2.142   1.800   9.144
27966WAT     H284141   2.214   1.741   9.278
27967WAT      O84142   7.682   3.968   5.666
27967WAT     H184143   7.744   3.962   5.588
27967WAT     H284144   7.729   3.936   5.749
27968WAT      O84145   6.075   4.466   7.947
27968WAT     H184146   6.032   4.463   7.857
27968WAT     H284147   6.173   4.482   7.937
27969WAT      O84148   7.725   1.408   3.947
27969WAT     H184149   7.675   1.323   3.960
27969WAT     H284150   7.814   1.390   3.905
27970WAT      O84151   9.135   2.238   5.507
27970WAT     H184152   9.067   2.228   5.434
27970WAT     H284153   9.145   2.151   5.555
27971WAT      O84154   3.002   3.267   1.806
27971WAT     H184155   2.996   3.260   1.706
27971WAT     H284156   2.945   3.197   1.848
27972WAT      O84157   3.334   7.023   3.854
27972WAT     H184158   3.412   6.961   3.844
27972WAT     H284159   3.312   7.032   3.951
27973WAT      O84160   0.584   4.878   7.379
27973WAT     H184161   0.625   4.796   7.419
27973WAT     H284162   0.654   4.948   7.367
27974WAT      O84163   4.855   7.924   7.455
27974WAT     H184164   4.893   7.849   7.510
27974WAT     H284165   4.922   7.998   7.448
27975WAT      O84166   2.556   3.329   1.736
27975WAT     H184167   2.568   3.229   1.736
27975WAT     H284168   2.536   3.359   1.829
27976WAT      O84169   0.799   7.823   8.203
27976WAT     H184170   0.814   7.770   8.286
27976WAT     H284171   0.757   7.910   8.226
27977WAT      O84172   9.742   9.255   5.845
27977WAT     H184173   9.683   9.180   5.877
27977WAT     H284174   9.692   9.310   5.778
27978WAT      O84175   2.405   8.579   3.650
27978WAT     H184176   2.487   8.636   3.657
27978WAT     H284177   2.367   8.564   3.741
27979WAT      O84178   9.071   1.321   7.756
27979WAT     H184179   9.163   1.320   7.717
27979WAT     H284180   9.011   1.376   7.697
27980WAT      O84181   2.708   4.912   9.844
27980WAT     H184182   2.717   4.837   9.778
27980WAT     H284183   2.657   4.880   9.924
27981WAT      O84184   3.856   9.107   5.367
27981WAT     H184185   3.797   9.030   5.345
27981WAT     H284186   3.813   9.192   5.339
27982WAT      O84187   3.351   9.241   6.844
27982WAT     H184188   3.405   9.157   6.842
27982WAT     H284189   3.325   9.266   6.751
27983WAT      O84190   4.051   3.476   4.381
27983WAT     H184191   4.011   3.520   4.461
27983WAT     H284192   3.985   3.413   4.339
27984WAT      O84193   3.984   3.810   4.709
27984WAT     H184194   3.914   3.857   4.762
27984WAT     H284195   4.067   3.799   4.764
27985WAT      O84196   3.374   3.788   8.849
27985WAT     H184197   3.303   3.763   8.784
27985WAT     H284198   3.352   3.876   8.891
27986WAT      O84199   5.583   4.792   5.144
27986WAT     H184200   5.660   4.760   5.089
27986WAT     H284201   5.611   4.869   5.201
27987WAT      O84202   9.507   5.386   4.093
27987WAT     H184203   9.468   5.313   4.037
27987WAT     H284204   9.583   5.350   4.148
27988WAT      O84205   4.213   9.353   0.423
27988WAT     H184206   4.172   9.443   0.431
27988WAT     H284207   4.286   9.355   0.354
27989WAT      O84208   6.234   1.488   4.053
27989WAT     H184209   6.328   1.509   4.079
27989WAT     H284210   6.172   1.545   4.107
27990WAT      O84211   4.503   8.934   2.440
27990WAT     H184212   4.595   8.922   2.478
27990WAT     H284213   4.501   8.897   2.347
27991WAT      O84214   7.012   9.708   9.078
27991WAT     H184215   6.959   9.771   9.135
27991WAT     H284216   6.988   9.614   9.101
27992WAT      O84217   7.762   0.472   8.593
27992WAT     H184218   7.700   0.445   8.519
27992WAT     H284219   7.844   0.512   8.554
27993WAT      O84220   8.784   9.343   2.471
27993WAT     H184221   8.751   9.385   2.387
27993WAT     H284222   8.795   9.244   2.458
27994WAT      O84223   8.008   8.928   3.834
27994WAT     H184224   7.919   8.941   3.878
27994WAT     H284225   8.045   8.838   3.860
27995WAT      O84226   0.047   6.588   1.990
27995WAT     H184227  -0.013   6.509   2.000
27995WAT     H284228  -0.007   6.666   1.958
27996WAT      O84229   8.275   9.292   1.868
27996WAT     H184230   8.299   9.195   1.877
27996WAT     H284231   8.281   9.336   1.958
27997WAT      O84232   1.459   5.113   6.414
27997WAT     H184233   1.444   5.206   6.448
27997WAT     H284234   1.406   5.048   6.469
27998WAT      O84235   8.316   1.125   5.009
27998WAT     H184236   8.314   1.224   4.999
27998WAT     H284237   8.359   1.084   4.928
27999WAT      O84238   8.094   1.031   2.705
27999WAT     H184239   8.026   1.099   2.732
27999WAT     H284240   8.161   1.074   2.644
28000WAT      O84241   9.039   0.118   1.039
28000WAT     H184242   9.090   0.081   0.961
28000WAT     H284243   8.947   0.145   1.009
28001WAT      O84244   2.991   5.215   5.572
28001WAT     H184245   2.934   5.173   5.643
28001WAT     H284246   2.950   5.197   5.482
28002WAT      O84247   0.568   4.550   0.709
28002WAT     H184248   0.482   4.528   0.755
28002WAT     H284249   0.562   4.641   0.669
28003WAT      O84250   8.745   0.827   9.216
28003WAT     H184251   8.715   0.750   9.273
28003WAT     H284252   8.690   0.907   9.237
28004WAT      O84253   1.911   0.160   2.729
28004WAT     H184254   1.822   0.157   2.683
28004WAT     H284255   1.915   0.241   2.788
28005WAT      O84256   6.274   9.319   3.732
28005WAT     H184257   6.371   9.319   3.709
28005WAT     H284258   6.225   9.377   3.667
28006WAT      O84259   6.565   0.429   4.705
28006WAT     H184260   6.657   0.455   4.676
28006WAT     H284261   6.503   0.433   4.626
28007WAT      O84262   2.629   8.471   1.035
28007WAT     H184263   2.675   8.484   1.123
28007WAT     H284264   2.531   8.484   1.046
28008WAT      O84265   0.433   7.173   0.625
28008WAT     H184266   0.458   7.187   0.529
28008WAT     H284267   0.473   7.087   0.657
28009WAT      O84268   3.492   2.204   2.222
28009WAT     H184269   3.589   2.193   2.242
28009WAT     H284270   3.481   2.251   2.135
28010WAT      O84271   2.957   7.047   8.411
28010WAT     H184272   2.868   7.080   8.442
28010WAT     H284273   2.950   6.950   8.387
28011WAT      O84274   0.133   8.875   0.441
28011WAT     H184275   0.104   8.940   0.510
28011WAT     H284276   0.200   8.918   0.380
28012WAT      O84277   3.842   6.258   1.767
28012WAT     H184278   3.917   6.209   1.723
28012WAT     H284279   3.756   6.211   1.750
28013WAT      O84280   1.720   8.177   8.331
28013WAT     H184281   1.729   8.108   8.259
28013WAT     H284282   1.786   8.250   8.315
28014WAT      O84283   9.263   1.011   8.021
28014WAT     H184284   9.268   1.110   8.018
28014WAT     H284285   9.255   0.980   8.116
28015WAT      O84286   1.304   5.461   5.330
28015WAT     H184287   1.334   5.477   5.236
28015WAT     H284288   1.378   5.481   5.393
28016WAT      O84289   4.358   1.894   7.541
28016WAT     H184290   4.281   1.945   7.502
28016WAT     H284291   4.426   1.958   7.577
28017WAT      O84292   4.205   6.568   4.539
28017WAT     H184293   4.184   6.665   4.529
28017WAT     H284294   4.252   6.552   4.625
28018WAT      O84295   0.497   1.378   4.568
28018WAT     H184296   0.589   1.406   4.538
28018WAT     H284297   0.470   1.294   4.521
28019WAT      O84298   2.528   5.270   5.815
28019WAT     H184299   2.591   5.266   5.893
28019WAT     H284300   2.466   5.347   5.827
28020WAT      O84301   7.550   9.738   8.603
28020WAT     H184302   7.582   9.713   8.512
28020WAT     H284303   7.537   9.656   8.658
28021WAT      O84304   7.794   1.201   6.411
28021WAT     H184305   7.844   1.130   6.461
28021WAT     H284306   7.794   1.179   6.313
28022WAT      O84307   9.809   7.618   1.641
28022WAT     H184308   9.769   7.543   1.693
28022WAT     H284309   9.765   7.704   1.665
28023WAT      O84310   6.660   8.087   4.528
28023WAT     H184311   6.672   8.031   4.446
28023WAT     H284312   6.747   8.130   4.552
28024WAT      O84313   1.067   3.990   3.291
28024WAT     H184314   0.989   3.943   3.249
28024WAT     H284315   1.047   4.008   3.387
28025WAT      O84316   8.974   4.973   9.863
28025WAT     H184317   9.044   4.906   9.887
28025WAT     H284318   8.973   4.986   9.764
28026WAT      O84319   7.092   3.725   9.883
28026WAT     H184320   7.164   3.764   9.941
28026WAT     H284321   7.121   3.727   9.788
28027WAT      O84322   1.682   1.537   6.021
28027WAT     H184323   1.744   1.459   6.022
28027WAT     H284324   1.608   1.521   6.086
28028WAT      O84325   1.894   7.794   0.452
28028WAT     H184326   1.856   7.706   0.483
28028WAT     H284327   1.993   7.788   0.448
28029WAT      O84328   6.625   7.491   3.912
28029WAT     H184329   6.528   7.480   3.892
28029WAT     H284330   6.677   7.418   3.866
28030WAT      O84331   0.301   5.386   7.141
28030WAT     H184332   0.233   5.450   7.105
28030WAT     H284333   0.338   5.421   7.227
28031WAT      O84334   5.953   7.542   3.401
28031WAT     H184335   5.886   7.497   3.342
28031WAT     H284336   5.905   7.597   3.469
28032WAT      O84337   7.520   6.111   4.074
28032WAT     H184338   7.599   6.143   4.127
28032WAT     H284339   7.440   6.106   4.133
28033WAT      O84340   3.989   1.935   2.065
28033WAT     H184341   4.052   1.863   2.035
28033WAT     H284342   3.895   1.907   2.046
28034WAT      O84343   2.609   2.507   3.029
28034WAT     H184344   2.548   2.546   3.098
28034WAT     H284345   2.661   2.580   2.985
28035WAT      O84346   0.835   6.251   4.891
28035WAT     H184347   0.835   6.235   4.792
28035WAT     H284348   0.927   6.276   4.921
28036WAT      O84349   5.223   6.801   9.430
28036WAT     H184350   5.127   6.817   9.449
28036WAT     H284351   5.278   6.827   9.509
28037WAT      O84352   5.691   2.280   7.256
28037WAT     H184353   5.776   2.228   7.261
28037WAT     H284354   5.633   2.258   7.335
28038WAT      O84355   7.768   8.238   9.702
28038WAT     H184356   7.862   8.228   9.734
28038WAT     H284357   7.725   8.314   9.749
28039WAT      O84358   9.757   9.509   0.520
28039WAT     H184359   9.725   9.474   0.432
28039WAT     H284360   9.826   9.580   0.504
28040WAT      O84361   1.291   0.850   1.831
28040WAT     H184362   1.373   0.908   1.831
28040WAT     H284363   1.230   0.880   1.904
28041WAT      O84364   3.379   8.096   7.947
28041WAT     H184365   3.405   8.083   7.851
28041WAT     H284366   3.318   8.175   7.954
28042WAT      O84367   4.664   2.972   0.271
28042WAT     H184368   4.683   3.070   0.277
28042WAT     H284369   4.736   2.921   0.318
28043WAT      O84370   7.349   9.055   4.539
28043WAT     H184371   7.410   9.090   4.468
28043WAT     H284372   7.254   9.078   4.517
28044WAT      O84373   4.990   4.483   0.395
28044WAT     H184374   4.921   4.489   0.467
28044WAT     H284375   5.040   4.570   0.390
28045WAT      O84376   8.756   7.090   6.919
28045WAT     H184377   8.665   7.048   6.917
28045WAT     H284378   8.761   7.154   6.995
28046WAT      O84379   0.381   3.698   8.224
28046WAT     H184380   0.424   3.750   8.151
28046WAT     H284381   0.446   3.631   8.261
28047WAT      O84382   9.241   0.274   4.745
28047WAT     H184383   9.316   0.234   4.797
28047WAT     H284384   9.218   0.363   4.784
28048WAT      O84385   2.948   9.195   0.084
28048WAT     H184386   2.964   9.264   0.014
28048WAT     H284387   2.877   9.131   0.052
28049WAT      O84388   4.451   8.535   7.105
28049WAT     H184389   4.400   8.618   7.083
28049WAT     H284390   4.448   8.518   7.203
28050WAT      O84391   4.585   1.229   3.205
28050WAT     H184392   4.656   1.166   3.236
28050WAT     H284393   4.625   1.297   3.143
28051WAT      O84394   6.972   1.809   4.464
28051WAT     H184395   7.049   1.871   4.468
28051WAT     H284396   7.003   1.716   4.483
28052WAT      O84397   5.106   6.367   5.706
28052WAT     H184398   5.036   6.387   5.774
28052WAT     H284399   5.184   6.322   5.750
28053WAT      O84400   3.679   8.571   4.133
28053WAT     H184401   3.688   8.592   4.230
28053WAT     H284402   3.759   8.521   4.102
28054WAT      O84403   8.321   8.459   2.265
28054WAT     H184404   8.242   8.445   2.324
28054WAT     H284405   8.383   8.526   2.308
28055WAT      O84406   1.344   1.155   8.749
28055WAT     H184407   1.421   1.218   8.754
28055WAT     H284408   1.262   1.199   8.787
28056WAT      O84409   5.187   6.023   7.339
28056WAT     H184410   5.144   6.059   7.422
28056WAT     H284411   5.285   6.041   7.342
28057WAT      O84412   0.791   3.322   4.271
28057WAT     H184413   0.858   3.249   4.257
28057WAT     H284414   0.796   3.386   4.194
28058WAT      O84415   4.283   9.103   4.009
28058WAT     H184416   4.370   9.079   4.052
28058WAT     H284417   4.215   9.032   4.029
28059WAT      O84418   5.171   9.216   8.929
28059WAT     H184419   5.114   9.134   8.929
28059WAT     H284420   5.267   9.191   8.936
28060WAT      O84421   1.225   8.356   0.545
28060WAT     H184422   1.179   8.275   0.508
28060WAT     H284423   1.157   8.426   0.568
28061WAT      O84424   4.104   3.236   7.893
28061WAT     H184425   4.155   3.175   7.953
28061WAT     H284426   4.135   3.224   7.798
28062WAT      O84427   2.507   1.268   4.735
28062WAT     H184428   2.537   1.361   4.713
28062WAT     H284429   2.508   1.212   4.652
28063WAT      O84430   3.817   1.726   3.479
28063WAT     H184431   3.782   1.815   3.448
28063WAT     H284432   3.867   1.682   3.404
28064WAT      O84433   6.038   2.267   0.107
28064WAT     H184434   5.950   2.270   0.155
28064WAT     H284435   6.109   2.234   0.168
28065WAT      O84436   1.654   4.406   1.129
28065WAT     H184437   1.575   4.383   1.186
28065WAT     H284438   1.674   4.504   1.138
28066WAT      O84439   2.732   8.334   2.188
28066WAT     H184440   2.778   8.414   2.151
28066WAT     H284441   2.697   8.354   2.279
28067WAT      O84442   8.992   3.471   1.922
28067WAT     H184443   8.916   3.535   1.936
28067WAT     H284444   8.961   3.394   1.867
28068WAT      O84445   3.407   0.137   6.695
28068WAT     H184446   3.366   0.217   6.738
28068WAT     H284447   3.347   0.058   6.709
28069WAT      O84448   6.287   0.214   0.104
28069WAT     H184449   6.274   0.214   0.005
28069WAT     H284450   6.271   0.122   0.139
28070WAT      O84451   1.029   3.014   9.692
28070WAT     H184452   1.012   2.950   9.617
28070WAT     H284453   0.954   3.080   9.697
28071WAT      O84454   3.546   4.150   1.993
28071WAT     H184455   3.524   4.178   2.087
28071WAT     H284456   3.534   4.051   1.984
28072WAT      O84457   8.157   2.614   9.062
28072WAT     H184458   8.156   2.593   9.160
28072WAT     H284459   8.072   2.657   9.036
28073WAT      O84460   1.102   1.487   8.929
28073WAT     H184461   1.191   1.517   8.893
28073WAT     H284462   1.074   1.404   8.881
28074WAT      O84463   7.153   9.701   8.617
28074WAT     H184464   7.098   9.774   8.660
28074WAT     H284465   7.211   9.741   8.546
28075WAT      O84466   8.681   1.790   0.749
28075WAT     H184467   8.609   1.822   0.810
28075WAT     H284468   8.660   1.817   0.655
28076WAT      O84469   8.761   9.419   9.418
28076WAT     H184470   8.786   9.481   9.345
28076WAT     H284471   8.719   9.336   9.380
28077WAT      O84472   3.990   9.675   0.005
28077WAT     H184473   3.900   9.699  -0.031
28077WAT     H284474   4.017   9.742   0.074
28078WAT      O84475   7.604   1.566   0.101
28078WAT     H184476   7.703   1.562   0.113
28078WAT     H284477   7.576   1.661   0.084
28079WAT      O84478   3.120   1.411   0.609
28079WAT     H184479   3.032   1.422   0.654
28079WAT     H284480   3.135   1.487   0.546
28080WAT      O84481   5.416   8.456   2.499
28080WAT     H184482   5.351   8.405   2.443
28080WAT     H284483   5.494   8.397   2.521
28081WAT      O84484   8.529   8.681   8.616
28081WAT     H184485   8.435   8.691   8.647
28081WAT     H284486   8.531   8.649   8.522
28082WAT      O84487   1.371   6.326   7.646
28082WAT     H184488   1.354   6.286   7.736
28082WAT     H284489   1.459   6.375   7.647
28083WAT      O84490   4.092   4.414   5.761
28083WAT     H184491   4.036   4.337   5.792
28083WAT     H284492   4.033   4.490   5.735
28084WAT      O84493   1.184   8.482   7.748
28084WAT     H184494   1.252   8.530   7.804
28084WAT     H284495   1.219   8.392   7.724
28085WAT      O84496   7.946   1.300   4.914
28085WAT     H184497   7.877   1.243   4.868
28085WAT     H284498   7.915   1.320   5.007
28086WAT      O84499   4.835   3.248   3.044
28086WAT     H184500   4.934   3.241   3.062
28086WAT     H284501   4.791   3.164   3.077
28087WAT      O84502   9.226   9.683   1.501
28087WAT     H184503   9.199   9.778   1.512
28087WAT     H284504   9.166   9.638   1.434
28088WAT      O84505   8.049   3.018   8.417
28088WAT     H184506   8.044   2.962   8.334
28088WAT     H284507   7.958   3.030   8.455
28089WAT      O84508   1.741   9.278   6.385
28089WAT     H184509   1.813   9.232   6.334
28089WAT     H284510   1.652   9.242   6.357
28090WAT      O84511   3.258   5.771   7.950
28090WAT     H184512   3.331   5.840   7.955
28090WAT     H284513   3.197   5.793   7.874
28091WAT      O84514   3.692   9.563   9.536
28091WAT     H184515   3.617   9.628   9.526
28091WAT     H284516   3.778   9.609   9.513
28092WAT      O84517   7.746   0.892   8.749
28092WAT     H184518   7.693   0.935   8.822
28092WAT     H284519   7.811   0.827   8.790
28093WAT      O84520   7.878   7.593   7.503
28093WAT     H184521   7.849   7.606   7.598
28093WAT     H284522   7.857   7.674   7.449
28094WAT      O84523   8.428   3.415   1.417
28094WAT     H184524   8.423   3.353   1.338
28094WAT     H284525   8.431   3.509   1.384
28095WAT      O84526   3.429   6.571   7.456
28095WAT     H184527   3.394   6.631   7.385
28095WAT     H284528   3.505   6.517   7.420
28096WAT      O84529   2.030   2.489   8.064
28096WAT     H184530   1.998   2.466   8.156
28096WAT     H284531   1.953   2.489   8.000
28097WAT      O84532   2.825   3.941   7.833
28097WAT     H184533   2.844   3.932   7.931
28097WAT     H284534   2.743   3.888   7.810
28098WAT      O84535   1.597   4.408   7.918
28098WAT     H184536   1.508   4.391   7.960
28098WAT     H284537   1.639   4.488   7.960
28099WAT      O84538   2.112   1.963   7.477
28099WAT     H184539   2.166   2.034   7.523
28099WAT     H284540   2.171   1.913   7.414
28100WAT      O84541   4.889   0.332   0.856
28100WAT     H184542   4.809   0.387   0.836
28100WAT     H284543   4.941   0.374   0.931
28101WAT      O84544   9.709   4.677   5.766
28101WAT     H184545   9.778   4.703   5.833
28101WAT     H284546   9.650   4.756   5.748
28102WAT      O84547   6.577   9.761   4.363
28102WAT     H184548   6.511   9.753   4.437
28102WAT     H284549   6.591   9.857   4.341
28103WAT      O84550   0.531   6.112   8.865
28103WAT     H184551   0.565   6.206   8.860
28103WAT     H284552   0.485   6.098   8.952
28104WAT      O84553   6.592   4.810   9.331
28104WAT     H184554   6.533   4.888   9.309
28104WAT     H284555   6.577   4.783   9.426
28105WAT      O84556   2.316   6.716   6.745
28105WAT     H184557   2.334   6.636   6.803
28105WAT     H284558   2.220   6.743   6.755
28106WAT      O84559   4.712   3.984   6.707
28106WAT     H184560   4.763   3.973   6.793
28106WAT     H284561   4.707   4.081   6.683
28107WAT      O84562   0.382   6.489   1.655
28107WAT     H184563   0.476   6.522   1.667
28107WAT     H284564   0.340   6.474   1.744
28108WAT      O84565   6.274   8.995   5.910
28108WAT     H184566   6.282   8.898   5.934
28108WAT     H284567   6.320   9.011   5.823
28109WAT      O84568   7.054   2.532   6.820
28109WAT     H184569   7.080   2.628   6.808
28109WAT     H284570   7.123   2.486   6.875
28110WAT      O84571   3.416   4.832   4.999
28110WAT     H184572   3.418   4.829   4.899
28110WAT     H284573   3.422   4.739   5.035
28111WAT      O84574   1.387   1.678   0.079
28111WAT     H184575   1.305   1.701   0.131
28111WAT     H284576   1.399   1.744   0.004
28112WAT      O84577   8.492   9.388   3.058
28112WAT     H184578   8.494   9.303   3.111
28112WAT     H284579   8.541   9.459   3.109
28113WAT      O84580   3.444   5.441   9.208
28113WAT     H184581   3.481   5.420   9.298
28113WAT     H284582   3.402   5.532   9.210
28114WAT      O84583   2.273   6.356   1.302
28114WAT     H184584   2.198   6.414   1.273
28114WAT     H284585   2.354   6.411   1.319
28115WAT      O84586   2.776   6.348   4.433
28115WAT     H184587   2.859   6.315   4.386
28115WAT     H284588   2.719   6.270   4.457
28116WAT      O84589   8.942   2.056   1.503
28116WAT     H184590   8.894   2.137   1.535
28116WAT     H284591   9.003   2.081   1.428
28117WAT      O84592   1.186   2.397   0.795
28117WAT     H184593   1.281   2.365   0.796
28117WAT     H284594   1.148   2.384   0.703
28118WAT      O84595   3.273   1.459   8.799
28118WAT     H184596   3.180   1.430   8.777
28118WAT     H284597   3.270   1.548   8.844
28119WAT      O84598   8.806   6.717   4.646
28119WAT     H184599   8.711   6.687   4.636
28119WAT     H284600   8.863   6.639   4.670
28120WAT      O84601   8.457   5.507   6.888
28120WAT     H184602   8.494   5.569   6.957
28120WAT     H284603   8.452   5.414   6.926
28121WAT      O84604   5.503   0.559   5.097
28121WAT     H184605   5.457   0.643   5.127
28121WAT     H284606   5.561   0.525   5.170
28122WAT      O84607   3.780   7.229   3.132
28122WAT     H184608   3.837   7.150   3.150
28122WAT     H284609   3.696   7.200   3.085
28123WAT      O84610   2.067   5.383   4.623
28123WAT     H184611   2.032   5.389   4.530
28123WAT     H284612   2.102   5.472   4.651
28124WAT      O84613   1.134   5.120   4.505
28124WAT     H184614   1.149   5.206   4.457
28124WAT     H284615   1.092   5.054   4.442
28125WAT      O84616   9.375   9.573   5.942
28125WAT     H184617   9.285   9.609   5.915
28125WAT     H284618   9.446   9.638   5.917
28126WAT      O84619   2.848   9.640   2.101
28126WAT     H184620   2.797   9.705   2.158
28126WAT     H284621   2.942   9.672   2.089
28127WAT      O84622   6.980   9.722   8.308
28127WAT     H184623   6.998   9.740   8.211
28127WAT     H284624   7.019   9.634   8.334
28128WAT      O84625   1.290   2.161   1.557
28128WAT     H184626   1.373   2.120   1.596
28128WAT     H284627   1.291   2.259   1.575
28129WAT      O84628   7.243   4.102   3.800
28129WAT     H184629   7.190   4.118   3.883
28129WAT     H284630   7.332   4.147   3.808
28130WAT      O84631   0.273   2.336   4.238
28130WAT     H184632   0.175   2.325   4.250
28130WAT     H284633   0.320   2.312   4.324
28131WAT      O84634   5.804   3.460   9.015
28131WAT     H184635   5.757   3.372   9.010
28131WAT     H284636   5.738   3.531   9.039
28132WAT      O84637   7.581   3.128   8.448
28132WAT     H184638   7.577   3.166   8.356
28132WAT     H284639   7.540   3.193   8.512
28133WAT      O84640   8.576   9.389   0.166
28133WAT     H184641   8.593   9.306   0.220
28133WAT     H284642   8.592   9.370   0.069
28134WAT      O84643   3.996   2.499   3.410
28134WAT     H184644   3.999   2.595   3.435
28134WAT     H284645   4.079   2.475   3.359
28135WAT      O84646   5.355   4.274   1.676
28135WAT     H184647   5.329   4.342   1.744
28135WAT     H284648   5.455   4.275   1.665
28136WAT      O84649   5.707   6.790   3.049
28136WAT     H184650   5.614   6.761   3.028
28136WAT     H284651   5.745   6.841   2.972
28137WAT      O84652   9.385   9.687   8.302
28137WAT     H184653   9.318   9.727   8.364
28137WAT     H284654   9.421   9.758   8.241
28138WAT      O84655   2.775   1.255   7.786
28138WAT     H184656   2.872   1.274   7.801
28138WAT     H284657   2.739   1.205   7.865
28139WAT      O84658   3.460   8.027   7.693
28139WAT     H184659   3.374   8.041   7.645
28139WAT     H284660   3.479   7.929   7.699
28140WAT      O84661   8.739   2.614   6.679
28140WAT     H184662   8.641   2.613   6.695
28140WAT     H284663   8.783   2.675   6.745
28141WAT      O84664   5.689   7.075   5.031
28141WAT     H184665   5.647   7.138   4.965
28141WAT     H284666   5.726   6.996   4.982
28142WAT      O84667   6.428   0.369   8.677
28142WAT     H184668   6.525   0.367   8.703
28142WAT     H284669   6.381   0.438   8.732
28143WAT      O84670   2.666   7.865   1.269
28143WAT     H184671   2.751   7.859   1.322
28143WAT     H284672   2.646   7.960   1.248
28144WAT      O84673   8.516   7.749   2.063
28144WAT     H184674   8.509   7.825   1.997
28144WAT     H284675   8.578   7.776   2.137
28145WAT      O84676   8.138   7.417   3.997
28145WAT     H184677   8.164   7.374   4.084
28145WAT     H284678   8.039   7.422   3.991
28146WAT      O84679   1.880   1.558   7.181
28146WAT     H184680   1.853   1.462   7.169
28146WAT     H284681   1.868   1.607   7.095
28147WAT      O84682   3.431   0.089   0.955
28147WAT     H184683   3.510   0.127   0.909
28147WAT     H284684   3.356   0.156   0.955
28148WAT      O84685   6.988   0.167   4.670
28148WAT     H184686   6.949   0.156   4.762
28148WAT     H284687   6.914   0.169   4.603
28149WAT      O84688   2.701   7.637   1.121
28149WAT     H184689   2.693   7.727   1.164
28149WAT     H284690   2.668   7.567   1.184
28150WAT      O84691   3.158   6.223   8.215
28150WAT     H184692   3.216   6.271   8.282
28150WAT     H284693   3.140   6.284   8.138
28151WAT      O84694   2.221   9.616   1.277
28151WAT     H184695   2.161   9.608   1.198
28151WAT     H284696   2.173   9.582   1.358
28152WAT      O84697   0.336   6.126   7.425
28152WAT     H184698   0.331   6.210   7.372
28152WAT     H284699   0.394   6.060   7.379
28153WAT      O84700   6.817   5.029   0.114
28153WAT     H184701   6.732   4.987   0.146
28153WAT     H284702   6.889   4.959   0.108
28154WAT      O84703   7.829   2.115   3.847
28154WAT     H184704   7.822   2.173   3.765
28154WAT     H284705   7.812   2.170   3.928
28155WAT      O84706   8.240   8.147   0.778
28155WAT     H184707   8.299   8.133   0.698
28155WAT     H284708   8.145   8.153   0.748
28156WAT      O84709   9.549   0.232   9.105
28156WAT     H184710   9.507   0.190   9.024
28156WAT     H284711   9.617   0.298   9.076
28157WAT      O84712   3.299   6.807   9.490
28157WAT     H184713   3.275   6.856   9.574
28157WAT     H284714   3.297   6.709   9.508
28158WAT      O84715   0.985   5.147   2.625
28158WAT     H184716   1.032   5.215   2.569
28158WAT     H284717   0.889   5.171   2.633
28159WAT      O84718   8.019   7.151   3.003
28159WAT     H184719   8.059   7.230   2.956
28159WAT     H284720   7.924   7.139   2.973
28160WAT      O84721   3.252   9.132   3.067
28160WAT     H184722   3.267   9.118   2.969
28160WAT     H284723   3.340   9.148   3.113
28161WAT      O84724   3.711   5.985   6.148
28161WAT     H184725   3.684   5.890   6.166
28161WAT     H284726   3.630   6.044   6.154
28162WAT      O84727   0.048   9.752   1.499
28162WAT     H184728  -0.039   9.708   1.478
28162WAT     H284729   0.057   9.837   1.446
28163WAT      O84730   3.360   5.135   1.586
28163WAT     H184731   3.271   5.098   1.613
28163WAT     H284732   3.348   5.228   1.551
28164WAT      O84733   2.346   9.452   5.245
28164WAT     H184734   2.319   9.548   5.237
28164WAT     H284735   2.443   9.447   5.271
28165WAT      O84736   2.250   8.983   6.643
28165WAT     H184737   2.331   9.039   6.655
28165WAT     H284738   2.168   9.041   6.645
28166WAT      O84739   2.401   9.251   5.541
28166WAT     H184740   2.341   9.246   5.461
28166WAT     H284741   2.380   9.334   5.593
28167WAT      O84742   7.817   4.128   0.554
28167WAT     H184743   7.891   4.149   0.490
28167WAT     H284744   7.809   4.202   0.621
28168WAT      O84745   2.661   7.274   9.362
28168WAT     H184746   2.648   7.368   9.329
28168WAT     H284747   2.626   7.210   9.293
28169WAT      O84748   5.981   0.039   2.866
28169WAT     H184749   5.938  -0.041   2.907
28169WAT     H284750   5.950   0.049   2.772
28170WAT      O84751   8.981   6.122   1.542
28170WAT     H184752   9.056   6.145   1.604
28170WAT     H284753   8.988   6.176   1.459
28171WAT      O84754   0.691   8.337   5.361
28171WAT     H184755   0.706   8.354   5.459
28171WAT     H284756   0.694   8.424   5.311
28172WAT      O84757   4.350   9.736   7.943
28172WAT     H184758   4.293   9.728   8.025
28172WAT     H284759   4.441   9.702   7.963
28173WAT      O84760   5.841   5.760   0.894
28173WAT     H184761   5.853   5.860   0.896
28173WAT     H284762   5.755   5.736   0.938
28174WAT      O84763   4.654   8.928   8.823
28174WAT     H184764   4.664   9.024   8.849
28174WAT     H284765   4.745   8.890   8.804
28175WAT      O84766   2.003   8.511   5.630
28175WAT     H184767   1.952   8.425   5.630
28175WAT     H284768   1.989   8.558   5.543
28176WAT      O84769   5.104   6.714   4.272
28176WAT     H184770   5.152   6.647   4.329
28176WAT     H284771   5.005   6.707   4.288
28177WAT      O84772   2.776   9.001   9.874
28177WAT     H184773   2.846   8.954   9.821
28177WAT     H284774   2.686   8.981   9.836
28178WAT      O84775   4.381   2.040   1.214
28178WAT     H184776   4.369   2.140   1.213
28178WAT     H284777   4.323   2.001   1.285
28179WAT      O84778   0.103   7.403   0.423
28179WAT     H184779   0.058   7.411   0.334
28179WAT     H284780   0.202   7.403   0.411
28180WAT      O84781   9.258   0.058   9.160
28180WAT     H184782   9.357   0.048   9.153
28180WAT     H284783   9.232   0.061   9.257
28181WAT      O84784   2.288   8.175   1.226
28181WAT     H184785   2.310   8.099   1.165
28181WAT     H284786   2.262   8.254   1.172
28182WAT      O84787   9.259   7.409   2.912
28182WAT     H184788   9.188   7.479   2.921
28182WAT     H284789   9.345   7.446   2.947
28183WAT      O84790   5.279   9.464   9.688
28183WAT     H184791   5.268   9.492   9.783
28183WAT     H284792   5.247   9.370   9.676
28184WAT      O84793   8.879   4.144   8.201
28184WAT     H184794   8.972   4.165   8.230
28184WAT     H284795   8.815   4.199   8.254
28185WAT      O84796   0.442   5.312   4.842
28185WAT     H184797   0.348   5.332   4.870
28185WAT     H284798   0.505   5.365   4.898
28186WAT      O84799   3.763   1.352   0.152
28186WAT     H184800   3.700   1.428   0.167
28186WAT     H284801   3.830   1.349   0.226
28187WAT      O84802   2.903   5.443   3.274
28187WAT     H184803   2.876   5.377   3.204
28187WAT     H284804   2.971   5.401   3.335
28188WAT      O84805   2.231   2.118   8.048
28188WAT     H184806   2.255   2.170   8.130
28188WAT     H284807   2.310   2.114   7.987
28189WAT      O84808   1.452   0.127   3.988
28189WAT     H184809   1.432   0.056   4.055
28189WAT     H284810   1.544   0.163   4.004
28190WAT      O84811   7.804   5.682   3.675
28190WAT     H184812   7.796   5.658   3.578
28190WAT     H284813   7.751   5.765   3.693
28191WAT      O84814   3.119   8.674   3.655
28191WAT     H184815   3.059   8.731   3.712
28191WAT     H284816   3.200   8.727   3.631
28192WAT      O84817   9.207   1.230   0.790
28192WAT     H184818   9.206   1.162   0.717
28192WAT     H284819   9.277   1.205   0.857
28193WAT      O84820   8.223   9.356   3.815
28193WAT     H184821   8.153   9.385   3.751
28193WAT     H284822   8.203   9.264   3.848
28194WAT      O84823   7.648   7.507   4.970
28194WAT     H184824   7.713   7.518   5.044
28194WAT     H284825   7.560   7.477   5.006
28195WAT      O84826   2.406   4.656   6.718
28195WAT     H184827   2.349   4.648   6.636
28195WAT     H284828   2.500   4.630   6.695
28196WAT      O84829   7.212   3.418   7.737
28196WAT     H184830   7.191   3.382   7.828
28196WAT     H284831   7.252   3.509   7.746
28197WAT      O84832   7.990   3.211   5.724
28197WAT     H184833   8.053   3.283   5.693
28197WAT     H284834   7.916   3.201   5.657
28198WAT      O84835   3.229   8.107   1.070
28198WAT     H184836   3.144   8.153   1.095
28198WAT     H284837   3.261   8.141   0.982
28199WAT      O84838   7.249   0.365   1.205
28199WAT     H184839   7.178   0.422   1.164
28199WAT     H284840   7.332   0.420   1.219
28200WAT      O84841   2.559   5.888   7.770
28200WAT     H184842   2.552   5.838   7.684
28200WAT     H284843   2.595   5.979   7.753
28201WAT      O84844   2.951   3.817   7.312
28201WAT     H184845   2.960   3.752   7.236
28201WAT     H284846   3.042   3.847   7.341
28202WAT      O84847   1.753   0.139   6.655
28202WAT     H184848   1.707   0.051   6.642
28202WAT     H284849   1.710   0.188   6.731
28203WAT      O84850   1.920   4.242   9.717
28203WAT     H184851   1.855   4.226   9.792
28203WAT     H284852   2.008   4.270   9.755
28204WAT      O84853   6.166   7.944   8.773
28204WAT     H184854   6.263   7.966   8.767
28204WAT     H284855   6.144   7.869   8.711
28205WAT      O84856   9.401   4.857   0.102
28205WAT     H184857   9.398   4.805   0.187
28205WAT     H284858   9.495   4.859   0.067
28206WAT      O84859   9.299   6.782   0.493
28206WAT     H184860   9.396   6.769   0.470
28206WAT     H284861   9.246   6.794   0.409
28207WAT      O84862   6.705   8.776   3.258
28207WAT     H184863   6.688   8.842   3.186
28207WAT     H284864   6.676   8.685   3.228
28208WAT      O84865   0.166   7.238   0.625
28208WAT     H184866   0.263   7.230   0.602
28208WAT     H284867   0.118   7.284   0.550
28209WAT      O84868   2.211   5.678   6.125
28209WAT     H184869   2.190   5.589   6.084
28209WAT     H284870   2.234   5.744   6.054
28210WAT      O84871   1.447   3.979   3.988
28210WAT     H184872   1.458   3.972   3.889
28210WAT     H284873   1.445   3.887   4.028
28211WAT      O84874   8.923   6.092   2.250
28211WAT     H184875   8.977   6.176   2.239
28211WAT     H284876   8.983   6.012   2.238
28212WAT      O84877   3.580   2.210   8.391
28212WAT     H184878   3.528   2.139   8.440
28212WAT     H284879   3.673   2.177   8.373
28213WAT      O84880   2.703   4.282   6.044
28213WAT     H184881   2.786   4.232   6.068
28213WAT     H284882   2.644   4.288   6.125
28214WAT      O84883   2.259   8.681   8.774
28214WAT     H184884   2.356   8.690   8.754
28214WAT     H284885   2.246   8.612   8.846
28215WAT      O84886   5.472   8.217   4.814
28215WAT     H184887   5.479   8.121   4.841
28215WAT     H284888   5.516   8.275   4.883
28216WAT      O84889   4.388   9.137   0.038
28216WAT     H184890   4.449   9.075   0.087
28216WAT     H284891   4.385   9.110  -0.059
28217WAT      O84892   8.920   2.711   7.875
28217WAT     H184893   8.912   2.611   7.885
28217WAT     H284894   8.832   2.753   7.898
28218WAT      O84895   6.043   3.680   4.188
28218WAT     H184896   6.092   3.767   4.186
28218WAT     H284897   5.951   3.695   4.222
28219WAT      O84898   8.451   2.971   1.481
28219WAT     H184899   8.459   3.047   1.416
28219WAT     H284900   8.444   2.885   1.431
28220WAT      O84901   6.439   4.729   9.817
28220WAT     H184902   6.404   4.731   9.723
28220WAT     H284903   6.371   4.770   9.878
28221WAT      O84904   7.194   2.279   6.278
28221WAT     H184905   7.192   2.215   6.355
28221WAT     H284906   7.135   2.244   6.205
28222WAT      O84907   0.431   9.712   0.509
28222WAT     H184908   0.471   9.803   0.492
28222WAT     H284909   0.373   9.687   0.432
28223WAT      O84910   8.968   4.607   0.191
28223WAT     H184911   8.957   4.511   0.216
28223WAT     H284912   8.891   4.661   0.225
28224WAT      O84913   9.003   8.027   6.818
28224WAT     H184914   9.083   7.978   6.853
28224WAT     H284915   8.947   7.965   6.763
28225WAT      O84916   9.032   2.125   8.977
28225WAT     H184917   9.088   2.065   9.034
28225WAT     H284918   9.050   2.105   8.881
28226WAT      O84919   6.253   5.498   8.533
28226WAT     H184920   6.284   5.408   8.502
28226WAT     H284921   6.290   5.569   8.473
28227WAT      O84922   1.344   0.457   9.089
28227WAT     H184923   1.431   0.434   9.133
28227WAT     H284924   1.343   0.554   9.064
28228WAT      O84925   2.091   6.107   4.036
28228WAT     H184926   2.116   6.012   4.050
28228WAT     H284927   2.068   6.121   3.940
28229WAT      O84928   0.025   9.531   6.955
28229WAT     H184929  -0.062   9.540   6.906
28229WAT     H284930   0.097   9.509   6.889
28230WAT      O84931   3.787   4.518   7.432
28230WAT     H184932   3.856   4.514   7.360
28230WAT     H284933   3.703   4.475   7.399
28231WAT      O84934   4.363   7.049   2.552
28231WAT     H184935   4.444   7.085   2.599
28231WAT     H284936   4.375   6.951   2.536
28232WAT      O84937   6.191   0.685   8.920
28232WAT     H184938   6.113   0.747   8.913
28232WAT     H284939   6.180   0.609   8.855
28233WAT      O84940   6.313   9.166   2.512
28233WAT     H184941   6.321   9.072   2.544
28233WAT     H284942   6.383   9.183   2.442
28234WAT      O84943   4.682   6.823   8.881
28234WAT     H184944   4.621   6.884   8.831
28234WAT     H284945   4.755   6.792   8.821
28235WAT      O84946   3.181   8.604   0.375
28235WAT     H184947   3.142   8.693   0.350
28235WAT     H284948   3.185   8.546   0.294
28236WAT      O84949   7.678   1.288   1.748
28236WAT     H184950   7.714   1.197   1.770
28236WAT     H284951   7.614   1.281   1.672
28237WAT      O84952   1.843   4.981   7.372
28237WAT     H184953   1.914   5.015   7.310
28237WAT     H284954   1.831   5.046   7.447
28238WAT      O84955   1.319   2.821   2.700
28238WAT     H184956   1.223   2.846   2.704
28238WAT     H284957   1.372   2.895   2.660
28239WAT      O84958   9.117   6.470   1.528
28239WAT     H184959   9.126   6.386   1.580
28239WAT     H284960   9.024   6.476   1.489
28240WAT      O84961   3.154   9.285   5.321
28240WAT     H184962   3.146   9.232   5.237
28240WAT     H284963   3.245   9.273   5.360
28241WAT      O84964   5.178   8.015   4.660
28241WAT     H184965   5.209   8.093   4.715
28241WAT     H284966   5.082   8.028   4.636
28242WAT      O84967   5.626   5.405   0.022
28242WAT     H184968   5.666   5.423  -0.068
28242WAT     H284969   5.528   5.390   0.012
28243WAT      O84970   6.975   1.684   8.009
28243WAT     H184971   6.934   1.604   8.053
28243WAT     H284972   7.051   1.718   8.065
28244WAT      O84973   0.249   8.986   5.887
28244WAT     H184974   0.209   8.988   5.979
28244WAT     H284975   0.294   8.898   5.873
28245WAT      O84976   1.590   5.690   2.827
28245WAT     H184977   1.681   5.697   2.787
28245WAT     H284978   1.560   5.594   2.828
28246WAT      O84979   7.766   2.191   1.752
28246WAT     H184980   7.776   2.127   1.828
28246WAT     H284981   7.791   2.283   1.782
28247WAT      O84982   7.840   6.582   6.983
28247WAT     H184983   7.825   6.673   6.943
28247WAT     H284984   7.866   6.518   6.911
28248WAT      O84985   7.608   1.867   3.398
28248WAT     H184986   7.666   1.944   3.374
28248WAT     H284987   7.633   1.787   3.343
28249WAT      O84988   4.549   1.359   8.888
28249WAT     H184989   4.597   1.279   8.854
28249WAT     H284990   4.516   1.342   8.981
28250WAT      O84991   0.062   7.924   7.291
28250WAT     H184992   0.154   7.928   7.331
28250WAT     H284993   0.058   7.983   7.211
28251WAT      O84994   3.301   4.004   3.123
28251WAT     H184995   3.398   3.989   3.138
28251WAT     H284996   3.266   3.935   3.059
28252WAT      O84997   6.129   8.311   4.460
28252WAT     H184998   6.072   8.391   4.480
28252WAT     H284999   6.125   8.291   4.362
28253WAT      O85000   7.990   1.585   0.325
28253WAT     H185001   7.935   1.580   0.408
28253WAT     H285002   7.931   1.575   0.245
28254WAT      O85003   8.294   2.791   7.885
28254WAT     H185004   8.235   2.835   7.954
28254WAT     H285005   8.344   2.716   7.927
28255WAT      O85006   8.906   4.078   6.609
28255WAT     H185007   8.928   3.988   6.572
28255WAT     H285008   8.943   4.148   6.548
28256WAT      O85009   6.810   0.936   3.210
28256WAT     H185010   6.880   1.006   3.197
28256WAT     H285011   6.720   0.975   3.188
28257WAT      O85012   1.955   1.414   0.488
28257WAT     H185013   2.042   1.434   0.533
28257WAT     H285014   1.947   1.315   0.472
28258WAT      O85015   8.999   8.177   8.025
28258WAT     H185016   8.927   8.208   7.962
28258WAT     H285017   8.959   8.120   8.096
28259WAT      O85018   2.419   8.327   0.125
28259WAT     H185019   2.336   8.378   0.100
28259WAT     H285020   2.455   8.363   0.211
28260WAT      O85021   0.247   0.961   2.880
28260WAT     H185022   0.317   0.955   2.951
28260WAT     H285023   0.174   1.023   2.910
28261WAT      O85024   1.414   1.407   4.853
28261WAT     H185025   1.439   1.361   4.768
28261WAT     H285026   1.316   1.397   4.869
28262WAT      O85027   9.342   3.364   7.984
28262WAT     H185028   9.404   3.326   8.052
28262WAT     H285029   9.255   3.389   8.027
28263WAT      O85030   9.632   4.562   1.414
28263WAT     H185031   9.579   4.547   1.498
28263WAT     H285032   9.569   4.573   1.337
28264WAT      O85033   0.984   5.506   1.481
28264WAT     H185034   0.933   5.592   1.478
28264WAT     H285035   1.032   5.499   1.569
28265WAT      O85036   6.169   6.823   9.486
28265WAT     H185037   6.129   6.772   9.410
28265WAT     H285038   6.268   6.809   9.488
28266WAT      O85039   0.978   9.695   1.666
28266WAT     H185040   1.002   9.774   1.722
28266WAT     H285041   1.009   9.611   1.710
28267WAT      O85042   9.439   3.693   5.352
28267WAT     H185043   9.405   3.723   5.441
28267WAT     H285044   9.539   3.689   5.355
28268WAT      O85045   1.434   9.578   5.341
28268WAT     H185046   1.386   9.666   5.348
28268WAT     H285047   1.397   9.526   5.264
28269WAT      O85048   8.892   0.569   4.948
28269WAT     H185049   8.941   0.615   4.875
28269WAT     H285050   8.878   0.472   4.925
28270WAT      O85051   1.393   9.606   6.866
28270WAT     H185052   1.354   9.515   6.866
28270WAT     H285053   1.324   9.673   6.838
28271WAT      O85054   3.707   6.524   9.213
28271WAT     H185055   3.614   6.560   9.222
28271WAT     H285056   3.739   6.537   9.119
28272WAT      O85057   4.933   4.811   2.436
28272WAT     H185058   4.927   4.712   2.435
28272WAT     H285059   4.854   4.851   2.390
28273WAT      O85060   0.119   0.985   5.021
28273WAT     H185061   0.195   1.048   5.035
28273WAT     H285062   0.038   1.020   5.067
28274WAT      O85063   2.951   8.830   4.412
28274WAT     H185064   2.965   8.771   4.333
28274WAT     H285065   3.039   8.867   4.442
28275WAT      O85066   5.392   6.851   4.566
28275WAT     H185067   5.311   6.862   4.624
28275WAT     H285068   5.367   6.870   4.471
28276WAT      O85069   9.782   7.463   3.513
28276WAT     H185070   9.882   7.471   3.503
28276WAT     H285071   9.744   7.553   3.534
28277WAT      O85072   7.064   7.949   5.839
28277WAT     H185073   7.130   7.995   5.781
28277WAT     H285074   7.008   7.886   5.785
28278WAT      O85075   7.361   8.297   4.635
28278WAT     H185076   7.429   8.364   4.609
28278WAT     H285077   7.348   8.231   4.561
28279WAT      O85078   9.385   9.826   2.507
28279WAT     H185079   9.344   9.832   2.416
28279WAT     H285080   9.470   9.774   2.502
28280WAT      O85081   5.371   8.310   0.552
28280WAT     H185082   5.414   8.220   0.545
28280WAT     H285083   5.424   8.367   0.615
28281WAT      O85084   2.482   6.296   9.002
28281WAT     H185085   2.447   6.252   8.919
28281WAT     H285086   2.491   6.228   9.074
28282WAT      O85087   1.248   6.516   0.060
28282WAT     H185088   1.163   6.484   0.103
28282WAT     H285089   1.325   6.467   0.100
28283WAT      O85090   7.270   7.752   8.410
28283WAT     H185091   7.333   7.735   8.335
28283WAT     H285092   7.209   7.827   8.387
28284WAT      O85093   9.860   2.288   2.042
28284WAT     H185094   9.822   2.379   2.061
28284WAT     H285095   9.895   2.248   2.127
28285WAT      O85096   8.722   8.988   8.353
28285WAT     H185097   8.816   8.958   8.341
28285WAT     H285098   8.696   8.976   8.449
28286WAT      O85099   4.326   6.749   8.308
28286WAT     H185100   4.417   6.706   8.304
28286WAT     H285101   4.331   6.832   8.363
28287WAT      O85102   2.446   7.184   2.532
28287WAT     H185103   2.385   7.189   2.453
28287WAT     H285104   2.392   7.169   2.615
28288WAT      O85105   7.032   1.580   9.476
28288WAT     H185106   7.022   1.486   9.443
28288WAT     H285107   7.072   1.637   9.405
28289WAT      O85108   7.434   6.933   9.056
28289WAT     H185109   7.341   6.904   9.033
28289WAT     H285110   7.433   7.028   9.087
28290WAT      O85111   2.197   9.621   5.891
28290WAT     H185112   2.135   9.582   5.960
28290WAT     H285113   2.203   9.720   5.905
28291WAT      O85114   5.965   9.314   2.144
28291WAT     H185115   6.043   9.371   2.115
28291WAT     H285116   5.984   9.218   2.124
28292WAT      O85117   0.829   3.208   9.709
28292WAT     H185118   0.868   3.286   9.660
28292WAT     H285119   0.826   3.229   9.807
28293WAT      O85120   8.552   0.153   8.744
28293WAT     H185121   8.636   0.132   8.794
28293WAT     H285122   8.538   0.252   8.744
28294WAT      O85123   1.517   9.751   9.742
28294WAT     H185124   1.535   9.849   9.747
28294WAT     H285125   1.598   9.701   9.775
28295WAT      O85126   6.680   7.839   1.514
28295WAT     H185127   6.654   7.792   1.429
28295WAT     H285128   6.741   7.781   1.567
28296WAT      O85129   1.797   4.968   7.730
28296WAT     H185130   1.859   5.042   7.705
28296WAT     H285131   1.844   4.880   7.720
28297WAT      O85132   3.882   1.134   9.775
28297WAT     H185133   3.898   1.230   9.753
28297WAT     H285134   3.784   1.113   9.764
28298WAT      O85135   2.352   0.188   1.328
28298WAT     H185136   2.365   0.099   1.286
28298WAT     H285137   2.271   0.186   1.387
28299WAT      O85138   6.865   7.190   1.880
28299WAT     H185139   6.834   7.273   1.926
28299WAT     H285140   6.800   7.115   1.897
28300WAT      O85141   5.581   8.611   6.960
28300WAT     H185142   5.589   8.511   6.970
28300WAT     H285143   5.647   8.655   7.021
28301WAT      O85144   6.293   0.188   6.238
28301WAT     H185145   6.343   0.262   6.192
28301WAT     H285146   6.303   0.198   6.337
28302WAT      O85147   4.938   0.275   9.380
28302WAT     H185148   4.932   0.374   9.366
28302WAT     H285149   5.034   0.248   9.387
28303WAT      O85150   1.491   9.534   9.190
28303WAT     H185151   1.454   9.498   9.276
28303WAT     H285152   1.417   9.573   9.136
28304WAT      O85153   0.647   3.649   5.365
28304WAT     H185154   0.615   3.556   5.378
28304WAT     H285155   0.601   3.710   5.429
28305WAT      O85156   7.100   8.831   2.091
28305WAT     H185157   7.051   8.875   2.016
28305WAT     H285158   7.143   8.747   2.057
28306WAT      O85159   3.638   5.286   8.869
28306WAT     H185160   3.609   5.205   8.818
28306WAT     H285161   3.680   5.351   8.806
28307WAT      O85162   2.639   8.676   4.733
28307WAT     H185163   2.616   8.639   4.823
28307WAT     H285164   2.581   8.634   4.664
28308WAT      O85165   3.512   5.170   0.622
28308WAT     H185166   3.456   5.192   0.701
28308WAT     H285167   3.519   5.250   0.562
28309WAT      O85168   2.124   1.604   3.358
28309WAT     H185169   2.180   1.572   3.435
28309WAT     H285170   2.163   1.688   3.321
28310WAT      O85171   6.131   5.718   6.577
28310WAT     H185172   6.160   5.694   6.670
28310WAT     H285173   6.036   5.689   6.564
28311WAT      O85174   3.979   8.007   1.804
28311WAT     H185175   3.997   7.937   1.873
28311WAT     H285176   3.916   8.075   1.842
28312WAT      O85177   8.825   7.392   5.861
28312WAT     H185178   8.896   7.322   5.869
28312WAT     H285179   8.747   7.355   5.812
28313WAT      O85180   5.870   1.774   4.338
28313WAT     H185181   5.771   1.776   4.355
28313WAT     H285182   5.904   1.867   4.329
28314WAT      O85183   3.347   4.200   9.179
28314WAT     H185184   3.445   4.189   9.159
28314WAT     H285185   3.320   4.294   9.160
28315WAT      O85186   0.806   2.194   0.617
28315WAT     H185187   0.732   2.177   0.553
28315WAT     H285188   0.831   2.109   0.663
28316WAT      O85189   1.376   8.402   3.709
28316WAT     H185190   1.389   8.372   3.804
28316WAT     H285191   1.457   8.377   3.655
28317WAT      O85192   9.587   0.427   2.302
28317WAT     H185193   9.683   0.421   2.275
28317WAT     H285194   9.532   0.369   2.242
28318WAT      O85195   4.246   1.148   2.005
28318WAT     H185196   4.237   1.053   2.035
28318WAT     H285197   4.281   1.204   2.080
28319WAT      O85198   2.581   1.839   0.101
28319WAT     H185199   2.565   1.775   0.176
28319WAT     H285200   2.525   1.921   0.114
28320WAT      O85201   7.627   6.687   6.579
28320WAT     H185202   7.704   6.657   6.635
28320WAT     H285203   7.563   6.740   6.636
28321WAT      O85204   7.194   4.097   8.919
28321WAT     H185205   7.185   4.165   8.846
28321WAT     H285206   7.261   4.129   8.986
28322WAT      O85207   4.276   3.744   0.084
28322WAT     H185208   4.298   3.647   0.090
28322WAT     H285209   4.178   3.755   0.063
28323WAT      O85210   2.935   8.021   2.763
28323WAT     H185211   3.032   8.013   2.743
28323WAT     H285212   2.916   7.979   2.852
28324WAT      O85213   9.608   6.323   0.887
28324WAT     H185214   9.565   6.326   0.797
28324WAT     H285215   9.628   6.416   0.918
28325WAT      O85216   3.293   5.500   7.984
28325WAT     H185217   3.293   5.597   8.011
28325WAT     H285218   3.203   5.475   7.949
28326WAT      O85219   6.037   2.442   4.105
28326WAT     H185220   5.950   2.481   4.133
28326WAT     H285221   6.106   2.514   4.098
28327WAT      O85222   5.551   6.543   3.892
28327WAT     H185223   5.511   6.629   3.922
28327WAT     H285224   5.649   6.544   3.909
28328WAT      O85225   3.835   4.158   8.658
28328WAT     H185226   3.885   4.077   8.629
28328WAT     H285227   3.849   4.232   8.593
28329WAT      O85228   5.384   5.633   5.039
28329WAT     H185229   5.465   5.692   5.043
28329WAT     H285230   5.358   5.619   4.943
28330WAT      O85231   3.282   8.366   9.564
28330WAT     H185232   3.357   8.345   9.501
28330WAT     H285233   3.208   8.410   9.514
28331WAT      O85234   0.160   8.299   6.715
28331WAT     H185235   0.124   8.220   6.765
28331WAT     H285236   0.251   8.322   6.750
28332WAT      O85237   2.777   6.786   8.532
28332WAT     H185238   2.843   6.783   8.457
28332WAT     H285239   2.685   6.789   8.495
28333WAT      O85240   2.466   1.138   7.698
28333WAT     H185241   2.372   1.104   7.707
28333WAT     H285242   2.464   1.238   7.685
28334WAT      O85243   3.225   3.585   1.638
28334WAT     H185244   3.148   3.644   1.664
28334WAT     H285245   3.189   3.502   1.596
28335WAT      O85246   6.240   8.328   2.411
28335WAT     H185247   6.219   8.297   2.318
28335WAT     H285248   6.336   8.353   2.417
28336WAT      O85249   0.094   2.165   9.800
28336WAT     H185250   0.048   2.250   9.825
28336WAT     H285251   0.093   2.153   9.701
28337WAT      O85252   6.401   2.103   9.077
28337WAT     H185253   6.475   2.166   9.100
28337WAT     H285254   6.314   2.141   9.108
28338WAT      O85255   2.299   3.874   5.450
28338WAT     H185256   2.220   3.933   5.463
28338WAT     H285257   2.378   3.910   5.500
28339WAT      O85258   0.532   6.349   5.982
28339WAT     H185259   0.550   6.317   5.889
28339WAT     H285260   0.602   6.416   6.008
28340WAT      O85261   2.424   1.693   8.939
28340WAT     H185262   2.524   1.699   8.944
28340WAT     H285263   2.391   1.748   8.862
28341WAT      O85264   5.707   2.387   7.981
28341WAT     H185265   5.788   2.417   7.931
28341WAT     H285266   5.630   2.377   7.917
28342WAT      O85267   5.255   2.518   9.747
28342WAT     H185268   5.261   2.441   9.811
28342WAT     H285269   5.347   2.550   9.725
28343WAT      O85270   3.155   7.218   7.095
28343WAT     H185271   3.246   7.253   7.119
28343WAT     H285272   3.086   7.268   7.148
28344WAT      O85273   8.832   1.315   8.018
28344WAT     H185274   8.750   1.293   8.070
28344WAT     H285275   8.867   1.232   7.974
28345WAT      O85276   2.502   7.600   7.924
28345WAT     H185277   2.564   7.671   7.954
28345WAT     H285278   2.534   7.511   7.958
28346WAT      O85279   8.896   2.498   3.059
28346WAT     H185280   8.850   2.417   3.096
28346WAT     H285281   8.879   2.576   3.119
28347WAT      O85282   4.106   8.472   4.776
28347WAT     H185283   4.088   8.450   4.680
28347WAT     H285284   4.030   8.439   4.832
28348WAT      O85285   9.716   0.837   9.609
28348WAT     H185286   9.745   0.863   9.517
28348WAT     H285287   9.782   0.774   9.648
28349WAT      O85288   8.095   7.136   8.587
28349WAT     H185289   8.121   7.229   8.563
28349WAT     H285290   7.997   7.132   8.605
28350WAT      O85291   7.695   0.885   4.536
28350WAT     H185292   7.690   0.943   4.617
28350WAT     H285293   7.613   0.828   4.532
28351WAT      O85294   9.607   3.874   8.431
28351WAT     H185295   9.691   3.860   8.483
28351WAT     H285296   9.565   3.960   8.459
28352WAT      O85297   6.664   0.534   5.327
28352WAT     H185298   6.698   0.626   5.305
28352WAT     H285299   6.735   0.467   5.304
28353WAT      O85300   4.905   8.023   9.176
28353WAT     H185301   5.004   8.022   9.162
28353WAT     H285302   4.859   8.043   9.090
28354WAT      O85303   5.169   4.883   9.654
28354WAT     H185304   5.101   4.915   9.721
28354WAT     H285305   5.205   4.795   9.683
28355WAT      O85306   1.001   8.066   4.016
28355WAT     H185307   1.066   8.090   3.944
28355WAT     H285308   1.048   8.011   4.086
28356WAT      O85309   4.428   6.817   2.973
28356WAT     H185310   4.360   6.847   2.906
28356WAT     H285311   4.511   6.789   2.925
28357WAT      O85312   3.256   8.925   5.348
28357WAT     H185313   3.244   8.827   5.337
28357WAT     H285314   3.185   8.974   5.298
28358WAT      O85315   0.681   8.923   7.683
28358WAT     H185316   0.604   8.862   7.700
28358WAT     H285317   0.734   8.934   7.766
28359WAT      O85318   5.172   5.973   1.306
28359WAT     H185319   5.163   6.073   1.307
28359WAT     H285320   5.182   5.940   1.400
28360WAT      O85321   2.624   1.302   2.274
28360WAT     H185322   2.591   1.379   2.219
28360WAT     H285323   2.588   1.216   2.236
28361WAT      O85324   6.223   6.795   0.940
28361WAT     H185325   6.146   6.859   0.932
28361WAT     H285326   6.254   6.792   1.036
28362WAT      O85327   9.671   6.711   7.573
28362WAT     H185328   9.667   6.618   7.536
28362WAT     H285329   9.705   6.773   7.502
28363WAT      O85330   6.740   6.633   2.038
28363WAT     H185331   6.663   6.624   2.101
28363WAT     H285332   6.787   6.545   2.031
28364WAT      O85333   9.778   4.782   5.477
28364WAT     H185334   9.684   4.752   5.466
28364WAT     H285335   9.836   4.704   5.501
28365WAT      O85336   5.435   5.581   6.616
28365WAT     H185337   5.495   5.545   6.688
28365WAT     H285338   5.440   5.523   6.535
28366WAT      O85339   1.941   9.217   0.421
28366WAT     H185340   1.928   9.253   0.329
28366WAT     H285341   1.978   9.125   0.416
28367WAT      O85342   8.626   2.465   9.006
28367WAT     H185343   8.722   2.483   8.986
28367WAT     H285344   8.605   2.369   8.985
28368WAT      O85345   3.280   8.873   9.101
28368WAT     H185346   3.232   8.922   9.174
28368WAT     H285347   3.372   8.911   9.091
28369WAT      O85348   4.888   7.406   3.133
28369WAT     H185349   4.811   7.357   3.174
28369WAT     H285350   4.950   7.437   3.206
28370WAT      O85351   3.313   0.926   6.042
28370WAT     H185352   3.356   0.836   6.038
28370WAT     H285353   3.214   0.915   6.052
28371WAT      O85354   6.778   3.100   1.097
28371WAT     H185355   6.797   3.058   1.009
28371WAT     H285356   6.714   3.177   1.084
28372WAT      O85357   4.465   8.716   9.531
28372WAT     H185358   4.433   8.789   9.591
28372WAT     H285359   4.402   8.638   9.536
28373WAT      O85360   6.032   1.902   8.801
28373WAT     H185361   6.064   1.932   8.891
28373WAT     H285362   6.061   1.968   8.731
28374WAT      O85363   5.970   6.596   5.838
28374WAT     H185364   5.979   6.526   5.768
28374WAT     H285365   5.880   6.588   5.882
28375WAT      O85366   3.278   1.437   1.190
28375WAT     H185367   3.366   1.396   1.168
28375WAT     H285368   3.205   1.385   1.145
28376WAT      O85369   6.851   2.580   3.670
28376WAT     H185370   6.919   2.531   3.725
28376WAT     H285371   6.771   2.601   3.727
28377WAT      O85372   0.421   2.480   5.637
28377WAT     H185373   0.446   2.507   5.730
28377WAT     H285374   0.487   2.411   5.605
28378WAT      O85375   6.886   4.281   1.351
28378WAT     H185376   6.955   4.215   1.382
28378WAT     H285377   6.877   4.354   1.418
28379WAT      O85378   4.521   2.153   8.417
28379WAT     H185379   4.489   2.137   8.324
28379WAT     H285380   4.619   2.176   8.416
28380WAT      O85381   4.907   7.221   2.615
28380WAT     H185382   4.999   7.241   2.580
28380WAT     H285383   4.842   7.288   2.579
28381WAT      O85384   9.034   6.171   5.466
28381WAT     H185385   8.946   6.125   5.477
28381WAT     H285386   9.106   6.103   5.456
28382WAT      O85387   7.404   7.411   0.010
28382WAT     H185388   7.379   7.503  -0.020
28382WAT     H285389   7.477   7.375  -0.049
28383WAT      O85390   8.450   3.862   0.350
28383WAT     H185391   8.444   3.891   0.255
28383WAT     H285392   8.514   3.923   0.399
28384WAT      O85393   4.085   1.094   6.830
28384WAT     H185394   4.089   1.045   6.917
28384WAT     H285395   4.176   1.130   6.808
28385WAT      O85396   0.106   1.299   4.430
28385WAT     H185397   0.172   1.246   4.483
28385WAT     H285398   0.048   1.352   4.492
28386WAT      O85399   2.862   2.124   6.917
28386WAT     H185400   2.869   2.221   6.890
28386WAT     H285401   2.874   2.117   7.016
28387WAT      O85402   5.842   3.737   7.084
28387WAT     H185403   5.848   3.703   6.991
28387WAT     H285404   5.927   3.783   7.110
28388WAT      O85405   0.018   7.689   2.871
28388WAT     H185406  -0.018   7.769   2.823
28388WAT     H285407  -0.053   7.618   2.874
28389WAT      O85408   0.188   2.155   7.292
28389WAT     H185409   0.178   2.187   7.198
28389WAT     H285410   0.098   2.144   7.333
28390WAT      O85411   9.034   8.665   3.310
28390WAT     H185412   9.031   8.572   3.346
28390WAT     H285413   9.113   8.675   3.250
28391WAT      O85414   5.401   3.017   5.497
28391WAT     H185415   5.385   2.920   5.516
28391WAT     H285416   5.323   3.053   5.445
28392WAT      O85417   3.723   3.110   3.839
28392WAT     H185418   3.692   3.204   3.830
28392WAT     H285419   3.820   3.104   3.814
28393WAT      O85420   9.495   4.645   3.974
28393WAT     H185421   9.498   4.744   3.956
28393WAT     H285422   9.585   4.606   3.956
28394WAT      O85423   4.873   7.509   4.724
28394WAT     H185424   4.843   7.419   4.694
28394WAT     H285425   4.817   7.579   4.680
28395WAT      O85426   6.834   8.855   4.569
28395WAT     H185427   6.819   8.836   4.472
28395WAT     H285428   6.746   8.873   4.612
28396WAT      O85429   3.323   4.687   2.795
28396WAT     H185430   3.318   4.787   2.792
28396WAT     H285431   3.419   4.660   2.794
28397WAT      O85432   2.367   4.068   1.785
28397WAT     H185433   2.276   4.035   1.810
28397WAT     H285434   2.359   4.148   1.726
28398WAT      O85435   0.066   5.110   0.089
28398WAT     H185436   0.070   5.136   0.186
28398WAT     H285437   0.011   5.176   0.039
28399WAT      O85438   3.158   5.659   6.359
28399WAT     H185439   3.256   5.642   6.364
28399WAT     H285440   3.136   5.746   6.404
28400WAT      O85441   6.477   1.844   0.719
28400WAT     H185442   6.466   1.891   0.807
28400WAT     H285443   6.485   1.746   0.734
28401WAT      O85444   4.625   3.777   4.181
28401WAT     H185445   4.661   3.724   4.258
28401WAT     H285446   4.529   3.756   4.168
28402WAT      O85447   1.731   1.727   1.141
28402WAT     H185448   1.829   1.722   1.161
28402WAT     H285449   1.687   1.643   1.171
28403WAT      O85450   6.550   9.621   3.880
28403WAT     H185451   6.452   9.639   3.892
28403WAT     H285452   6.584   9.676   3.803
28404WAT      O85453   9.298   2.078   0.445
28404WAT     H185454   9.223   2.144   0.440
28404WAT     H285455   9.379   2.123   0.483
28405WAT      O85456   6.697   3.552   3.196
28405WAT     H185457   6.620   3.490   3.206
28405WAT     H285458   6.741   3.566   3.285
28406WAT      O85459   6.343   0.429   2.693
28406WAT     H185460   6.310   0.389   2.608
28406WAT     H285461   6.401   0.509   2.671
28407WAT      O85462   9.875   3.815   4.374
28407WAT     H185463   9.900   3.889   4.311
28407WAT     H285464   9.809   3.754   4.330
28408WAT      O85465   3.782   1.869   2.532
28408WAT     H185466   3.871   1.915   2.528
28408WAT     H285467   3.751   1.849   2.439
28409WAT      O85468   6.428   5.426   2.360
28409WAT     H185469   6.385   5.337   2.369
28409WAT     H285470   6.500   5.435   2.429
28410WAT      O85471   0.826   4.642   2.509
28410WAT     H185472   0.782   4.677   2.427
28410WAT     H285473   0.863   4.550   2.491
28411WAT      O85474   1.976   1.831   1.996
28411WAT     H185475   1.919   1.793   2.069
28411WAT     H285476   2.058   1.774   1.985
28412WAT      O85477   0.037   5.005   5.565
28412WAT     H185478   0.128   4.969   5.584
28412WAT     H285479  -0.027   4.930   5.549
28413WAT      O85480   5.391   0.874   3.730
28413WAT     H185481   5.424   0.941   3.664
28413WAT     H285482   5.436   0.786   3.714
28414WAT      O85483   5.357   0.076   3.467
28414WAT     H185484   5.301   0.033   3.538
28414WAT     H285485   5.359   0.175   3.482
28415WAT      O85486   5.409   0.295   1.427
28415WAT     H185487   5.397   0.254   1.517
28415WAT     H285488   5.393   0.393   1.433
28416WAT      O85489   7.995   1.127   0.954
28416WAT     H185490   7.962   1.221   0.943
28416WAT     H285491   8.027   1.113   1.048
28417WAT      O85492   1.316   3.016   8.957
28417WAT     H185493   1.307   3.044   8.861
28417WAT     H285494   1.388   2.948   8.965
28418WAT      O85495   4.503   5.127   3.319
28418WAT     H185496   4.463   5.173   3.240
28418WAT     H285497   4.520   5.194   3.391
28419WAT      O85498   6.499   5.671   7.176
28419WAT     H185499   6.519   5.622   7.090
28419WAT     H285500   6.569   5.740   7.192
28420WAT      O85501   8.291   9.590   9.843
28420WAT     H185502   8.300   9.674   9.896
28420WAT     H285503   8.255   9.517   9.901
28421WAT      O85504   9.320   1.466   0.729
28421WAT     H185505   9.282   1.374   0.728
28421WAT     H285506   9.371   1.482   0.644
28422WAT      O85507   8.012   0.874   7.381
28422WAT     H185508   7.969   0.891   7.470
28422WAT     H285509   8.111   0.869   7.393
28423WAT      O85510   0.521   9.009   9.855
28423WAT     H185511   0.605   8.968   9.820
28423WAT     H285512   0.539   9.051   9.944
28424WAT      O85513   4.900   0.649   7.648
28424WAT     H185514   4.955   0.732   7.658
28424WAT     H285515   4.862   0.623   7.736
28425WAT      O85516   7.271   4.057   0.267
28425WAT     H185517   7.326   4.126   0.222
28425WAT     H285518   7.245   4.089   0.359
28426WAT      O85519   7.050   4.130   5.756
28426WAT     H185520   6.998   4.155   5.838
28426WAT     H285521   7.050   4.031   5.746
28427WAT      O85522   8.051   8.184   0.584
28427WAT     H185523   7.990   8.107   0.567
28427WAT     H285524   8.084   8.220   0.497
28428WAT      O85525   3.950   3.946   8.563
28428WAT     H185526   3.912   3.868   8.512
28428WAT     H285527   4.049   3.934   8.573
28429WAT      O85528   7.676   2.447   8.201
28429WAT     H185529   7.659   2.443   8.102
28429WAT     H285530   7.630   2.370   8.245
28430WAT      O85531   6.695   5.579   7.440
28430WAT     H185532   6.660   5.487   7.422
28430WAT     H285533   6.692   5.597   7.538
28431WAT      O85534   1.762   5.127   6.383
28431WAT     H185535   1.799   5.035   6.378
28431WAT     H285536   1.662   5.124   6.375
28432WAT      O85537   3.403   5.957   6.266
28432WAT     H185538   3.373   5.984   6.175
28432WAT     H285539   3.357   6.013   6.335
28433WAT      O85540   0.376   9.109   9.662
28433WAT     H185541   0.426   9.055   9.729
28433WAT     H285542   0.347   9.196   9.703
28434WAT      O85543   1.731   3.640   4.147
28434WAT     H185544   1.776   3.706   4.087
28434WAT     H285545   1.708   3.558   4.095
28435WAT      O85546   3.727   2.877   4.598
28435WAT     H185547   3.736   2.850   4.502
28435WAT     H285548   3.648   2.830   4.638
28436WAT      O85549   1.765   9.642   3.652
28436WAT     H185550   1.825   9.619   3.729
28436WAT     H285551   1.699   9.569   3.638
28437WAT      O85552   6.974   2.304   9.315
28437WAT     H185553   7.049   2.370   9.314
28437WAT     H285554   7.002   2.222   9.365
28438WAT      O85555   9.007   9.460   2.155
28438WAT     H185556   9.043   9.498   2.069
28438WAT     H285557   9.016   9.360   2.153
28439WAT      O85558   1.769   1.054   2.628
28439WAT     H185559   1.683   1.002   2.617
28439WAT     H285560   1.816   1.060   2.540
28440WAT      O85561   8.996   2.883   9.844
28440WAT     H185562   9.043   2.808   9.798
28440WAT     H285563   8.981   2.958   9.780
28441WAT      O85564   8.932   0.831   7.133
28441WAT     H185565   9.030   0.842   7.123
28441WAT     H285566   8.886   0.861   7.049
28442WAT      O85567   6.815   6.038   0.818
28442WAT     H185568   6.810   5.969   0.890
28442WAT     H285569   6.735   6.030   0.759
28443WAT      O85570   8.487   8.511   6.751
28443WAT     H185571   8.441   8.555   6.828
28443WAT     H285572   8.443   8.423   6.732
28444WAT      O85573   4.774   1.074   2.944
28444WAT     H185574   4.736   0.991   2.904
28444WAT     H285575   4.785   1.061   3.042
28445WAT      O85576   3.723   9.197   8.985
28445WAT     H185577   3.627   9.216   9.007
28445WAT     H285578   3.760   9.131   9.050
28446WAT      O85579   3.616   6.332   2.688
28446WAT     H185580   3.528   6.320   2.734
28446WAT     H285581   3.656   6.420   2.714
28447WAT      O85582   5.957   9.802   4.442
28447WAT     H185583   5.995   9.871   4.381
28447WAT     H285584   6.029   9.736   4.466
28448WAT      O85585   8.388   0.344   2.557
28448WAT     H185586   8.324   0.339   2.634
28448WAT     H285587   8.371   0.428   2.505
28449WAT      O85588   6.255   5.990   6.024
28449WAT     H185589   6.161   5.990   6.058
28449WAT     H285590   6.281   5.898   5.996
28450WAT      O85591   8.086   3.271   9.633
28450WAT     H185592   8.022   3.194   9.641
28450WAT     H285593   8.034   3.356   9.628
28451WAT      O85594   9.460   0.999   7.549
28451WAT     H185595   9.374   0.979   7.502
28451WAT     H285596   9.487   0.920   7.605
28452WAT      O85597   8.118   9.448   5.967
28452WAT     H185598   8.210   9.475   5.994
28452WAT     H285599   8.068   9.528   5.933
28453WAT      O85600   1.015   1.624   3.867
28453WAT     H185601   0.927   1.644   3.825
28453WAT     H285602   1.042   1.700   3.927
28454WAT      O85603   6.927   6.331   1.102
28454WAT     H185604   6.981   6.251   1.128
28454WAT     H285605   6.974   6.414   1.133
28455WAT      O85606   4.414   9.438   7.197
28455WAT     H185607   4.421   9.368   7.126
28455WAT     H285608   4.445   9.400   7.285
28456WAT      O85609   8.042   2.345   2.896
28456WAT     H185610   8.082   2.291   2.970
28456WAT     H285611   7.974   2.408   2.933
28457WAT      O85612   8.825   2.948   1.441
28457WAT     H185613   8.777   2.975   1.524
28457WAT     H285614   8.773   2.976   1.361
28458WAT      O85615   8.722   3.593   7.028
28458WAT     H185616   8.798   3.577   6.965
28458WAT     H285617   8.694   3.507   7.069
28459WAT      O85618   8.492   5.760   2.544
28459WAT     H185619   8.559   5.711   2.601
28459WAT     H285620   8.430   5.813   2.602
28460WAT      O85621   0.291   5.776   3.231
28460WAT     H185622   0.275   5.823   3.318
28460WAT     H285623   0.207   5.779   3.176
28461WAT      O85624   7.404   5.492   2.144
28461WAT     H185625   7.331   5.477   2.210
28461WAT     H285626   7.457   5.573   2.170
28462WAT      O85627   3.669   9.654   5.388
28462WAT     H185628   3.709   9.614   5.305
28462WAT     H285629   3.595   9.717   5.362
28463WAT      O85630   2.955   5.176   1.431
28463WAT     H185631   2.978   5.180   1.528
28463WAT     H285632   3.013   5.108   1.386
28464WAT      O85633   7.666   1.838   6.535
28464WAT     H185634   7.738   1.907   6.530
28464WAT     H285635   7.687   1.762   6.472
28465WAT      O85636   2.153   1.770   6.897
28465WAT     H185637   2.217   1.750   6.971
28465WAT     H285638   2.059   1.762   6.931
28466WAT      O85639   7.863   2.757   7.149
28466WAT     H185640   7.934   2.689   7.131
28466WAT     H285641   7.789   2.715   7.202
28467WAT      O85642   7.640   3.176   0.021
28467WAT     H185643   7.688   3.258  -0.009
28467WAT     H285644   7.542   3.188   0.011
28468WAT      O85645   0.235   2.000   7.878
28468WAT     H185646   0.219   2.062   7.955
28468WAT     H285647   0.150   1.951   7.858
28469WAT      O85648   3.684   3.500   2.900
28469WAT     H185649   3.761   3.454   2.857
28469WAT     H285650   3.718   3.572   2.960
28470WAT      O85651   5.028   7.554   5.810
28470WAT     H185652   5.060   7.533   5.717
28470WAT     H285653   5.106   7.584   5.865
28471WAT      O85654   3.489   1.649   7.986
28471WAT     H185655   3.417   1.586   7.957
28471WAT     H285656   3.562   1.597   8.031
28472WAT      O85657   4.200   7.518   6.423
28472WAT     H185658   4.161   7.438   6.376
28472WAT     H285659   4.287   7.542   6.380
28473WAT      O85660   3.217   8.772   7.919
28473WAT     H185661   3.249   8.686   7.880
28473WAT     H285662   3.201   8.839   7.845
28474WAT      O85663   3.757   9.700   5.134
28474WAT     H185664   3.761   9.795   5.104
28474WAT     H285665   3.760   9.640   5.054
28475WAT      O85666   5.669   2.944   2.402
28475WAT     H185667   5.626   2.982   2.320
28475WAT     H285668   5.605   2.883   2.448
28476WAT      O85669   6.979   1.944   5.850
28476WAT     H185670   7.004   2.031   5.809
28476WAT     H285671   6.904   1.903   5.799
28477WAT      O85672   1.460   3.796   5.783
28477WAT     H185673   1.478   3.724   5.716
28477WAT     H285674   1.361   3.803   5.799
28478WAT      O85675   9.600   9.672   2.511
28478WAT     H185676   9.681   9.639   2.560
28478WAT     H285677   9.628   9.721   2.429
28479WAT      O85678   5.371   3.000   9.661
28479WAT     H185679   5.447   2.964   9.607
28479WAT     H285680   5.287   2.994   9.608
28480WAT      O85681   5.542   5.198   1.514
28480WAT     H185682   5.559   5.297   1.512
28480WAT     H285683   5.622   5.150   1.479
28481WAT      O85684   9.614   1.328   6.866
28481WAT     H185685   9.710   1.332   6.895
28481WAT     H285686   9.599   1.394   6.792
28482WAT      O85687   1.617   2.209   5.483
28482WAT     H185688   1.618   2.307   5.462
28482WAT     H285689   1.623   2.196   5.582
28483WAT      O85690   8.182   1.553   6.013
28483WAT     H185691   8.196   1.541   6.111
28483WAT     H285692   8.128   1.636   5.998
28484WAT      O85693   1.064   5.010   9.211
28484WAT     H185694   1.141   4.971   9.161
28484WAT     H285695   1.011   4.936   9.253
28485WAT      O85696   8.252   1.908   4.717
28485WAT     H185697   8.332   1.894   4.775
28485WAT     H285698   8.217   1.820   4.686
28486WAT      O85699   7.107   3.113   8.396
28486WAT     H185700   7.041   3.061   8.343
28486WAT     H285701   7.195   3.114   8.349
28487WAT      O85702   2.171   1.394   5.331
28487WAT     H185703   2.266   1.417   5.314
28487WAT     H285704   2.112   1.448   5.271
28488WAT      O85705   9.433   1.167   0.919
28488WAT     H185706   9.430   1.083   0.973
28488WAT     H285707   9.476   1.148   0.831
28489WAT      O85708   3.189   3.204   4.134
28489WAT     H185709   3.257   3.131   4.123
28489WAT     H285710   3.187   3.233   4.230
28490WAT      O85711   9.803   2.385   5.589
28490WAT     H185712   9.737   2.310   5.599
28490WAT     H285713   9.889   2.348   5.553
28491WAT      O85714   5.611   1.018   8.034
28491WAT     H185715   5.639   1.113   8.049
28491WAT     H285716   5.576   1.007   7.941
28492WAT      O85717   7.698   4.561   7.002
28492WAT     H185718   7.640   4.638   7.030
28492WAT     H285719   7.734   4.577   6.910
28493WAT      O85720   6.110   7.267   8.865
28493WAT     H185721   6.134   7.360   8.839
28493WAT     H285722   6.020   7.244   8.829
28494WAT      O85723   9.469   8.785   4.614
28494WAT     H185724   9.568   8.771   4.623
28494WAT     H285725   9.437   8.845   4.686
28495WAT      O85726   3.937   5.481   7.497
28495WAT     H185727   3.941   5.501   7.399
28495WAT     H285728   4.014   5.422   7.522
28496WAT      O85729   3.338   6.368   5.210
28496WAT     H185730   3.351   6.453   5.159
28496WAT     H285731   3.411   6.357   5.277
28497WAT      O85732   4.023   4.036   0.331
28497WAT     H185733   4.034   4.124   0.286
28497WAT     H285734   4.079   4.033   0.414
28498WAT      O85735   3.981   0.660   3.053
28498WAT     H185736   3.902   0.609   3.020
28498WAT     H285737   4.019   0.717   2.980
28499WAT      O85738   9.337   4.443   3.493
28499WAT     H185739   9.290   4.481   3.573
28499WAT     H285740   9.319   4.500   3.413
28500WAT      O85741   2.038   3.329   0.628
28500WAT     H185742   2.054   3.252   0.691
28500WAT     H285743   1.949   3.317   0.583
28501WAT      O85744   5.277   5.059   8.646
28501WAT     H185745   5.343   5.131   8.622
28501WAT     H285746   5.186   5.086   8.615
28502WAT      O85747   9.195   4.753   6.262
28502WAT     H185748   9.253   4.832   6.244
28502WAT     H285749   9.195   4.693   6.182
28503WAT      O85750   7.710   8.785   9.665
28503WAT     H185751   7.679   8.757   9.756
28503WAT     H285752   7.759   8.872   9.672
28504WAT      O85753   4.353   4.174   9.392
28504WAT     H185754   4.284   4.213   9.453
28504WAT     H285755   4.350   4.221   9.304
28505WAT      O85756   3.256   1.715   8.893
28505WAT     H185757   3.172   1.727   8.945
28505WAT     H285758   3.329   1.769   8.934
28506WAT      O85759   3.213   4.755   4.064
28506WAT     H185760   3.199   4.802   4.152
28506WAT     H285761   3.310   4.762   4.038
28507WAT      O85762   6.098   2.086   0.699
28507WAT     H185763   6.126   1.993   0.674
28507WAT     H285764   6.016   2.112   0.647
28508WAT      O85765   7.146   1.751   5.871
28508WAT     H185766   7.107   1.844   5.866
28508WAT     H285767   7.209   1.738   5.796
28509WAT      O85768   7.615   5.311   1.512
28509WAT     H185769   7.528   5.361   1.515
28509WAT     H285770   7.600   5.221   1.473
28510WAT      O85771   0.832   9.515   4.723
28510WAT     H185772   0.823   9.588   4.790
28510WAT     H285773   0.744   9.501   4.677
28511WAT      O85774   9.610   3.819   0.246
28511WAT     H185775   9.616   3.733   0.298
28511WAT     H285776   9.550   3.883   0.295
28512WAT      O85777   5.584   5.049   9.759
28512WAT     H185778   5.677   5.073   9.786
28512WAT     H285779   5.570   4.951   9.773
28513WAT      O85780   9.234   2.886   6.105
28513WAT     H185781   9.265   2.809   6.049
28513WAT     H285782   9.160   2.934   6.057
28514WAT      O85783   0.814   9.080   6.577
28514WAT     H185784   0.723   9.057   6.544
28514WAT     H285785   0.883   9.040   6.517
28515WAT      O85786   9.333   6.526   8.334
28515WAT     H185787   9.364   6.449   8.279
28515WAT     H285788   9.336   6.609   8.280
28516WAT      O85789   8.568   8.269   6.242
28516WAT     H185790   8.507   8.227   6.309
28516WAT     H285791   8.600   8.357   6.277
28517WAT      O85792   3.723   2.039   3.522
28517WAT     H185793   3.755   2.050   3.428
28517WAT     H285794   3.801   2.018   3.582
28518WAT      O85795   3.634   2.011   1.165
28518WAT     H185796   3.650   2.083   1.232
28518WAT     H285797   3.717   1.996   1.110
28519WAT      O85798   8.592   7.874   1.755
28519WAT     H185799   8.614   7.792   1.703
28519WAT     H285800   8.495   7.896   1.741
28520WAT      O85801   4.967   0.870   3.550
28520WAT     H185802   4.961   0.968   3.570
28520WAT     H285803   5.025   0.825   3.618
28521WAT      O85804   0.584   6.875   2.420
28521WAT     H185805   0.659   6.844   2.361
28521WAT     H285806   0.515   6.804   2.427
28522WAT      O85807   1.058   6.934   3.403
28522WAT     H185808   1.081   6.866   3.333
28522WAT     H285809   0.965   6.967   3.387
28523WAT      O85810   4.624   2.580   3.348
28523WAT     H185811   4.622   2.677   3.375
28523WAT     H285812   4.708   2.539   3.382
28524WAT      O85813   4.254   1.546   3.709
28524WAT     H185814   4.313   1.614   3.664
28524WAT     H285815   4.208   1.587   3.787
28525WAT      O85816   3.410   9.621   5.158
28525WAT     H185817   3.322   9.601   5.114
28525WAT     H285818   3.435   9.716   5.141
28526WAT      O85819   0.598   0.178   1.174
28526WAT     H185820   0.612   0.092   1.126
28526WAT     H285821   0.594   0.161   1.273
28527WAT      O85822   0.993   1.103   9.892
28527WAT     H185823   1.023   1.075   9.801
28527WAT     H285824   0.935   1.184   9.886
28528WAT      O85825   8.138   3.950   2.710
28528WAT     H185826   8.179   3.876   2.764
28528WAT     H285827   8.210   4.000   2.662
28529WAT      O85828   6.259   4.767   2.609
28529WAT     H185829   6.315   4.684   2.608
28529WAT     H285830   6.249   4.800   2.703
28530WAT      O85831   1.138   3.775   0.895
28530WAT     H185832   1.076   3.704   0.863
28530WAT     H285833   1.112   3.864   0.855
28531WAT      O85834   6.216   2.051   6.785
28531WAT     H185835   6.234   2.046   6.687
28531WAT     H285836   6.189   1.961   6.819
28532WAT      O85837   8.095   9.384   4.870
28532WAT     H185838   8.115   9.465   4.926
28532WAT     H285839   8.152   9.308   4.901
28533WAT      O85840   0.864   9.751   8.297
28533WAT     H185841   0.947   9.737   8.242
28533WAT     H285842   0.794   9.685   8.270
28534WAT      O85843   4.894   9.424   6.734
28534WAT     H185844   4.870   9.470   6.648
28534WAT     H285845   4.980   9.461   6.769
28535WAT      O85846   1.465   2.809   0.796
28535WAT     H185847   1.427   2.817   0.704
28535WAT     H285848   1.410   2.745   0.849
28536WAT      O85849   1.519   4.869   7.721
28536WAT     H185850   1.616   4.857   7.703
28536WAT     H285851   1.482   4.787   7.765
28537WAT      O85852   2.046   7.163   4.172
28537WAT     H185853   2.126   7.157   4.232
28537WAT     H285854   2.076   7.156   4.077
28538WAT      O85855   8.658   5.472   7.960
28538WAT     H185856   8.623   5.401   7.899
28538WAT     H285857   8.754   5.454   7.980
28539WAT      O85858   7.007   3.734   8.828
28539WAT     H185859   6.967   3.670   8.894
28539WAT     H285860   6.933   3.782   8.779
28540WAT      O85861   6.585   1.139   3.858
28540WAT     H185862   6.502   1.111   3.810
28540WAT     H285863   6.597   1.083   3.940
28541WAT      O85864   3.198   6.013   8.489
28541WAT     H185865   3.178   5.994   8.393
28541WAT     H285866   3.113   6.019   8.540
28542WAT      O85867   9.466   5.724   1.393
28542WAT     H185868   9.552   5.773   1.412
28542WAT     H285869   9.415   5.773   1.322
28543WAT      O85870   2.982   7.860   4.657
28543WAT     H185871   3.031   7.877   4.743
28543WAT     H285872   3.031   7.903   4.582
28544WAT      O85873   5.822   7.894   7.692
28544WAT     H185874   5.800   7.804   7.653
28544WAT     H285875   5.840   7.885   7.790
28545WAT      O85876   8.456   8.478   9.237
28545WAT     H185877   8.428   8.446   9.146
28545WAT     H285878   8.481   8.399   9.294
28546WAT      O85879   4.360   7.080   6.461
28546WAT     H185880   4.279   7.129   6.429
28546WAT     H285881   4.442   7.131   6.436
28547WAT      O85882   0.352   8.998   2.458
28547WAT     H185883   0.330   9.090   2.425
28547WAT     H285884   0.402   9.004   2.544
28548WAT      O85885   0.657   8.752   6.330
28548WAT     H185886   0.655   8.670   6.387
28548WAT     H285887   0.698   8.730   6.241
28549WAT      O85888   1.267   9.729   0.548
28549WAT     H185889   1.257   9.727   0.648
28549WAT     H285890   1.329   9.656   0.520
28550WAT      O85891   3.326   8.603   3.126
28550WAT     H185892   3.230   8.608   3.101
28550WAT     H285893   3.381   8.587   3.044
28551WAT      O85894   1.186   3.776   5.743
28551WAT     H185895   1.104   3.817   5.783
28551WAT     H285896   1.202   3.817   5.653
28552WAT      O85897   7.142   8.246   9.771
28552WAT     H185898   7.070   8.314   9.759
28552WAT     H285899   7.136   8.206   9.863
28553WAT      O85900   6.534   6.578   5.052
28553WAT     H185901   6.556   6.674   5.035
28553WAT     H285902   6.614   6.532   5.092
28554WAT      O85903   8.885   8.078   0.761
28554WAT     H185904   8.975   8.094   0.720
28554WAT     H285905   8.818   8.063   0.689
28555WAT      O85906   9.207   2.286   7.123
28555WAT     H185907   9.201   2.283   7.223
28555WAT     H285908   9.300   2.264   7.094
28556WAT      O85909   9.621   1.847   0.249
28556WAT     H185910   9.668   1.759   0.257
28556WAT     H285911   9.688   1.921   0.256
28557WAT      O85912   0.581   6.958   0.747
28557WAT     H185913   0.658   6.928   0.689
28557WAT     H285914   0.508   6.890   0.742
28558WAT      O85915   8.429   5.638   4.781
28558WAT     H185916   8.341   5.625   4.826
28558WAT     H285917   8.500   5.585   4.828
28559WAT      O85918   5.489   5.901   1.253
28559WAT     H185919   5.496   5.986   1.201
28559WAT     H285920   5.403   5.899   1.303
28560WAT      O85921   0.818   0.130   8.134
28560WAT     H185922   0.896   0.192   8.128
28560WAT     H285923   0.836   0.059   8.203
28561WAT      O85924   1.221   5.555   0.113
28561WAT     H185925   1.149   5.489   0.095
28561WAT     H285926   1.280   5.563   0.032
28562WAT      O85927   6.608   7.660   9.718
28562WAT     H185928   6.537   7.723   9.748
28562WAT     H285929   6.602   7.576   9.772
28563WAT      O85930   0.675   4.204   8.533
28563WAT     H185931   0.650   4.119   8.579
28563WAT     H285932   0.767   4.196   8.494
28564WAT      O85933   2.564   1.830   6.061
28564WAT     H185934   2.508   1.761   6.014
28564WAT     H285935   2.504   1.902   6.097
28565WAT      O85936   5.712   7.724   0.557
28565WAT     H185937   5.758   7.654   0.612
28565WAT     H285938   5.742   7.717   0.462
28566WAT      O85939   1.115   2.169   4.170
28566WAT     H185940   1.029   2.121   4.156
28566WAT     H285941   1.103   2.239   4.240
28567WAT      O85942   2.706   8.961   1.463
28567WAT     H185943   2.652   8.895   1.410
28567WAT     H285944   2.800   8.960   1.430
28568WAT      O85945   8.254   8.637   5.826
28568WAT     H185946   8.163   8.674   5.805
28568WAT     H285947   8.323   8.683   5.770
28569WAT      O85948   3.069   1.976   7.990
28569WAT     H185949   3.139   1.907   8.011
28569WAT     H285950   3.071   1.996   7.892
28570WAT      O85951   1.978   3.169   0.075
28570WAT     H185952   1.941   3.159  -0.017
28570WAT     H285953   1.902   3.182   0.140
28571WAT      O85954   7.246   2.914   5.844
28571WAT     H185955   7.286   3.001   5.814
28571WAT     H285956   7.285   2.888   5.932
28572WAT      O85957   9.418   3.196   7.391
28572WAT     H185958   9.337   3.157   7.436
28572WAT     H285959   9.403   3.199   7.292
28573WAT      O85960   0.625   3.962   4.348
28573WAT     H185961   0.644   3.864   4.354
28573WAT     H285962   0.650   3.996   4.257
28574WAT      O85963   9.679   2.549   1.381
28574WAT     H185964   9.728   2.484   1.438
28574WAT     H285965   9.590   2.568   1.421
28575WAT      O85966   3.991   2.866   7.400
28575WAT     H185967   4.084   2.893   7.422
28575WAT     H285968   3.927   2.916   7.458
28576WAT      O85969   1.593   8.070   6.005
28576WAT     H185970   1.686   8.034   6.012
28576WAT     H285971   1.540   8.014   5.941
28577WAT      O85972   0.097   4.802   2.742
28577WAT     H185973   0.061   4.874   2.801
28577WAT     H285974   0.179   4.835   2.695
28578WAT      O85975   6.775   2.211   6.171
28578WAT     H185976   6.820   2.127   6.140
28578WAT     H285977   6.690   2.189   6.218
28579WAT      O85978   4.603   1.668   8.392
28579WAT     H185979   4.545   1.587   8.394
28579WAT     H285980   4.554   1.745   8.433
28580WAT      O85981   1.087   7.615   8.043
28580WAT     H185982   1.058   7.702   8.002
28580WAT     H285983   1.010   7.550   8.040
28581WAT      O85984   2.005   5.304   6.628
28581WAT     H185985   2.086   5.295   6.571
28581WAT     H285986   1.961   5.215   6.638
28582WAT      O85987   8.274   4.860   9.813
28582WAT     H185988   8.308   4.905   9.730
28582WAT     H285989   8.181   4.826   9.797
28583WAT      O85990   3.602   1.376   6.357
28583WAT     H185991   3.614   1.474   6.339
28583WAT     H285992   3.642   1.354   6.446
28584WAT      O85993   4.674   5.745   3.452
28584WAT     H185994   4.674   5.845   3.461
28584WAT     H285995   4.716   5.720   3.365
28585WAT      O85996   9.258   7.405   7.857
28585WAT     H185997   9.331   7.358   7.907
28585WAT     H285998   9.222   7.344   7.786
28586WAT      O85999   3.835   4.640   6.384
28586WAT     H186000   3.911   4.618   6.324
28586WAT     H286001   3.847   4.595   6.472
28587WAT      O86002   1.320   4.987   0.394
28587WAT     H186003   1.221   4.976   0.393
28587WAT     H286004   1.360   4.930   0.323
28588WAT      O86005   9.133   6.768   1.502
28588WAT     H186006   9.109   6.759   1.405
28588WAT     H286007   9.088   6.696   1.554
28589WAT      O86008   0.775   3.985   1.167
28589WAT     H186009   0.738   3.908   1.114
28589WAT     H286010   0.846   4.032   1.113
28590WAT      O86011   6.089   5.743   7.469
28590WAT     H186012   6.056   5.650   7.450
28590WAT     H286013   6.185   5.750   7.441
28591WAT      O86014   6.076   3.476   9.507
28591WAT     H186015   6.030   3.399   9.550
28591WAT     H286016   6.008   3.547   9.484
28592WAT      O86017   1.237   7.778   4.992
28592WAT     H186018   1.206   7.689   5.025
28592WAT     H286019   1.328   7.798   5.028
28593WAT      O86020   7.011   4.684   0.371
28593WAT     H186021   7.094   4.734   0.346
28593WAT     H286022   6.991   4.616   0.301
28594WAT      O86023   8.421   3.002   3.171
28594WAT     H186024   8.464   3.045   3.092
28594WAT     H286025   8.362   3.068   3.217
28595WAT      O86026   4.608   0.285   4.870
28595WAT     H186027   4.688   0.270   4.812
28595WAT     H286028   4.625   0.248   4.961
28596WAT      O86029   0.221   4.053   7.128
28596WAT     H186030   0.233   4.038   7.226
28596WAT     H286031   0.139   4.004   7.096
28597WAT      O86032   3.020   5.215   7.177
28597WAT     H186033   3.103   5.160   7.181
28597WAT     H286034   3.020   5.282   7.252
28598WAT      O86035   5.587   9.526   2.555
28598WAT     H186036   5.516   9.553   2.620
28598WAT     H286037   5.544   9.495   2.470
28599WAT      O86038   8.893   5.470   5.984
28599WAT     H186039   8.911   5.478   6.082
28599WAT     H286040   8.883   5.373   5.959
28600WAT      O86041   8.675   8.268   8.563
28600WAT     H186042   8.765   8.296   8.594
28600WAT     H286043   8.651   8.316   8.479
28601WAT      O86044   6.348   4.952   8.955
28601WAT     H186045   6.255   4.982   8.977
28601WAT     H286046   6.374   4.876   9.014
28602WAT      O86047   1.716   0.135   7.140
28602WAT     H186048   1.652   0.072   7.184
28602WAT     H286049   1.806   0.093   7.135
28603WAT      O86050   3.080   6.671   1.247
28603WAT     H186051   3.086   6.640   1.342
28603WAT     H286052   2.994   6.638   1.207
28604WAT      O86053   9.580   1.482   4.615
28604WAT     H186054   9.612   1.538   4.692
28604WAT     H286055   9.495   1.521   4.578
28605WAT      O86056   9.309   6.876   1.701
28605WAT     H186057   9.230   6.925   1.736
28605WAT     H286058   9.280   6.812   1.630
28606WAT      O86059   9.508   7.986   4.576
28606WAT     H186060   9.429   7.973   4.635
28606WAT     H286061   9.591   7.957   4.624
28607WAT      O86062   3.379   1.239   6.974
28607WAT     H186063   3.332   1.184   7.044
28607WAT     H286064   3.472   1.205   6.962
28608WAT      O86065   5.399   1.763   4.809
28608WAT     H186066   5.305   1.728   4.811
28608WAT     H286067   5.463   1.686   4.802
28609WAT      O86068   5.078   4.134   2.736
28609WAT     H186069   5.010   4.072   2.776
28609WAT     H286070   5.148   4.080   2.689
28610WAT      O86071   5.878   4.691   9.281
28610WAT     H186072   5.790   4.658   9.247
28610WAT     H286073   5.934   4.722   9.204
28611WAT      O86074   5.034   1.751   0.554
28611WAT     H186075   5.104   1.701   0.503
28611WAT     H286076   4.950   1.697   0.557
28612WAT      O86077   5.935   5.118   7.228
28612WAT     H186078   6.020   5.137   7.279
28612WAT     H286079   5.918   5.019   7.229
28613WAT      O86080   7.763   8.216   1.311
28613WAT     H186081   7.822   8.241   1.234
28613WAT     H286082   7.789   8.125   1.344
28614WAT      O86083   4.224   7.199   0.507
28614WAT     H186084   4.174   7.142   0.442
28614WAT     H286085   4.318   7.210   0.476
28615WAT      O86086   5.023   5.743   3.185
28615WAT     H186087   5.000   5.787   3.098
28615WAT     H286088   5.119   5.759   3.206
28616WAT      O86089   0.905   0.200   5.794
28616WAT     H186090   0.813   0.214   5.758
28616WAT     H286091   0.899   0.167   5.889
28617WAT      O86092   0.374   7.960   4.245
28617WAT     H186093   0.460   7.927   4.282
28617WAT     H286094   0.298   7.926   4.301
28618WAT      O86095   3.213   6.800   2.930
28618WAT     H186096   3.166   6.757   2.853
28618WAT     H286097   3.310   6.779   2.926
28619WAT      O86098   1.962   8.927   2.941
28619WAT     H186099   1.990   8.860   3.011
28619WAT     H286100   1.901   8.883   2.875
28620WAT      O86101   8.999   2.686   2.474
28620WAT     H186102   8.959   2.738   2.399
28620WAT     H286103   9.089   2.724   2.497
28621WAT      O86104   5.162   4.962   0.877
28621WAT     H186105   5.209   4.876   0.893
28621WAT     H286106   5.063   4.948   0.882
28622WAT      O86107   6.339   4.354   1.096
28622WAT     H186108   6.370   4.441   1.135
28622WAT     H286109   6.288   4.302   1.164
28623WAT      O86110   2.557   6.398   8.689
28623WAT     H186111   2.497   6.319   8.702
28623WAT     H286112   2.652   6.367   8.680
28624WAT      O86113   5.186   8.890   2.582
28624WAT     H186114   5.227   8.810   2.538
28624WAT     H286115   5.259   8.953   2.611
28625WAT      O86116   5.505   8.207   7.989
28625WAT     H186117   5.587   8.244   7.945
28625WAT     H286118   5.514   8.107   7.996
28626WAT      O86119   2.255   7.731   5.419
28626WAT     H186120   2.349   7.729   5.451
28626WAT     H286121   2.193   7.708   5.494
28627WAT      O86122   0.994   4.048   8.599
28627WAT     H186123   0.959   4.134   8.561
28627WAT     H286124   0.931   4.015   8.669
28628WAT      O86125   3.856   5.096   3.504
28628WAT     H186126   3.848   5.076   3.406
28628WAT     H286127   3.767   5.124   3.540
28629WAT      O86128   2.460   1.873   7.878
28629WAT     H186129   2.448   1.966   7.912
28629WAT     H286130   2.539   1.871   7.816
28630WAT      O86131   6.889   1.379   5.743
28630WAT     H186132   6.832   1.296   5.746
28630WAT     H286133   6.950   1.375   5.664
28631WAT      O86134   6.400   2.105   8.801
28631WAT     H186135   6.324   2.042   8.783
28631WAT     H286136   6.400   2.130   8.898
28632WAT      O86137   5.851   9.766   6.580
28632WAT     H186138   5.886   9.733   6.492
28632WAT     H286139   5.907   9.730   6.654
28633WAT      O86140   4.998   4.238   3.035
28633WAT     H186141   5.025   4.159   2.979
28633WAT     H286142   5.048   4.236   3.121
28634WAT      O86143   9.873   8.588   2.312
28634WAT     H186144   9.968   8.558   2.305
28634WAT     H286145   9.871   8.687   2.324
28635WAT      O86146   7.419   7.156   2.208
28635WAT     H186147   7.319   7.166   2.204
28635WAT     H286148   7.450   7.102   2.130
28636WAT      O86149   6.308   2.345   4.881
28636WAT     H186150   6.239   2.281   4.849
28636WAT     H286151   6.360   2.303   4.956
28637WAT      O86152   2.495   8.224   3.080
28637WAT     H186153   2.520   8.171   2.999
28637WAT     H286154   2.398   8.209   3.101
28638WAT      O86155   9.506   8.515   7.372
28638WAT     H186156   9.494   8.529   7.470
28638WAT     H286157   9.474   8.423   7.348
28639WAT      O86158   2.814   9.482   8.856
28639WAT     H186159   2.803   9.568   8.806
28639WAT     H286160   2.861   9.415   8.797
28640WAT      O86161   5.721   8.749   9.047
28640WAT     H186162   5.629   8.762   9.084
28640WAT     H286163   5.773   8.688   9.107
28641WAT      O86164   7.958   6.542   8.519
28641WAT     H186165   8.036   6.539   8.456
28641WAT     H286166   7.940   6.637   8.545
28642WAT      O86167   1.890   8.323   0.937
28642WAT     H186168   1.933   8.279   1.016
28642WAT     H286169   1.796   8.289   0.927
28643WAT      O86170   8.950   1.369   7.003
28643WAT     H186171   9.011   1.432   6.955
28643WAT     H286172   8.998   1.332   7.083
28644WAT      O86173   0.523   6.363   8.063
28644WAT     H186174   0.464   6.370   7.983
28644WAT     H286175   0.478   6.309   8.134
28645WAT      O86176   0.879   6.824   7.625
28645WAT     H186177   0.959   6.878   7.651
28645WAT     H286178   0.805   6.842   7.689
28646WAT      O86179   6.338   1.586   0.564
28646WAT     H186180   6.330   1.495   0.525
28646WAT     H286181   6.374   1.649   0.495
28647WAT      O86182   2.838   0.763   8.199
28647WAT     H186183   2.934   0.781   8.180
28647WAT     H286184   2.804   0.829   8.266
28648WAT      O86185   8.244   6.744   4.006
28648WAT     H186186   8.261   6.726   3.909
28648WAT     H286187   8.148   6.768   4.019
28649WAT      O86188   4.977   1.843   3.686
28649WAT     H186189   4.912   1.919   3.684
28649WAT     H286190   4.930   1.760   3.715
28650WAT      O86191   3.973   1.765   0.557
28650WAT     H186192   4.001   1.691   0.619
28650WAT     H286193   4.025   1.848   0.578
28651WAT      O86194   4.000   1.953   7.233
28651WAT     H186195   3.966   1.996   7.149
28651WAT     H286196   3.954   1.865   7.246
28652WAT      O86197   9.055   9.306   3.053
28652WAT     H186198   8.971   9.280   3.101
28652WAT     H286199   9.033   9.373   2.982
28653WAT      O86200   0.409   0.478   9.013
28653WAT     H186201   0.400   0.468   9.112
28653WAT     H286202   0.506   0.474   8.988
28654WAT      O86203   3.586   4.256   2.540
28654WAT     H186204   3.549   4.188   2.603
28654WAT     H286205   3.516   4.324   2.519
28655WAT      O86206   1.420   8.278   0.765
28655WAT     H186207   1.356   8.206   0.739
28655WAT     H286208   1.424   8.347   0.693
28656WAT      O86209   1.653   1.848   6.300
28656WAT     H186210   1.656   1.913   6.375
28656WAT     H286211   1.592   1.773   6.324
28657WAT      O86212   7.384   3.539   0.259
28657WAT     H186213   7.406   3.531   0.356
28657WAT     H286214   7.365   3.635   0.237
28658WAT      O86215   3.791   3.478   4.833
28658WAT     H186216   3.715   3.412   4.829
28658WAT     H286217   3.872   3.432   4.869
28659WAT      O86218   5.011   3.439   6.407
28659WAT     H186219   5.049   3.354   6.443
28659WAT     H286220   4.926   3.419   6.359
28660WAT      O86221   9.839   2.979   1.119
28660WAT     H186222   9.909   2.949   1.183
28660WAT     H286223   9.880   3.038   1.049
28661WAT      O86224   7.201   7.691   5.825
28661WAT     H186225   7.177   7.785   5.849
28661WAT     H286226   7.136   7.655   5.758
28662WAT      O86227   7.286   3.342   7.035
28662WAT     H186228   7.277   3.416   6.969
28662WAT     H286229   7.327   3.263   6.990
28663WAT      O86230   3.744   9.309   0.205
28663WAT     H186231   3.752   9.314   0.305
28663WAT     H286232   3.830   9.339   0.163
28664WAT      O86233   0.477   4.495   8.532
28664WAT     H186234   0.533   4.561   8.483
28664WAT     H286235   0.534   4.420   8.565
28665WAT      O86236   9.197   9.410   7.720
28665WAT     H186237   9.203   9.375   7.626
28665WAT     H286238   9.149   9.344   7.777
28666WAT      O86239   4.752   3.573   5.539
28666WAT     H186240   4.668   3.565   5.486
28666WAT     H286241   4.817   3.631   5.490
28667WAT      O86242   2.469   7.920   4.952
28667WAT     H186243   2.449   7.983   5.027
28667WAT     H286244   2.568   7.902   4.949
28668WAT      O86245   4.983   6.858   2.562
28668WAT     H186246   4.993   6.843   2.661
28668WAT     H286247   5.070   6.891   2.525
28669WAT      O86248   5.073   0.634   9.512
28669WAT     H186249   5.034   0.716   9.552
28669WAT     H286250   5.000   0.578   9.473
28670WAT      O86251   9.244   9.121   9.643
28670WAT     H186252   9.184   9.044   9.661
28670WAT     H286253   9.334   9.104   9.683
28671WAT      O86254   9.528   4.299   9.005
28671WAT     H186255   9.544   4.201   8.996
28671WAT     H286256   9.461   4.328   8.937
28672WAT      O86257   3.121   8.592   1.663
28672WAT     H186258   3.124   8.497   1.635
28672WAT     H286259   3.029   8.614   1.695
28673WAT      O86260   1.099   8.637   8.026
28673WAT     H186261   1.005   8.608   8.006
28673WAT     H286262   1.145   8.568   8.081
28674WAT      O86263   3.694   5.742   5.302
28674WAT     H186264   3.661   5.653   5.270
28674WAT     H286265   3.707   5.803   5.224
28675WAT      O86266   0.869   3.989   1.930
28675WAT     H186267   0.906   4.021   1.843
28675WAT     H286268   0.774   3.961   1.919
28676WAT      O86269   9.592   9.708   7.032
28676WAT     H186270   9.504   9.718   7.080
28676WAT     H286271   9.576   9.675   6.940
28677WAT      O86272   7.559   5.642   6.892
28677WAT     H186273   7.615   5.568   6.856
28677WAT     H286274   7.516   5.692   6.817
28678WAT      O86275   9.879   2.430   9.827
28678WAT     H186276   9.796   2.380   9.802
28678WAT     H286277   9.859   2.528   9.827
28679WAT      O86278   2.191   2.929   1.295
28679WAT     H186279   2.162   2.897   1.205
28679WAT     H286280   2.203   3.028   1.293
28680WAT      O86281   0.939   0.673   0.926
28680WAT     H186282   0.913   0.625   0.842
28680WAT     H286283   0.857   0.698   0.977
28681WAT      O86284   0.760   6.310   7.969
28681WAT     H186285   0.680   6.337   8.023
28681WAT     H286286   0.770   6.373   7.891
28682WAT      O86287   7.978   2.180   9.267
28682WAT     H186288   8.019   2.116   9.333
28682WAT     H286289   8.019   2.166   9.177
28683WAT      O86290   1.847   8.404   4.984
28683WAT     H186291   1.881   8.346   4.910
28683WAT     H286292   1.918   8.469   5.011
28684WAT      O86293   1.303   1.935   6.368
28684WAT     H186294   1.254   1.853   6.340
28684WAT     H286295   1.330   1.987   6.287
28685WAT      O86296   7.536   1.402   3.391
28685WAT     H186297   7.525   1.306   3.419
28685WAT     H286298   7.484   1.461   3.454
28686WAT      O86299   8.292   5.284   2.876
28686WAT     H186300   8.324   5.368   2.919
28686WAT     H286301   8.288   5.211   2.945
28687WAT      O86302   5.354   6.803   7.437
28687WAT     H186303   5.302   6.779   7.519
28687WAT     H286304   5.309   6.878   7.390
28688WAT      O86305   0.228   2.036   0.792
28688WAT     H186306   0.297   2.033   0.865
28688WAT     H286307   0.146   2.082   0.825
28689WAT      O86308   0.956   1.978   6.788
28689WAT     H186309   0.934   2.062   6.739
28689WAT     H286310   0.914   1.980   6.878
28690WAT      O86311   4.716   1.279   1.661
28690WAT     H186312   4.659   1.246   1.586
28690WAT     H286313   4.792   1.216   1.676
28691WAT      O86314   5.216   9.328   2.078
28691WAT     H186315   5.209   9.428   2.084
28691WAT     H286316   5.301   9.303   2.031
28692WAT      O86317   9.622   7.447   9.699
28692WAT     H186318   9.721   7.441   9.689
28692WAT     H286319   9.599   7.517   9.767
28693WAT      O86320   5.019   8.537   8.969
28693WAT     H186321   5.110   8.531   8.928
28693WAT     H286322   4.995   8.448   9.008
28694WAT      O86323   3.575   0.657   2.808
28694WAT     H186324   3.519   0.670   2.726
28694WAT     H286325   3.525   0.689   2.889
28695WAT      O86326   3.449   3.817   5.766
28695WAT     H186327   3.486   3.761   5.841
28695WAT     H286328   3.458   3.766   5.680
28696WAT      O86329   4.338   0.585   5.931
28696WAT     H186330   4.352   0.672   5.885
28696WAT     H286331   4.331   0.512   5.863
28697WAT      O86332   0.495   1.207   6.405
28697WAT     H186333   0.494   1.110   6.383
28697WAT     H286334   0.589   1.239   6.411
28698WAT      O86335   0.058   8.174   3.283
28698WAT     H186336   0.066   8.243   3.211
28698WAT     H286337   0.045   8.084   3.242
28699WAT      O86338   0.852   8.451   8.049
28699WAT     H186339   0.800   8.536   8.052
28699WAT     H286340   0.802   8.383   7.995
28700WAT      O86341   6.573   2.112   7.703
28700WAT     H186342   6.532   2.203   7.711
28700WAT     H286343   6.549   2.072   7.615
28701WAT      O86344   6.740   6.291   4.286
28701WAT     H186345   6.757   6.376   4.334
28701WAT     H286346   6.810   6.278   4.215
28702WAT      O86347   5.455   1.198   5.312
28702WAT     H186348   5.533   1.150   5.272
28702WAT     H286349   5.380   1.200   5.246
28703WAT      O86350   4.677   2.436   1.681
28703WAT     H186351   4.653   2.497   1.606
28703WAT     H286352   4.690   2.490   1.765
28704WAT      O86353   2.433   3.792   9.420
28704WAT     H186354   2.529   3.815   9.405
28704WAT     H286355   2.379   3.877   9.428
28705WAT      O86356   6.144   3.014   7.330
28705WAT     H186357   6.079   3.073   7.282
28705WAT     H286358   6.217   3.069   7.370
28706WAT      O86359   6.450   1.707   5.616
28706WAT     H186360   6.414   1.662   5.535
28706WAT     H286361   6.497   1.792   5.589
28707WAT      O86362   8.870   9.073   8.086
28707WAT     H186363   8.911   9.052   8.174
28707WAT     H286364   8.847   8.988   8.039
28708WAT      O86365   5.076   8.601   6.944
28708WAT     H186366   5.087   8.656   6.861
28708WAT     H286367   5.102   8.656   7.024
28709WAT      O86368   9.812   8.467   9.120
28709WAT     H186369   9.796   8.564   9.100
28709WAT     H286370   9.725   8.417   9.115
28710WAT      O86371   5.641   2.965   0.946
28710WAT     H186372   5.625   2.872   0.913
28710WAT     H286373   5.553   3.008   0.968
28711WAT      O86374   2.443   3.401   9.283
28711WAT     H186375   2.391   3.350   9.214
28711WAT     H286376   2.388   3.412   9.366
28712WAT      O86377   4.663   3.231   3.876
28712WAT     H186378   4.682   3.329   3.887
28712WAT     H286379   4.577   3.208   3.921
28713WAT      O86380   8.270   3.824   5.124
28713WAT     H186381   8.331   3.803   5.200
28713WAT     H286382   8.179   3.844   5.160
28714WAT      O86383   0.768   7.460   5.232
28714WAT     H186384   0.691   7.411   5.272
28714WAT     H286385   0.803   7.526   5.298
28715WAT      O86386   9.056   0.345   6.790
28715WAT     H186387   8.984   0.275   6.785
28715WAT     H286388   9.057   0.397   6.705
28716WAT      O86389   6.152   2.700   2.217
28716WAT     H186390   6.139   2.799   2.222
28716WAT     H286391   6.132   2.659   2.306
28717WAT      O86392   6.838   2.941   7.329
28717WAT     H186393   6.899   3.014   7.360
28717WAT     H286394   6.853   2.859   7.385
28718WAT      O86395   1.977   1.688   8.557
28718WAT     H186396   1.985   1.711   8.460
28718WAT     H286397   1.919   1.755   8.602
28719WAT      O86398   5.408   5.456   0.842
28719WAT     H186399   5.364   5.393   0.906
28719WAT     H286400   5.463   5.405   0.777
28720WAT      O86401   1.615   2.222   4.132
28720WAT     H186402   1.582   2.214   4.226
28720WAT     H286403   1.590   2.313   4.097
28721WAT      O86404   4.420   0.080   0.450
28721WAT     H186405   4.508   0.122   0.472
28721WAT     H286406   4.351   0.152   0.438
28722WAT      O86407   3.454   0.997   1.666
28722WAT     H186408   3.402   1.082   1.659
28722WAT     H286409   3.392   0.919   1.655
28723WAT      O86410   3.164   4.075   6.533
28723WAT     H186411   3.236   4.015   6.499
28723WAT     H286412   3.162   4.159   6.479
28724WAT      O86413   1.680   3.572   9.663
28724WAT     H186414   1.657   3.669   9.652
28724WAT     H286415   1.774   3.556   9.632
28725WAT      O86416   4.063   2.699   2.576
28725WAT     H186417   4.132   2.725   2.507
28725WAT     H286418   4.011   2.780   2.602
28726WAT      O86419   9.493   1.299   0.183
28726WAT     H186420   9.404   1.323   0.221
28726WAT     H286421   9.487   1.210   0.136
28727WAT      O86422   7.724   9.591   6.716
28727WAT     H186423   7.727   9.612   6.813
28727WAT     H286424   7.693   9.497   6.703
28728WAT      O86425   1.955   0.203   0.242
28728WAT     H186426   1.923   0.109   0.249
28728WAT     H286427   2.055   0.204   0.236
28729WAT      O86428   0.808   6.868   0.609
28729WAT     H186429   0.790   6.781   0.562
28729WAT     H286430   0.844   6.849   0.700
28730WAT      O86431   4.865   3.104   4.043
28730WAT     H186432   4.793   3.123   3.977
28730WAT     H286433   4.927   3.035   4.006
28731WAT      O86434   2.814   1.970   5.553
28731WAT     H186435   2.804   1.881   5.597
28731WAT     H286436   2.896   1.970   5.495
28732WAT      O86437   1.394   9.466   2.163
28732WAT     H186438   1.298   9.438   2.170
28732WAT     H286439   1.453   9.391   2.193
28733WAT      O86440   8.312   6.964   5.054
28733WAT     H186441   8.324   6.883   5.113
28733WAT     H286442   8.399   7.013   5.049
28734WAT      O86443   0.374   5.155   3.746
28734WAT     H186444   0.418   5.228   3.694
28734WAT     H286445   0.384   5.068   3.697
28735WAT      O86446   3.088   4.070   0.962
28735WAT     H186447   3.184   4.098   0.954
28735WAT     H286448   3.073   4.027   1.051
28736WAT      O86449   4.262   0.432   1.319
28736WAT     H186450   4.169   0.456   1.290
28736WAT     H286451   4.311   0.388   1.244
28737WAT      O86452   0.883   3.819   3.160
28737WAT     H186453   0.904   3.738   3.105
28737WAT     H286454   0.824   3.880   3.107
28738WAT      O86455   6.852  -0.005   1.856
28738WAT     H186456   6.781  -0.001   1.785
28738WAT     H286457   6.864   0.086   1.896
28739WAT      O86458   4.284   5.768   0.806
28739WAT     H186459   4.239   5.857   0.806
28739WAT     H286460   4.240   5.708   0.873
28740WAT      O86461   2.337   0.325   7.326
28740WAT     H186462   2.281   0.242   7.320
28740WAT     H286463   2.277   0.406   7.321
28741WAT      O86464   5.121   3.252   3.105
28741WAT     H186465   5.132   3.246   3.204
28741WAT     H286466   5.201   3.213   3.060
28742WAT      O86467   7.283   2.688   7.149
28742WAT     H186468   7.264   2.625   7.224
28742WAT     H286469   7.220   2.766   7.154
28743WAT      O86470   8.912   1.188   8.735
28743WAT     H186471   8.994   1.131   8.744
28743WAT     H286472   8.861   1.160   8.653
28744WAT      O86473   1.490   6.122   6.574
28744WAT     H186474   1.500   6.095   6.478
28744WAT     H286475   1.457   6.044   6.628
28745WAT      O86476   7.822   7.859   0.852
28745WAT     H186477   7.750   7.854   0.921
28745WAT     H286478   7.904   7.901   0.893
28746WAT      O86479   0.607   3.476   0.219
28746WAT     H186480   0.704   3.501   0.212
28746WAT     H286481   0.558   3.510   0.139
28747WAT      O86482   5.851   2.347   2.216
28747WAT     H186483   5.853   2.444   2.238
28747WAT     H286484   5.897   2.295   2.289
28748WAT      O86485   4.707   0.264   0.222
28748WAT     H186486   4.693   0.194   0.293
28748WAT     H286487   4.767   0.227   0.151
28749WAT      O86488   3.643   0.139   6.868
28749WAT     H186489   3.706   0.214   6.850
28749WAT     H286490   3.565   0.146   6.806
28750WAT      O86491   1.154   8.874   7.897
28750WAT     H186492   1.230   8.927   7.934
28750WAT     H286493   1.140   8.792   7.952
28751WAT      O86494   7.432   8.365   5.242
28751WAT     H186495   7.500   8.339   5.173
28751WAT     H286496   7.360   8.418   5.198
28752WAT      O86497   0.124   1.829   4.004
28752WAT     H186498   0.146   1.909   3.949
28752WAT     H286499   0.190   1.820   4.079
28753WAT      O86500   3.002   4.713   4.927
28753WAT     H186501   3.024   4.624   4.967
28753WAT     H286502   3.067   4.782   4.960
28754WAT      O86503   9.624   5.081   5.416
28754WAT     H186504   9.586   5.115   5.502
28754WAT     H286505   9.715   5.044   5.433
28755WAT      O86506   9.649   1.719   4.060
28755WAT     H186507   9.649   1.699   4.158
28755WAT     H286508   9.727   1.673   4.018
28756WAT      O86509   8.967   0.706   4.734
28756WAT     H186510   8.971   0.802   4.762
28756WAT     H286511   8.969   0.701   4.634
28757WAT      O86512   6.483   3.115   4.559
28757WAT     H186513   6.530   3.107   4.647
28757WAT     H286514   6.404   3.176   4.569
28758WAT      O86515   8.279   1.960   7.210
28758WAT     H186516   8.318   1.937   7.121
28758WAT     H286517   8.208   1.893   7.234
28759WAT      O86518   3.623   5.663   4.484
28759WAT     H186519   3.613   5.571   4.521
28759WAT     H286520   3.651   5.725   4.556
28760WAT      O86521   9.524   9.355   7.541
28760WAT     H186522   9.487   9.279   7.595
28760WAT     H286523   9.476   9.360   7.454
28761WAT      O86524   2.335   7.214   2.283
28761WAT     H186525   2.419   7.210   2.228
28761WAT     H286526   2.258   7.183   2.228
28762WAT      O86527   0.934   4.123   7.547
28762WAT     H186528   0.852   4.168   7.585
28762WAT     H286529   1.014   4.180   7.565
28763WAT      O86530   5.636   7.591   2.189
28763WAT     H186531   5.673   7.538   2.266
28763WAT     H286532   5.559   7.542   2.149
28764WAT      O86533   5.734   0.034   8.548
28764WAT     H186534   5.711   0.096   8.623
28764WAT     H286535   5.771   0.086   8.471
28765WAT      O86536   3.719   3.988   7.035
28765WAT     H186537   3.785   3.937   7.092
28765WAT     H286538   3.683   3.927   6.965
28766WAT      O86539   2.879   7.909   1.426
28766WAT     H186540   2.920   7.830   1.471
28766WAT     H286541   2.842   7.971   1.496
28767WAT      O86542   7.369   7.418   4.882
28767WAT     H186543   7.277   7.456   4.890
28767WAT     H286544   7.401   7.428   4.787
28768WAT      O86545   1.869   0.331   2.948
28768WAT     H186546   1.786   0.298   2.993
28768WAT     H286547   1.922   0.387   3.011
28769WAT      O86548   8.066   3.836   0.653
28769WAT     H186549   8.126   3.869   0.580
28769WAT     H286550   7.987   3.790   0.613
28770WAT      O86551   4.459   5.745   6.081
28770WAT     H186552   4.518   5.793   6.016
28770WAT     H286553   4.484   5.770   6.175
28771WAT      O86554   6.461   7.191   6.865
28771WAT     H186555   6.442   7.126   6.939
28771WAT     H286556   6.482   7.140   6.781
28772WAT      O86557   2.434   5.274   1.472
28772WAT     H186558   2.438   5.365   1.430
28772WAT     H286559   2.405   5.283   1.568
28773WAT      O86560   5.954   1.276   7.182
28773WAT     H186561   5.897   1.358   7.192
28773WAT     H286562   5.916   1.218   7.110
28774WAT      O86563   8.623   3.396   7.374
28774WAT     H186564   8.658   3.323   7.433
28774WAT     H286565   8.542   3.437   7.415
28775WAT      O86566   0.367   5.989   6.057
28775WAT     H186567   0.392   6.012   6.151
28775WAT     H286568   0.344   6.074   6.008
28776WAT      O86569   0.614   9.709   4.057
28776WAT     H186570   0.556   9.632   4.085
28776WAT     H286571   0.557   9.789   4.037
28777WAT      O86572   9.749   1.946   3.515
28777WAT     H186573   9.754   1.853   3.478
28777WAT     H286574   9.840   1.987   3.513
28778WAT      O86575   1.411   6.199   7.252
28778WAT     H186576   1.353   6.197   7.170
28778WAT     H286577   1.368   6.144   7.324
28779WAT      O86578   1.930   1.388   6.688
28779WAT     H186579   2.004   1.324   6.710
28779WAT     H286580   1.865   1.343   6.626
28780WAT      O86581   5.931   3.618   1.037
28780WAT     H186582   5.966   3.528   1.012
28780WAT     H286583   6.006   3.683   1.043
28781WAT      O86584   3.187   9.623   4.080
28781WAT     H186585   3.245   9.551   4.117
28781WAT     H286586   3.115   9.645   4.147
28782WAT      O86587   1.521   9.809   0.926
28782WAT     H186588   1.535   9.823   1.024
28782WAT     H286589   1.541   9.894   0.877
28783WAT      O86590   6.349   1.675   3.063
28783WAT     H186591   6.292   1.725   2.999
28783WAT     H286592   6.432   1.728   3.082
28784WAT      O86593   1.989   1.061   6.645
28784WAT     H186594   2.076   1.081   6.600
28784WAT     H286595   1.975   0.962   6.647
28785WAT      O86596   8.243   7.509   1.799
28785WAT     H186597   8.223   7.547   1.708
28785WAT     H286598   8.171   7.539   1.863
28786WAT      O86599   1.046   2.692   6.615
28786WAT     H186600   0.994   2.708   6.699
28786WAT     H286601   1.124   2.756   6.612
28787WAT      O86602   4.315   8.221   4.313
28787WAT     H186603   4.314   8.237   4.214
28787WAT     H286604   4.257   8.143   4.335
28788WAT      O86605   9.834   1.581   6.041
28788WAT     H186606   9.874   1.670   6.022
28788WAT     H286607   9.898   1.527   6.095
28789WAT      O86608   9.112   4.846   1.192
28789WAT     H186609   9.030   4.896   1.219
28789WAT     H286610   9.158   4.809   1.273
28790WAT      O86611   3.029   2.770   2.196
28790WAT     H186612   2.931   2.789   2.187
28790WAT     H286613   3.076   2.850   2.234
28791WAT      O86614   1.852   3.618   6.264
28791WAT     H186615   1.932   3.597   6.208
28791WAT     H286616   1.772   3.632   6.205
28792WAT      O86617   2.185   6.236   1.551
28792WAT     H186618   2.266   6.293   1.552
28792WAT     H286619   2.145   6.237   1.459
28793WAT      O86620   2.875   5.755   1.506
28793WAT     H186621   2.954   5.796   1.462
28793WAT     H286622   2.884   5.763   1.606
28794WAT      O86623   1.807   2.486   2.750
28794WAT     H186624   1.796   2.438   2.663
28794WAT     H286625   1.858   2.571   2.736
28795WAT      O86626   9.627   1.827   7.818
28795WAT     H186627   9.645   1.777   7.903
28795WAT     H286628   9.603   1.761   7.746
28796WAT      O86629   8.828   7.978   4.180
28796WAT     H186630   8.883   8.002   4.260
28796WAT     H286631   8.864   8.026   4.100
28797WAT      O86632   8.741   4.918   8.543
28797WAT     H186633   8.677   4.843   8.524
28797WAT     H286634   8.737   4.985   8.469
28798WAT      O86635   2.405   5.829   2.293
28798WAT     H186636   2.346   5.844   2.213
28798WAT     H286637   2.432   5.733   2.296
28799WAT      O86638   5.803   9.545   1.472
28799WAT     H186639   5.744   9.474   1.511
28799WAT     H286640   5.896   9.531   1.504
28800WAT      O86641   7.274   8.769   4.964
28800WAT     H186642   7.339   8.822   5.018
28800WAT     H286643   7.320   8.735   4.882
28801WAT      O86644   6.419   2.734   4.678
28801WAT     H186645   6.347   2.795   4.711
28801WAT     H286646   6.489   2.788   4.631
28802WAT      O86647   0.599   7.600   2.703
28802WAT     H186648   0.609   7.506   2.734
28802WAT     H286649   0.537   7.602   2.624
28803WAT      O86650   2.909   5.114   2.215
28803WAT     H186651   2.975   5.156   2.278
28803WAT     H286652   2.918   5.014   2.219
28804WAT      O86653   4.720   2.333   4.968
28804WAT     H186654   4.781   2.401   4.927
28804WAT     H286655   4.664   2.291   4.896
28805WAT      O86656   1.977   5.201   2.234
28805WAT     H186657   1.976   5.101   2.236
28805WAT     H286658   2.059   5.233   2.188
28806WAT      O86659   0.124   2.639   4.434
28806WAT     H186660   0.196   2.708   4.419
28806WAT     H286661   0.061   2.638   4.356
28807WAT      O86662   0.474   4.735   4.999
28807WAT     H186663   0.434   4.687   5.077
28807WAT     H286664   0.573   4.720   4.997
28808WAT      O86665   4.476   0.399   8.204
28808WAT     H186666   4.498   0.312   8.160
28808WAT     H286667   4.509   0.398   8.298
28809WAT      O86668   8.890   3.437   6.859
28809WAT     H186669   8.926   3.390   6.940
28809WAT     H286670   8.914   3.386   6.777
28810WAT      O86671   1.324   4.202   1.687
28810WAT     H186672   1.277   4.164   1.607
28810WAT     H286673   1.353   4.127   1.747
28811WAT      O86674   4.556   3.442   6.145
28811WAT     H186675   4.624   3.455   6.217
28811WAT     H286676   4.568   3.352   6.103
28812WAT      O86677   0.445   7.419   9.369
28812WAT     H186678   0.452   7.419   9.469
28812WAT     H286679   0.448   7.324   9.336
28813WAT      O86680   2.055   1.971   5.309
28813WAT     H186681   1.963   2.010   5.312
28813WAT     H286682   2.123   2.044   5.301
28814WAT      O86683   2.588   4.027   3.843
28814WAT     H186684   2.619   3.938   3.876
28814WAT     H286685   2.531   4.071   3.913
28815WAT      O86686   7.652   4.440   1.194
28815WAT     H186687   7.590   4.403   1.125
28815WAT     H286688   7.706   4.514   1.155
28816WAT      O86689   7.809   1.004   0.198
28816WAT     H186690   7.749   0.994   0.118
28816WAT     H286691   7.801   1.096   0.234
28817WAT      O86692   2.628   3.534   2.359
28817WAT     H186693   2.709   3.587   2.334
28817WAT     H286694   2.554   3.595   2.384
28818WAT      O86695   2.577   6.723   3.636
28818WAT     H186696   2.653   6.690   3.580
28818WAT     H286697   2.595   6.818   3.662
28819WAT      O86698   1.514   5.242   7.477
28819WAT     H186699   1.484   5.176   7.408
28819WAT     H286700   1.495   5.206   7.568
28820WAT      O86701   2.211   0.917   5.098
28820WAT     H186702   2.127   0.918   5.044
28820WAT     H286703   2.264   0.999   5.080
28821WAT      O86704   5.117   4.632   5.744
28821WAT     H186705   5.019   4.631   5.764
28821WAT     H286706   5.156   4.542   5.764
28822WAT      O86707   7.182   1.505   5.128
28822WAT     H186708   7.271   1.541   5.153
28822WAT     H286709   7.115   1.580   5.124
28823WAT      O86710   5.289   6.014   8.527
28823WAT     H186711   5.299   6.003   8.428
28823WAT     H286712   5.240   5.935   8.564
28824WAT      O86713   9.827   0.351   1.471
28824WAT     H186714   9.728   0.350   1.459
28824WAT     H286715   9.849   0.369   1.566
28825WAT      O86716   5.652   4.881   5.888
28825WAT     H186717   5.661   4.820   5.810
28825WAT     H286718   5.558   4.917   5.891
28826WAT      O86719   3.469   1.354   9.151
28826WAT     H186720   3.450   1.440   9.197
28826WAT     H286721   3.562   1.325   9.172
28827WAT      O86722   5.564   0.322   2.281
28827WAT     H186723   5.500   0.294   2.352
28827WAT     H286724   5.532   0.288   2.192
28828WAT      O86725   2.936   6.272   6.071
28828WAT     H186726   2.879   6.348   6.103
28828WAT     H286727   2.891   6.227   5.994
28829WAT      O86728   8.565   7.810   0.671
28829WAT     H186729   8.501   7.882   0.697
28829WAT     H286730   8.516   7.735   0.627
28830WAT      O86731   0.568   4.804   7.096
28830WAT     H186732   0.531   4.810   7.189
28830WAT     H286733   0.661   4.843   7.094
28831WAT      O86734   0.568   3.063   6.184
28831WAT     H186735   0.523   2.974   6.179
28831WAT     H286736   0.566   3.106   6.094
28832WAT      O86737   1.823   2.754   6.832
28832WAT     H186738   1.917   2.759   6.797
28832WAT     H286739   1.818   2.687   6.906
28833WAT      O86740   7.259   8.873   5.575
28833WAT     H186741   7.316   8.853   5.654
28833WAT     H286742   7.269   8.801   5.507
28834WAT      O86743   3.705   8.617   2.230
28834WAT     H186744   3.690   8.715   2.223
28834WAT     H286745   3.633   8.576   2.285
28835WAT      O86746   3.890   2.728   5.117
28835WAT     H186747   3.969   2.747   5.176
28835WAT     H286748   3.916   2.743   5.021
28836WAT      O86749   7.282   2.812   3.572
28836WAT     H186750   7.215   2.814   3.498
28836WAT     H286751   7.339   2.894   3.568
28837WAT      O86752   0.463   9.523   1.372
28837WAT     H186753   0.561   9.531   1.395
28837WAT     H286754   0.437   9.427   1.372
28838WAT      O86755   2.287   6.952   8.022
28838WAT     H186756   2.353   6.885   7.990
28838WAT     H286757   2.316   7.043   7.992
28839WAT      O86758   5.236   3.275   3.741
28839WAT     H186759   5.167   3.260   3.669
28839WAT     H286760   5.207   3.351   3.799
28840WAT      O86761   5.729   1.608   8.828
28840WAT     H186762   5.744   1.533   8.764
28840WAT     H286763   5.778   1.590   8.913
28841WAT      O86764   7.662   2.149   7.755
28841WAT     H186765   7.616   2.218   7.698
28841WAT     H286766   7.610   2.064   7.753
28842WAT      O86767   1.135   8.304   4.446
28842WAT     H186768   1.081   8.285   4.528
28842WAT     H286769   1.074   8.314   4.367
28843WAT      O86770   9.253   8.796   7.238
28843WAT     H186771   9.346   8.769   7.212
28843WAT     H286772   9.244   8.895   7.227
28844WAT      O86773   8.480   7.289   6.489
28844WAT     H186774   8.572   7.327   6.479
28844WAT     H286775   8.442   7.316   6.577
28845WAT      O86776   6.865   5.625   7.091
28845WAT     H186777   6.954   5.652   7.054
28845WAT     H286778   6.797   5.695   7.070
28846WAT      O86779   9.058   3.411   9.117
28846WAT     H186780   8.969   3.367   9.133
28846WAT     H286781   9.121   3.384   9.190
28847WAT      O86782   4.064   1.763   1.573
28847WAT     H186783   4.096   1.709   1.496
28847WAT     H286784   4.143   1.796   1.626
28848WAT      O86785   2.077   7.087   5.625
28848WAT     H186786   2.051   7.138   5.543
28848WAT     H286787   2.094   7.152   5.700
28849WAT      O86788   9.452   3.154   1.977
28849WAT     H186789   9.444   3.061   2.014
28849WAT     H286790   9.443   3.151   1.878
28850WAT      O86791   3.702   4.115   7.764
28850WAT     H186792   3.787   4.062   7.774
28850WAT     H286793   3.722   4.201   7.718
28851WAT      O86794   1.475   4.690   7.016
28851WAT     H186795   1.445   4.766   6.959
28851WAT     H286796   1.456   4.710   7.112
28852WAT      O86797   9.197   7.083   0.022
28852WAT     H186798   9.194   7.005  -0.040
28852WAT     H286799   9.289   7.124   0.020
28853WAT      O86800   1.705   9.495   7.805
28853WAT     H186801   1.626   9.541   7.765
28853WAT     H286802   1.674   9.417   7.859
28854WAT      O86803   1.404   6.547   6.461
28854WAT     H186804   1.315   6.590   6.476
28854WAT     H286805   1.402   6.496   6.375
28855WAT      O86806   0.033   0.935   4.119
28855WAT     H186807   0.050   0.886   4.034
28855WAT     H286808  -0.053   0.986   4.110
28856WAT      O86809   8.799   4.302   7.652
28856WAT     H186810   8.761   4.220   7.694
28856WAT     H286811   8.831   4.364   7.723
28857WAT      O86812   9.618   4.404   8.413
28857WAT     H186813   9.528   4.431   8.377
28857WAT     H286814   9.683   4.397   8.338
28858WAT      O86815   1.725   0.026   0.199
28858WAT     H186816   1.684   0.048   0.288
28858WAT     H286817   1.717   0.105   0.138
28859WAT      O86818   9.618   3.273   3.260
28859WAT     H186819   9.645   3.234   3.349
28859WAT     H286820   9.563   3.207   3.210
28860WAT      O86821   0.258   4.800   8.511
28860WAT     H186822   0.172   4.766   8.549
28860WAT     H286823   0.305   4.856   8.580
28861WAT      O86824   8.891   3.479   6.558
28861WAT     H186825   8.966   3.491   6.623
28861WAT     H286826   8.929   3.454   6.469
28862WAT      O86827   3.558   9.416   1.027
28862WAT     H186828   3.510   9.358   1.092
28862WAT     H286829   3.495   9.485   0.990
28863WAT      O86830   9.834   0.348   8.343
28863WAT     H186831   9.886   0.425   8.380
28863WAT     H286832   9.755   0.383   8.293
28864WAT      O86833   5.378   7.574   1.678
28864WAT     H186834   5.464   7.580   1.728
28864WAT     H286835   5.309   7.529   1.734
28865WAT      O86836   7.485   9.338   2.188
28865WAT     H186837   7.564   9.354   2.247
28865WAT     H286838   7.401   9.354   2.241
28866WAT      O86839   8.099   3.496   7.323
28866WAT     H186840   8.054   3.552   7.394
28866WAT     H286841   8.109   3.403   7.357
28867WAT      O86842   4.427   7.546   5.782
28867WAT     H186843   4.406   7.555   5.879
28867WAT     H286844   4.523   7.519   5.771
28868WAT      O86845   4.532   2.754   0.599
28868WAT     H186846   4.476   2.826   0.640
28868WAT     H286847   4.479   2.705   0.530
28869WAT      O86848   4.275   0.955   1.666
28869WAT     H186849   4.266   0.980   1.569
28869WAT     H286850   4.214   1.012   1.721
28870WAT      O86851   8.998   7.706   5.369
28870WAT     H186852   9.086   7.658   5.361
28870WAT     H286853   8.928   7.654   5.320
28871WAT      O86854   2.681   6.513   0.152
28871WAT     H186855   2.622   6.434   0.167
28871WAT     H286856   2.636   6.595   0.188
28872WAT      O86857   3.895   2.298   0.016
28872WAT     H186858   3.890   2.398   0.024
28872WAT     H286859   3.847   2.256   0.093
28873WAT      O86860   7.502   7.328   7.251
28873WAT     H186861   7.463   7.243   7.219
28873WAT     H286862   7.601   7.318   7.261
28874WAT      O86863   2.827   7.540   3.694
28874WAT     H186864   2.819   7.490   3.608
28874WAT     H286865   2.792   7.483   3.769
28875WAT      O86866   2.563   2.760   3.810
28875WAT     H186867   2.601   2.675   3.846
28875WAT     H286868   2.539   2.821   3.885
28876WAT      O86869   1.506   9.792   7.570
28876WAT     H186870   1.532   9.796   7.474
28876WAT     H286871   1.561   9.858   7.622
28877WAT      O86872   6.257   5.085   9.777
28877WAT     H186873   6.319   5.082   9.699
28877WAT     H286874   6.271   5.004   9.834
28878WAT      O86875   9.096   7.673   6.275
28878WAT     H186876   9.094   7.673   6.175
28878WAT     H286877   9.181   7.714   6.307
28879WAT      O86878   5.527   3.778   7.091
28879WAT     H186879   5.512   3.822   7.003
28879WAT     H286880   5.624   3.784   7.116
28880WAT      O86881   9.780   6.717   8.151
28880WAT     H186882   9.692   6.697   8.107
28880WAT     H286883   9.854   6.681   8.095
28881WAT      O86884   3.303   2.487   8.950
28881WAT     H186885   3.377   2.549   8.977
28881WAT     H286886   3.228   2.494   9.016
28882WAT      O86887   9.350   7.994   7.307
28882WAT     H186888   9.332   7.895   7.310
28882WAT     H286889   9.294   8.036   7.235
28883WAT      O86890   2.461   5.159   2.710
28883WAT     H186891   2.474   5.242   2.656
28883WAT     H286892   2.399   5.177   2.786
28884WAT      O86893   2.312   0.623   7.380
28884WAT     H186894   2.231   0.675   7.353
28884WAT     H286895   2.381   0.629   7.308
28885WAT      O86896   8.545   7.305   2.027
28885WAT     H186897   8.516   7.385   1.975
28885WAT     H286898   8.531   7.222   1.972
28886WAT      O86899   5.154   4.945   4.286
28886WAT     H186900   5.121   4.995   4.366
28886WAT     H286901   5.254   4.941   4.287
28887WAT      O86902   1.299   8.269   8.801
28887WAT     H186903   1.230   8.331   8.764
28887WAT     H286904   1.266   8.175   8.795
28888WAT      O86905   2.185   4.568   2.549
28888WAT     H186906   2.191   4.495   2.617
28888WAT     H286907   2.127   4.537   2.473
28889WAT      O86908   8.118   5.150   2.450
28889WAT     H186909   8.168   5.149   2.537
28889WAT     H286910   8.039   5.209   2.457
28890WAT      O86911   9.120   0.390   1.014
28890WAT     H186912   9.053   0.458   1.044
28890WAT     H286913   9.078   0.300   1.012
28891WAT      O86914   2.225   5.043   0.244
28891WAT     H186915   2.297   5.041   0.313
28891WAT     H286916   2.232   5.127   0.190
28892WAT      O86917   7.531   4.437   7.192
28892WAT     H186918   7.572   4.474   7.108
28892WAT     H286919   7.467   4.504   7.230
28893WAT      O86920   6.355   6.431   0.170
28893WAT     H186921   6.360   6.384   0.082
28893WAT     H286922   6.265   6.414   0.212
28894WAT      O86923   8.236   7.779   4.150
28894WAT     H186924   8.187   7.703   4.192
28894WAT     H286925   8.273   7.751   4.062
28895WAT      O86926   3.852   7.454   9.465
28895WAT     H186927   3.951   7.449   9.477
28895WAT     H286928   3.807   7.399   9.535
28896WAT      O86929   5.128   9.246   2.704
28896WAT     H186930   5.127   9.277   2.800
28896WAT     H286931   5.062   9.173   2.692
28897WAT      O86932   0.152   7.516   3.518
28897WAT     H186933   0.196   7.586   3.462
28897WAT     H286934   0.206   7.432   3.515
28898WAT      O86935   8.547   4.682   0.597
28898WAT     H186936   8.581   4.707   0.688
28898WAT     H286937   8.619   4.695   0.529
28899WAT      O86938   2.092   2.755   6.784
28899WAT     H186939   2.136   2.832   6.829
28899WAT     H286940   2.141   2.670   6.806
28900WAT      O86941   8.822   4.718   8.093
28900WAT     H186942   8.839   4.715   7.995
28900WAT     H286943   8.787   4.629   8.124
28901WAT      O86944   5.869   5.429   9.321
28901WAT     H186945   5.903   5.337   9.298
28901WAT     H286946   5.880   5.489   9.241
28902WAT      O86947   0.464   7.980   3.974
28902WAT     H186948   0.431   7.968   4.068
28902WAT     H286949   0.436   7.901   3.919
28903WAT      O86950   3.517   7.047   9.423
28903WAT     H186951   3.594   6.990   9.396
28903WAT     H286952   3.440   7.030   9.362
28904WAT      O86953   5.457   2.600   1.580
28904WAT     H186954   5.385   2.663   1.609
28904WAT     H286955   5.423   2.506   1.586
28905WAT      O86956   6.842   4.635   6.722
28905WAT     H186957   6.784   4.601   6.648
28905WAT     H286958   6.806   4.604   6.810
28906WAT      O86959   3.160   5.548   2.881
28906WAT     H186960   3.122   5.576   2.969
28906WAT     H286961   3.231   5.613   2.854
28907WAT      O86962   9.159   5.939   8.226
28907WAT     H186963   9.072   5.939   8.277
28907WAT     H286964   9.197   6.031   8.226
28908WAT      O86965   9.507   3.850   5.966
28908WAT     H186966   9.527   3.926   6.028
28908WAT     H286967   9.463   3.776   6.017
28909WAT      O86968   5.322   3.382   1.000
28909WAT     H186969   5.251   3.345   0.940
28909WAT     H286970   5.306   3.480   1.013
28910WAT      O86971   5.633   3.404   2.176
28910WAT     H186972   5.636   3.492   2.224
28910WAT     H286973   5.606   3.419   2.080
28911WAT      O86974   4.331   0.370   8.738
28911WAT     H186975   4.253   0.308   8.729
28911WAT     H286976   4.298   0.460   8.766
28912WAT      O86977   3.327   0.560   1.906
28912WAT     H186978   3.329   0.493   1.980
28912WAT     H286979   3.375   0.643   1.935
28913WAT      O86980   8.361   8.641   8.942
28913WAT     H186981   8.337   8.688   9.028
28913WAT     H286982   8.333   8.546   8.947
28914WAT      O86983   0.216   6.161   3.063
28914WAT     H186984   0.211   6.255   3.029
28914WAT     H286985   0.311   6.131   3.067
28915WAT      O86986   3.085   9.722   8.291
28915WAT     H186987   3.039   9.634   8.299
28915WAT     H286988   3.020   9.796   8.310
28916WAT      O86989   7.607   0.065   9.199
28916WAT     H186990   7.684   0.002   9.191
28916WAT     H286991   7.588   0.083   9.296
28917WAT      O86992   9.212   2.849   2.440
28917WAT     H186993   9.250   2.870   2.530
28917WAT     H286994   9.198   2.934   2.389
28918WAT      O86995   6.310   5.933   2.543
28918WAT     H186996   6.253   5.924   2.461
28918WAT     H286997   6.346   5.844   2.568
28919WAT      O86998   9.501   4.253   1.356
28919WAT     H186999   9.591   4.281   1.320
28919WAT     H287000   9.445   4.334   1.370
28920WAT      O87001   5.538   4.833   0.750
28920WAT     H187002   5.544   4.844   0.651
28920WAT     H287003   5.500   4.915   0.791
28921WAT      O87004   9.540   3.345   4.662
28921WAT     H187005   9.459   3.369   4.715
28921WAT     H287006   9.598   3.426   4.653
28922WAT      O87007   9.047   7.004   1.770
28922WAT     H187008   9.022   7.100   1.786
28922WAT     H287009   9.056   6.957   1.858
28923WAT      O87010   8.405   7.148   3.618
28923WAT     H187011   8.309   7.143   3.648
28923WAT     H287012   8.465   7.132   3.696
28924WAT      O87013   3.513   9.076   7.333
28924WAT     H187014   3.473   8.991   7.366
28924WAT     H287015   3.442   9.146   7.327
28925WAT      O87016   1.857   9.616   5.097
28925WAT     H187017   1.838   9.700   5.046
28925WAT     H287018   1.946   9.580   5.071
28926WAT      O87019   6.341   3.734   3.330
28926WAT     H187020   6.284   3.804   3.286
28926WAT     H287021   6.437   3.760   3.322
28927WAT      O87022   3.043   2.695   0.441
28927WAT     H187023   2.957   2.727   0.481
28927WAT     H287024   3.036   2.597   0.423
28928WAT      O87025   3.427   5.100   0.043
28928WAT     H187026   3.348   5.044   0.067
28928WAT     H287027   3.493   5.043  -0.007
28929WAT      O87028   0.550   9.069   8.897
28929WAT     H187029   0.470   9.094   8.952
28929WAT     H287030   0.620   9.031   8.957
28930WAT      O87031   1.022   4.931   1.359
28930WAT     H187032   1.088   4.943   1.434
28930WAT     H287033   0.964   4.852   1.378
28931WAT      O87034   0.076   5.826   3.073
28931WAT     H187035   0.064   5.784   2.983
28931WAT     H287036   0.092   5.924   3.063
28932WAT      O87037   2.233   8.953   5.486
28932WAT     H187038   2.264   8.871   5.438
28932WAT     H287039   2.265   9.034   5.437
28933WAT      O87040   7.782   2.381   8.910
28933WAT     H187041   7.847   2.313   8.877
28933WAT     H287042   7.806   2.471   8.873
28934WAT      O87043   4.014   3.581   5.433
28934WAT     H187044   3.974   3.601   5.344
28934WAT     H287045   3.991   3.487   5.459
28935WAT      O87046   4.655   8.890   2.748
28935WAT     H187047   4.727   8.956   2.769
28935WAT     H287048   4.667   8.856   2.654
28936WAT      O87049   2.288   6.659   4.717
28936WAT     H187050   2.208   6.668   4.658
28936WAT     H287051   2.285   6.730   4.788
28937WAT      O87052   8.053   6.211   1.730
28937WAT     H187053   7.962   6.171   1.722
28937WAT     H287054   8.121   6.138   1.730
28938WAT      O87055   7.407   4.425   5.925
28938WAT     H187056   7.471   4.390   5.994
28938WAT     H287057   7.338   4.481   5.970
28939WAT      O87058   0.050   1.643   7.519
28939WAT     H187059  -0.013   1.676   7.448
28939WAT     H287060   0.144   1.651   7.486
28940WAT      O87061   7.023   0.963   8.424
28940WAT     H187062   7.079   0.885   8.453
28940WAT     H287063   7.065   1.007   8.345
28941WAT      O87064   2.610   5.773   5.158
28941WAT     H187065   2.651   5.701   5.213
28941WAT     H287066   2.558   5.835   5.217
28942WAT      O87067   7.477   9.406   1.236
28942WAT     H187068   7.573   9.433   1.229
28942WAT     H287069   7.424   9.480   1.277
28943WAT      O87070   8.829   1.653   4.650
28943WAT     H187071   8.835   1.748   4.617
28943WAT     H287072   8.804   1.593   4.574
28944WAT      O87073   6.045   0.163   0.570
28944WAT     H187074   6.013   0.082   0.619
28944WAT     H287075   6.145   0.162   0.564
28945WAT      O87076   0.280   8.537   2.203
28945WAT     H187077   0.277   8.637   2.196
28945WAT     H287078   0.272   8.498   2.111
28946WAT      O87079   5.301   2.832   3.641
28946WAT     H187080   5.218   2.854   3.590
28946WAT     H287081   5.381   2.845   3.582
28947WAT      O87082   7.506   5.212   3.025
28947WAT     H187083   7.418   5.241   3.065
28947WAT     H287084   7.502   5.115   3.003
28948WAT      O87085   8.904   6.779   6.533
28948WAT     H187086   8.918   6.680   6.527
28948WAT     H287087   8.808   6.798   6.557
28949WAT      O87088   7.460   5.231   7.825
28949WAT     H187089   7.441   5.183   7.740
28949WAT     H287090   7.542   5.287   7.814
28950WAT      O87091   5.414   1.576   4.010
28950WAT     H187092   5.510   1.585   3.983
28950WAT     H287093   5.400   1.487   4.053
28951WAT      O87094   4.474   3.982   5.962
28951WAT     H187095   4.412   3.905   5.980
28951WAT     H287096   4.478   4.040   6.043
28952WAT      O87097   2.621   3.631   1.285
28952WAT     H187098   2.593   3.716   1.330
28952WAT     H287099   2.572   3.621   1.198
28953WAT      O87100   2.681   7.830   7.707
28953WAT     H187101   2.717   7.809   7.798
28953WAT     H287102   2.757   7.834   7.642
28954WAT      O87103   5.884   1.932   6.924
28954WAT     H187104   5.844   1.912   6.834
28954WAT     H287105   5.912   2.027   6.928
28955WAT      O87106   6.740   9.304   5.236
28955WAT     H187107   6.777   9.216   5.207
28955WAT     H287108   6.652   9.320   5.191
28956WAT      O87109   2.383   0.978   0.741
28956WAT     H187110   2.298   0.970   0.792
28956WAT     H287111   2.461   0.962   0.802
28957WAT      O87112   7.204   6.645   4.144
28957WAT     H187113   7.189   6.630   4.241
28957WAT     H287114   7.133   6.600   4.091
28958WAT      O87115   4.504   3.227   0.856
28958WAT     H187116   4.469   3.138   0.827
28958WAT     H287117   4.505   3.231   0.956
28959WAT      O87118   6.425   9.031   0.339
28959WAT     H187119   6.376   9.063   0.420
28959WAT     H287120   6.418   8.931   0.334
28960WAT      O87121   4.768   9.542   7.179
28960WAT     H187122   4.865   9.566   7.189
28960WAT     H287123   4.726   9.534   7.269
28961WAT      O87124   1.102   5.515   6.073
28961WAT     H187125   1.133   5.423   6.098
28961WAT     H287126   1.077   5.565   6.155
28962WAT      O87127   8.585   0.201   6.620
28962WAT     H187128   8.620   0.165   6.532
28962WAT     H287129   8.505   0.257   6.603
28963WAT      O87130   2.212   0.360   5.337
28963WAT     H187131   2.124   0.342   5.292
28963WAT     H287132   2.281   0.298   5.299
28964WAT      O87133   9.251   8.450   2.922
28964WAT     H187134   9.176   8.385   2.916
28964WAT     H287135   9.293   8.462   2.831
28965WAT      O87136   0.166   5.486   8.635
28965WAT     H187137   0.111   5.557   8.591
28965WAT     H287138   0.144   5.483   8.732
28966WAT      O87139   8.089   9.395   3.178
28966WAT     H187140   8.061   9.322   3.116
28966WAT     H287141   8.178   9.373   3.218
28967WAT      O87142   6.711   8.597   0.783
28967WAT     H187143   6.630   8.564   0.832
28967WAT     H287144   6.682   8.651   0.704
28968WAT      O87145   3.192   6.063   1.869
28968WAT     H187146   3.125   6.040   1.798
28968WAT     H287147   3.194   6.162   1.882
28969WAT      O87148   6.188   8.900   5.546
28969WAT     H187149   6.273   8.950   5.560
28969WAT     H287150   6.159   8.908   5.451
28970WAT      O87151   6.166   0.551   3.778
28970WAT     H187152   6.143   0.618   3.707
28970WAT     H287153   6.083   0.519   3.823
28971WAT      O87154   7.108   8.769   5.988
28971WAT     H187155   7.112   8.672   6.012
28971WAT     H287156   7.176   8.788   5.918
28972WAT      O87157   6.545   3.404   9.668
28972WAT     H187158   6.595   3.486   9.640
28972WAT     H287159   6.447   3.425   9.673
28973WAT      O87160   1.575   8.063   5.608
28973WAT     H187161   1.558   7.967   5.629
28973WAT     H287162   1.491   8.116   5.619
28974WAT      O87163   8.855   6.557   1.435
28974WAT     H187164   8.810   6.529   1.519
28974WAT     H287165   8.821   6.646   1.407
28975WAT      O87166   9.635   7.974   9.877
28975WAT     H187167   9.546   7.960   9.920
28975WAT     H287168   9.695   8.024   9.940
28976WAT      O87169   2.155   1.902   8.225
28976WAT     H187170   2.120   1.962   8.298
28976WAT     H287171   2.179   1.957   8.146
28977WAT      O87172   6.481   6.721   0.727
28977WAT     H187173   6.393   6.754   0.762
28977WAT     H287174   6.491   6.624   0.748
28978WAT      O87175   5.825   3.861   6.107
28978WAT     H187176   5.749   3.809   6.146
28978WAT     H287177   5.877   3.802   6.045
28979WAT      O87178   7.163   7.049   9.187
28979WAT     H187179   7.245   7.103   9.168
28979WAT     H287180   7.086   7.110   9.205
28980WAT      O87181   4.402   7.999   6.239
28980WAT     H187182   4.464   8.061   6.192
28980WAT     H287183   4.431   7.988   6.334
28981WAT      O87184   6.514   2.424   5.240
28981WAT     H187185   6.478   2.353   5.179
28981WAT     H287186   6.614   2.421   5.240
28982WAT      O87187   0.696   7.764   7.817
28982WAT     H187188   0.653   7.679   7.846
28982WAT     H287189   0.747   7.749   7.732
28983WAT      O87190   9.596   4.154   8.252
28983WAT     H187191   9.576   4.166   8.350
28983WAT     H287192   9.529   4.093   8.211
28984WAT      O87193   4.534   0.663   8.884
28984WAT     H187194   4.528   0.752   8.840
28984WAT     H287195   4.617   0.616   8.853
28985WAT      O87196   5.411   4.445   6.439
28985WAT     H187197   5.457   4.439   6.350
28985WAT     H287198   5.458   4.512   6.496
28986WAT      O87199   1.190   4.357   1.418
28986WAT     H187200   1.096   4.323   1.415
28986WAT     H287201   1.189   4.457   1.422
28987WAT      O87202   0.776   8.338   1.156
28987WAT     H187203   0.859   8.356   1.210
28987WAT     H287204   0.764   8.240   1.144
28988WAT      O87205   8.576   6.296   8.759
28988WAT     H187206   8.495   6.354   8.750
28988WAT     H287207   8.548   6.204   8.787
28989WAT      O87208   4.122   9.820   5.702
28989WAT     H187209   4.035   9.796   5.658
28989WAT     H287210   4.150   9.746   5.762
28990WAT      O87211   9.574   4.792   2.769
28990WAT     H187212   9.656   4.771   2.715
28990WAT     H287213   9.576   4.740   2.854
28991WAT      O87214   1.522   9.814   7.298
28991WAT     H187215   1.462   9.873   7.244
28991WAT     H287216   1.526   9.723   7.256
28992WAT      O87217   3.519   8.663   4.738
28992WAT     H187218   3.497   8.685   4.643
28992WAT     H287219   3.477   8.732   4.798
28993WAT      O87220   9.259   4.734   1.429
28993WAT     H187221   9.283   4.640   1.453
28993WAT     H287222   9.227   4.782   1.511
28994WAT      O87223   3.112   9.178   6.101
28994WAT     H187224   3.199   9.129   6.102
28994WAT     H287225   3.058   9.152   6.180
28995WAT      O87226   0.508   0.233   7.759
28995WAT     H187227   0.429   0.253   7.701
28995WAT     H287228   0.486   0.158   7.821
28996WAT      O87229   3.313   3.136   0.668
28996WAT     H187230   3.328   3.229   0.703
28996WAT     H287231   3.252   3.141   0.588
28997WAT      O87232   8.870   4.412   7.893
28997WAT     H187233   8.883   4.317   7.922
28997WAT     H287234   8.950   4.442   7.841
28998WAT      O87235   4.012   9.150   2.935
28998WAT     H187236   4.033   9.085   3.009
28998WAT     H287237   4.044   9.241   2.961
28999WAT      O87238   7.952   6.370   1.350
28999WAT     H187239   7.900   6.293   1.314
28999WAT     H287240   7.889   6.444   1.375
29000WAT      O87241   7.294   8.090   8.531
29000WAT     H187242   7.358   8.057   8.600
29000WAT     H287243   7.316   8.048   8.442
29001WAT      O87244   3.885   3.014   5.329
29001WAT     H187245   3.831   2.995   5.411
29001WAT     H287246   3.824   3.039   5.254
29002WAT      O87247   8.528   8.829   3.214
29002WAT     H187248   8.467   8.767   3.163
29002WAT     H287249   8.589   8.775   3.271
29003WAT      O87250   0.298   4.157   2.871
29003WAT     H187251   0.217   4.177   2.925
29003WAT     H287252   0.315   4.234   2.809
29004WAT      O87253   5.093   8.285   3.029
29004WAT     H187254   5.024   8.351   2.998
29004WAT     H287255   5.164   8.332   3.081
29005WAT      O87256   3.861   0.624   8.088
29005WAT     H187257   3.936   0.669   8.135
29005WAT     H287258   3.883   0.527   8.074
29006WAT      O87259   4.111   0.815   2.867
29006WAT     H187260   4.152   0.846   2.781
29006WAT     H287261   4.160   0.857   2.944
29007WAT      O87262   1.427   7.766   0.438
29007WAT     H187263   1.432   7.790   0.535
29007WAT     H287264   1.340   7.797   0.400
29008WAT      O87265   7.418   1.754   1.779
29008WAT     H187266   7.358   1.769   1.857
29008WAT     H287267   7.363   1.749   1.695
29009WAT      O87268   2.302   4.192   0.219
29009WAT     H187269   2.296   4.111   0.161
29009WAT     H287270   2.396   4.202   0.252
29010WAT      O87271   6.182   1.300   3.206
29010WAT     H187272   6.244   1.316   3.130
29010WAT     H287273   6.234   1.271   3.286
29011WAT      O87274   3.702   8.590   1.844
29011WAT     H187275   3.787   8.539   1.825
29011WAT     H287276   3.648   8.539   1.912
29012WAT      O87277   8.318   2.613   3.938
29012WAT     H187278   8.370   2.550   3.880
29012WAT     H287279   8.331   2.707   3.907
29013WAT      O87280   1.837   8.642   3.508
29013WAT     H187281   1.789   8.717   3.462
29013WAT     H287282   1.929   8.633   3.472
29014WAT      O87283   9.004   6.840   6.923
29014WAT     H187284   9.010   6.927   6.876
29014WAT     H287285   8.916   6.833   6.969
29015WAT      O87286   4.642   0.246   0.530
29015WAT     H187287   4.703   0.321   0.555
29015WAT     H287288   4.696   0.169   0.496
29016WAT      O87289   2.730   7.086   6.669
29016WAT     H187290   2.692   7.039   6.588
29016WAT     H287291   2.791   7.159   6.640
29017WAT      O87292   9.126   1.423   9.698
29017WAT     H187293   9.114   1.509   9.649
29017WAT     H287294   9.165   1.354   9.637
29018WAT      O87295   4.593   3.070   8.347
29018WAT     H187296   4.565   2.994   8.289
29018WAT     H287297   4.559   3.156   8.309
29019WAT      O87298   7.987   2.029   8.417
29019WAT     H187299   7.973   2.039   8.318
29019WAT     H287300   7.904   1.990   8.458
29020WAT      O87301   4.832   6.886   4.208
29020WAT     H187302   4.809   6.801   4.255
29020WAT     H287303   4.753   6.918   4.156
29021WAT      O87304   0.481   2.407   8.728
29021WAT     H187305   0.484   2.418   8.628
29021WAT     H287306   0.551   2.465   8.769
29022WAT      O87307   7.829   0.045   6.245
29022WAT     H187308   7.815  -0.052   6.266
29022WAT     H287309   7.744   0.095   6.262
29023WAT      O87310   9.822   1.717   0.823
29023WAT     H187311   9.778   1.803   0.845
29023WAT     H287312   9.917   1.735   0.794
29024WAT      O87313   5.587   2.194   1.664
29024WAT     H187314   5.631   2.155   1.744
29024WAT     H287315   5.490   2.170   1.664
29025WAT      O87316   4.722   2.189   2.439
29025WAT     H187317   4.712   2.127   2.362
29025WAT     H287318   4.637   2.239   2.454
29026WAT      O87319   8.435   6.585   1.742
29026WAT     H187320   8.356   6.530   1.770
29026WAT     H287321   8.515   6.527   1.734
29027WAT      O87322   0.887   1.010   3.660
29027WAT     H187323   0.871   0.916   3.632
29027WAT     H287324   0.888   1.016   3.760
29028WAT      O87325   8.763   5.450   0.299
29028WAT     H187326   8.832   5.427   0.231
29028WAT     H287327   8.711   5.530   0.269
29029WAT      O87328   6.079   7.000   2.743
29029WAT     H187329   6.164   6.979   2.790
29029WAT     H287330   6.099   7.029   2.649
29030WAT      O87331   3.674   1.108   8.000
29030WAT     H187332   3.621   1.028   7.975
29030WAT     H287333   3.754   1.080   8.053
29031WAT      O87334   3.819   3.039   0.628
29031WAT     H187335   3.790   3.133   0.612
29031WAT     H287336   3.747   2.976   0.601
29032WAT      O87337   9.040   7.841   0.057
29032WAT     H187338   9.017   7.937   0.072
29032WAT     H287339   9.013   7.814  -0.035
29033WAT      O87340   2.084   7.675   9.472
29033WAT     H187341   2.056   7.586   9.437
29033WAT     H287342   2.181   7.673   9.495
29034WAT      O87343   8.589   9.077   8.115
29034WAT     H187344   8.687   9.078   8.136
29034WAT     H287345   8.562   8.984   8.088
29035WAT      O87346   1.588   8.386   5.028
29035WAT     H187347   1.686   8.380   5.008
29035WAT     H287348   1.542   8.435   4.955
29036WAT      O87349   9.118   7.213   9.074
29036WAT     H187350   9.040   7.261   9.034
29036WAT     H287351   9.099   7.195   9.170
29037WAT      O87352   0.121   6.881   5.417
29037WAT     H187353   0.166   6.855   5.503
29037WAT     H287354   0.166   6.961   5.378
29038WAT      O87355   6.743   3.965   2.119
29038WAT     H187356   6.662   3.954   2.062
29038WAT     H287357   6.756   3.882   2.173
29039WAT      O87358   2.128   2.312   1.233
29039WAT     H187359   2.054   2.283   1.173
29039WAT     H287360   2.091   2.333   1.324
29040WAT      O87361   7.790   2.329   6.354
29040WAT     H187362   7.781   2.235   6.385
29040WAT     H287363   7.702   2.376   6.363
29041WAT      O87364   2.701   9.776   1.224
29041WAT     H187365   2.747   9.856   1.264
29041WAT     H287366   2.603   9.795   1.215
29042WAT      O87367   0.639   7.313   4.176
29042WAT     H187368   0.636   7.381   4.249
29042WAT     H287369   0.731   7.275   4.169
29043WAT      O87370   0.635   1.909   0.596
29043WAT     H187371   0.732   1.923   0.616
29043WAT     H287372   0.600   1.985   0.542
29044WAT      O87373   5.471   7.244   0.988
29044WAT     H187374   5.402   7.210   1.052
29044WAT     H287375   5.425   7.296   0.915
29045WAT      O87376   9.462   6.618   6.235
29045WAT     H187377   9.473   6.520   6.215
29045WAT     H287378   9.389   6.655   6.178
29046WAT      O87379   5.902   0.118   1.623
29046WAT     H187380   5.854   0.166   1.696
29046WAT     H287381   5.840   0.051   1.581
29047WAT      O87382   4.133   0.602   2.593
29047WAT     H187383   4.230   0.606   2.569
29047WAT     H287384   4.087   0.685   2.563
29048WAT      O87385   4.231   3.713   3.759
29048WAT     H187386   4.297   3.645   3.792
29048WAT     H287387   4.265   3.754   3.674
29049WAT      O87388   5.372   3.874   4.591
29049WAT     H187389   5.320   3.796   4.624
29049WAT     H287390   5.357   3.884   4.492
29050WAT      O87391   4.026   5.638   0.577
29050WAT     H187392   4.009   5.606   0.484
29050WAT     H287393   4.019   5.737   0.581
29051WAT      O87394   1.453   9.747   9.486
29051WAT     H187395   1.470   9.751   9.584
29051WAT     H287396   1.540   9.738   9.437
29052WAT      O87397   8.534   7.409   9.193
29052WAT     H187398   8.545   7.444   9.100
29052WAT     H287399   8.438   7.412   9.218
29053WAT      O87400   6.096   6.721   3.960
29053WAT     H187401   6.074   6.633   4.000
29053WAT     H287402   6.029   6.789   3.990
29054WAT      O87403   7.370   0.133   1.746
29054WAT     H187404   7.305   0.099   1.814
29054WAT     H287405   7.320   0.158   1.663
29055WAT      O87406   3.601   4.240   9.109
29055WAT     H187407   3.650   4.177   9.049
29055WAT     H287408   3.642   4.237   9.201
29056WAT      O87409   0.984   3.722   6.084
29056WAT     H187410   0.960   3.740   5.988
29056WAT     H287411   0.901   3.705   6.136
29057WAT      O87412   4.793   9.717   4.935
29057WAT     H187413   4.841   9.762   4.859
29057WAT     H287414   4.741   9.639   4.899
29058WAT      O87415   5.097   0.007   9.050
29058WAT     H187416   5.127   0.053   8.966
29058WAT     H287417   5.079   0.075   9.121
29059WAT      O87418   0.044   4.264   9.715
29059WAT     H187419   0.111   4.334   9.739
29059WAT     H287420  -0.042   4.308   9.688
29060WAT      O87421   7.559   3.125   7.525
29060WAT     H187422   7.634   3.167   7.473
29060WAT     H287423   7.481   3.109   7.465
29061WAT      O87424   3.657   5.917   6.671
29061WAT     H187425   3.570   5.912   6.719
29061WAT     H287426   3.658   5.850   6.597
29062WAT      O87427   8.226   6.472   9.765
29062WAT     H187428   8.229   6.400   9.834
29062WAT     H287429   8.207   6.432   9.676
29063WAT      O87430   2.855   4.371   8.916
29063WAT     H187431   2.857   4.276   8.947
29063WAT     H287432   2.761   4.398   8.896
29064WAT      O87433   3.118   2.608   9.150
29064WAT     H187434   3.151   2.703   9.149
29064WAT     H287435   3.023   2.607   9.179
29065WAT      O87436   1.503   1.230   9.556
29065WAT     H187437   1.598   1.200   9.558
29065WAT     H287438   1.443   1.153   9.576
29066WAT      O87439   4.652   0.717   8.101
29066WAT     H187440   4.635   0.811   8.131
29066WAT     H287441   4.711   0.671   8.168
29067WAT      O87442   7.004   4.745   4.903
29067WAT     H187443   7.048   4.667   4.947
29067WAT     H287444   6.953   4.797   4.972
29068WAT      O87445   8.279   8.878   4.965
29068WAT     H187446   8.217   8.925   5.027
29068WAT     H287447   8.250   8.893   4.871
29069WAT      O87448   2.619   6.622   9.059
29069WAT     H187449   2.671   6.537   9.069
29069WAT     H287450   2.592   6.655   9.150
29070WAT      O87451   5.379   8.109   8.423
29070WAT     H187452   5.297   8.054   8.409
29070WAT     H287453   5.375   8.152   8.513
29071WAT      O87454   2.704   7.873   6.365
29071WAT     H187455   2.617   7.919   6.346
29071WAT     H287456   2.714   7.794   6.306
29072WAT      O87457   1.579   1.119   6.497
29072WAT     H187458   1.617   1.032   6.464
29072WAT     H287459   1.482   1.108   6.519
29073WAT      O87460   9.654   7.202   8.914
29073WAT     H187461   9.593   7.127   8.887
29073WAT     H287462   9.701   7.177   8.998
29074WAT      O87463   0.063   4.182   2.693
29074WAT     H187464  -0.016   4.227   2.651
29074WAT     H287465   0.031   4.116   2.761
29075WAT      O87466   1.835   0.319   0.000
29075WAT     H187467   1.740   0.303   0.024
29075WAT     H287468   1.895   0.278   0.070
29076WAT      O87469   5.572   9.169   9.222
29076WAT     H187470   5.669   9.153   9.199
29076WAT     H287471   5.565   9.248   9.282
29077WAT      O87472   1.152   3.336   5.820
29077WAT     H187473   1.153   3.412   5.755
29077WAT     H287474   1.108   3.365   5.905
29078WAT      O87475   7.671   7.944   5.343
29078WAT     H187476   7.763   7.975   5.368
29078WAT     H287477   7.614   7.940   5.425
29079WAT      O87478   6.724   8.687   7.240
29079WAT     H187479   6.766   8.643   7.161
29079WAT     H287480   6.627   8.701   7.223
29080WAT      O87481   5.581   9.677   6.616
29080WAT     H187482   5.673   9.711   6.595
29080WAT     H287483   5.589   9.599   6.678
29081WAT      O87484   3.212   4.192   7.614
29081WAT     H187485   3.151   4.161   7.541
29081WAT     H287486   3.171   4.171   7.703
29082WAT      O87487   4.292   6.805   1.530
29082WAT     H187488   4.288   6.853   1.442
29082WAT     H287489   4.206   6.819   1.580
29083WAT      O87490   2.359   2.365   9.592
29083WAT     H187491   2.423   2.342   9.518
29083WAT     H287492   2.399   2.436   9.650
29084WAT      O87493   7.440   2.228   6.477
29084WAT     H187494   7.392   2.304   6.521
29084WAT     H287495   7.470   2.162   6.546
29085WAT      O87496   6.792   2.522   5.247
29085WAT     H187497   6.795   2.622   5.253
29085WAT     H287498   6.848   2.482   5.319
29086WAT      O87499   5.831   4.769   2.053
29086WAT     H187500   5.746   4.821   2.063
29086WAT     H287501   5.820   4.678   2.093
29087WAT      O87502   0.719   3.348   5.623
29087WAT     H187503   0.807   3.387   5.595
29087WAT     H287504   0.731   3.295   5.706
29088WAT      O87505   7.987   4.395   8.367
29088WAT     H187506   7.917   4.371   8.435
29088WAT     H287507   7.945   4.402   8.277
29089WAT      O87508   3.477   2.119   2.490
29089WAT     H187509   3.506   2.029   2.456
29089WAT     H287510   3.450   2.176   2.412
29090WAT      O87511   0.456   7.920   7.735
29090WAT     H187512   0.464   7.832   7.782
29090WAT     H287513   0.544   7.944   7.695
29091WAT      O87514   7.619   7.201   0.772
29091WAT     H187515   7.549   7.271   0.789
29091WAT     H287516   7.574   7.116   0.744
29092WAT      O87517   1.706   8.178   7.378
29092WAT     H187518   1.730   8.183   7.475
29092WAT     H287519   1.781   8.135   7.327
29093WAT      O87520   5.093   4.144   1.202
29093WAT     H187521   5.143   4.128   1.287
29093WAT     H287522   5.077   4.243   1.192
29094WAT      O87523   4.976   9.846   4.120
29094WAT     H187524   4.950   9.759   4.161
29094WAT     H287525   4.904   9.877   4.058
29095WAT      O87526   1.365   4.055   7.921
29095WAT     H187527   1.449   4.006   7.896
29095WAT     H287528   1.386   4.119   7.995
29096WAT      O87529   9.067   0.634   8.649
29096WAT     H187530   9.029   0.631   8.556
29096WAT     H287531   9.008   0.690   8.707
29097WAT      O87532   4.491   9.500   3.324
29097WAT     H187533   4.524   9.581   3.373
29097WAT     H287534   4.479   9.523   3.227
29098WAT      O87535   7.803   5.442   9.398
29098WAT     H187536   7.868   5.517   9.411
29098WAT     H287537   7.746   5.461   9.318
29099WAT      O87538   0.952   7.912   8.843
29099WAT     H187539   0.870   7.901   8.787
29099WAT     H287540   1.032   7.877   8.793
29100WAT      O87541   4.595   3.059   2.626
29100WAT     H187542   4.646   3.126   2.571
29100WAT     H287543   4.526   3.015   2.568
29101WAT      O87544   5.576   6.650   5.678
29101WAT     H187545   5.599   6.564   5.633
29101WAT     H287546   5.511   6.701   5.621
29102WAT      O87547   1.206   8.869   5.569
29102WAT     H187548   1.169   8.776   5.570
29102WAT     H287549   1.246   8.889   5.659
29103WAT      O87550   8.433   1.082   7.754
29103WAT     H187551   8.484   1.167   7.760
29103WAT     H287552   8.335   1.100   7.759
29104WAT      O87553   6.055   2.047   9.278
29104WAT     H187554   6.095   2.137   9.260
29104WAT     H287555   5.974   2.057   9.336
29105WAT      O87556   8.070   8.942   4.173
29105WAT     H187557   8.082   9.040   4.159
29105WAT     H287558   8.011   8.926   4.252
29106WAT      O87559   2.620   8.807   7.014
29106WAT     H187560   2.616   8.861   6.929
29106WAT     H287561   2.538   8.751   7.021
29107WAT      O87562   1.611   6.438   7.685
29107WAT     H187563   1.672   6.408   7.759
29107WAT     H287564   1.624   6.536   7.671
29108WAT      O87565   0.723   5.970   4.920
29108WAT     H187566   0.655   5.955   4.848
29108WAT     H287567   0.766   6.059   4.908
29109WAT      O87568   9.537   8.256   8.393
29109WAT     H187569   9.534   8.197   8.312
29109WAT     H287570   9.619   8.314   8.389
29110WAT      O87571   3.527   7.190   1.289
29110WAT     H187572   3.604   7.253   1.300
29110WAT     H287573   3.498   7.189   1.193
29111WAT      O87574   8.221   2.640   8.316
29111WAT     H187575   8.201   2.545   8.294
29111WAT     H287576   8.185   2.662   8.407
29112WAT      O87577   1.071   5.826   2.879
29112WAT     H187578   1.054   5.802   2.783
29112WAT     H287579   1.165   5.806   2.903
29113WAT      O87580   4.809   7.825   6.809
29113WAT     H187581   4.872   7.749   6.796
29113WAT     H287582   4.843   7.905   6.757
29114WAT      O87583   9.873   2.232   8.517
29114WAT     H187584   9.969   2.205   8.506
29114WAT     H287585   9.819   2.151   8.541
29115WAT      O87586   0.400   2.018   8.277
29115WAT     H187587   0.357   1.983   8.194
29115WAT     H287588   0.440   1.942   8.328
29116WAT      O87589   3.728   0.126   7.670
29116WAT     H187590   3.651   0.090   7.722
29116WAT     H287591   3.731   0.225   7.679
29117WAT      O87592   6.659   9.140   5.953
29117WAT     H187593   6.684   9.109   5.861
29117WAT     H287594   6.616   9.065   6.003
29118WAT      O87595   4.315   6.620   7.432
29118WAT     H187596   4.244   6.557   7.465
29118WAT     H287597   4.325   6.696   7.496
29119WAT      O87598   9.370   1.200   5.513
29119WAT     H187599   9.398   1.234   5.423
29119WAT     H287600   9.451   1.174   5.565
29120WAT      O87601   0.475   6.370   0.004
29120WAT     H187602   0.449   6.466  -0.007
29120WAT     H287603   0.393   6.312  -0.000
29121WAT      O87604   9.320   1.239   4.024
29121WAT     H187605   9.257   1.257   3.948
29121WAT     H287606   9.297   1.299   4.101
29122WAT      O87607   4.892   3.715   7.825
29122WAT     H187608   4.842   3.699   7.740
29122WAT     H287609   4.838   3.682   7.902
29123WAT      O87610   0.098   8.944   9.883
29123WAT     H187611   0.064   8.851   9.898
29123WAT     H287612   0.126   8.955   9.788
29124WAT      O87613   1.758   7.989   1.407
29124WAT     H187614   1.854   8.000   1.383
29124WAT     H287615   1.703   8.055   1.356
29125WAT      O87616   1.195   0.347   7.537
29125WAT     H187617   1.201   0.249   7.556
29125WAT     H287618   1.100   0.377   7.546
29126WAT      O87619   8.260   0.536   5.467
29126WAT     H187620   8.307   0.614   5.426
29126WAT     H287621   8.228   0.562   5.559
29127WAT      O87622   7.599   7.019   5.690
29127WAT     H187623   7.573   7.002   5.785
29127WAT     H287624   7.664   6.949   5.660
29128WAT      O87625   6.605   3.757   2.977
29128WAT     H187626   6.631   3.677   3.030
29128WAT     H287627   6.664   3.765   2.897
29129WAT      O87628   7.787   4.008   5.067
29129WAT     H187629   7.802   4.106   5.075
29129WAT     H287630   7.735   3.988   4.984
29130WAT      O87631   8.225   8.455   5.374
29130WAT     H187632   8.239   8.542   5.422
29130WAT     H287633   8.159   8.400   5.426
29131WAT      O87634   9.160   4.456   4.070
29131WAT     H187635   9.229   4.414   4.012
29131WAT     H287636   9.161   4.555   4.058
29132WAT      O87637   5.003   2.604   9.025
29132WAT     H187638   5.029   2.625   9.119
29132WAT     H287639   4.930   2.666   8.995
29133WAT      O87640   0.942   7.567   8.649
29133WAT     H187641   0.937   7.467   8.646
29133WAT     H287642   1.026   7.594   8.697
29134WAT      O87643   7.630   6.139   1.542
29134WAT     H187644   7.544   6.106   1.504
29134WAT     H287645   7.704   6.119   1.477
29135WAT      O87646   2.206   2.494   9.284
29135WAT     H187647   2.182   2.493   9.381
29135WAT     H287648   2.247   2.406   9.259
29136WAT      O87649   8.283   6.204   0.877
29136WAT     H187650   8.287   6.301   0.904
29136WAT     H287651   8.206   6.189   0.816
29137WAT      O87652   0.319   1.439   0.563
29137WAT     H187653   0.354   1.523   0.522
29137WAT     H287654   0.298   1.456   0.660
29138WAT      O87655   7.972   3.767   7.987
29138WAT     H187656   8.061   3.724   8.004
29138WAT     H287657   7.905   3.732   8.053
29139WAT      O87658   2.095   1.667   2.381
29139WAT     H187659   2.028   1.707   2.318
29139WAT     H287660   2.107   1.726   2.460
29140WAT      O87661   6.163   3.567   7.761
29140WAT     H187662   6.215   3.649   7.785
29140WAT     H287663   6.067   3.581   7.784
29141WAT      O87664   5.360   2.212   9.386
29141WAT     H187665   5.405   2.276   9.448
29141WAT     H287666   5.312   2.263   9.314
29142WAT      O87667   2.178   4.782   7.625
29142WAT     H187668   2.194   4.696   7.577
29142WAT     H287669   2.079   4.795   7.637
29143WAT      O87670   0.660   6.193   2.401
29143WAT     H187671   0.667   6.162   2.496
29143WAT     H287672   0.577   6.248   2.389
29144WAT      O87673   9.137   9.454   9.135
29144WAT     H187674   9.217   9.515   9.138
29144WAT     H287675   9.077   9.483   9.060
29145WAT      O87676   3.984   1.203   6.590
29145WAT     H187677   3.885   1.210   6.579
29145WAT     H287678   4.007   1.187   6.686
29146WAT      O87679   1.039   4.875   5.307
29146WAT     H187680   1.010   4.845   5.398
29146WAT     H287681   1.137   4.895   5.308
29147WAT      O87682   4.376   7.945   3.611
29147WAT     H187683   4.410   8.035   3.638
29147WAT     H287684   4.333   7.950   3.522
29148WAT      O87685   0.247   1.803   5.019
29148WAT     H187686   0.314   1.762   5.081
29148WAT     H287687   0.156   1.793   5.057
29149WAT      O87688   5.167   1.324   5.667
29149WAT     H187689   5.081   1.274   5.678
29149WAT     H287690   5.158   1.388   5.590
29150WAT      O87691   1.544   5.708   8.837
29150WAT     H187692   1.617   5.774   8.853
29150WAT     H287693   1.455   5.752   8.851
29151WAT      O87694   8.311   4.434   1.801
29151WAT     H187695   8.324   4.343   1.762
29151WAT     H287696   8.299   4.427   1.900
29152WAT      O87697   1.712   5.719   3.911
29152WAT     H187698   1.804   5.741   3.878
29152WAT     H287699   1.650   5.708   3.833
29153WAT      O87700   5.328   6.917   0.814
29153WAT     H187701   5.319   6.855   0.736
29153WAT     H287702   5.258   6.988   0.810
29154WAT      O87703   2.536   7.813   7.052
29154WAT     H187704   2.590   7.877   7.106
29154WAT     H287705   2.533   7.724   7.098
29155WAT      O87706   4.141   8.212   1.723
29155WAT     H187707   4.122   8.255   1.635
29155WAT     H287708   4.068   8.148   1.746
29156WAT      O87709   5.821   4.675   8.546
29156WAT     H187710   5.793   4.715   8.633
29156WAT     H287711   5.834   4.748   8.478
29157WAT      O87712   8.634   8.354   9.018
29157WAT     H187713   8.581   8.352   8.933
29157WAT     H287714   8.622   8.268   9.067
29158WAT      O87715   2.334   8.835   8.480
29158WAT     H187716   2.387   8.782   8.546
29158WAT     H287717   2.271   8.895   8.529
29159WAT      O87718   4.177   4.107   6.234
29159WAT     H187719   4.136   4.064   6.314
29159WAT     H287720   4.164   4.048   6.154
29160WAT      O87721   9.176   0.307   1.336
29160WAT     H187722   9.147   0.324   1.241
29160WAT     H287723   9.273   0.330   1.345
29161WAT      O87724   0.969   6.578   1.573
29161WAT     H187725   1.014   6.666   1.592
29161WAT     H287726   1.010   6.536   1.493
29162WAT      O87727   8.517   0.736   7.300
29162WAT     H187728   8.459   0.696   7.370
29162WAT     H287729   8.550   0.825   7.330
29163WAT      O87730   7.465   1.790   9.559
29163WAT     H187731   7.476   1.693   9.536
29163WAT     H287732   7.372   1.805   9.591
29164WAT      O87733   9.360   1.560   7.124
29164WAT     H187734   9.324   1.502   7.197
29164WAT     H287735   9.353   1.656   7.152
29165WAT      O87736   5.055   9.612   0.870
29165WAT     H187737   5.003   9.683   0.822
29165WAT     H287738   5.079   9.539   0.806
29166WAT      O87739   4.172   4.799   1.784
29166WAT     H187740   4.209   4.711   1.754
29166WAT     H287741   4.247   4.864   1.796
29167WAT      O87742   4.624   6.842   0.437
29167WAT     H187743   4.660   6.878   0.352
29167WAT     H287744   4.553   6.774   0.417
29168WAT      O87745   5.166   0.045   1.339
29168WAT     H187746   5.120   0.133   1.350
29168WAT     H287747   5.133  -0.000   1.256
29169WAT      O87748   5.258   0.384   8.777
29169WAT     H187749   5.297   0.443   8.847
29169WAT     H287750   5.267   0.288   8.804
29170WAT      O87751   1.750   8.187   0.640
29170WAT     H187752   1.714   8.094   0.646
29170WAT     H287753   1.846   8.188   0.670
29171WAT      O87754   7.099   8.335   3.478
29171WAT     H187755   7.117   8.290   3.391
29171WAT     H287756   7.024   8.400   3.467
29172WAT      O87757   1.220   4.835   2.109
29172WAT     H187758   1.227   4.737   2.090
29172WAT     H287759   1.277   4.858   2.189
29173WAT      O87760   5.044   1.852   1.438
29173WAT     H187761   5.112   1.879   1.369
29173WAT     H287762   4.978   1.790   1.397
29174WAT      O87763   7.724   3.208   6.307
29174WAT     H187764   7.711   3.262   6.224
29174WAT     H287765   7.807   3.239   6.354
29175WAT      O87766   8.902   8.227   0.078
29175WAT     H187767   8.943   8.246  -0.011
29175WAT     H287768   8.936   8.294   0.145
29176WAT      O87769   6.526   7.330   1.825
29176WAT     H187770   6.546   7.346   1.729
29176WAT     H287771   6.449   7.266   1.834
29177WAT      O87772   3.939   4.878   3.679
29177WAT     H187773   3.872   4.947   3.650
29177WAT     H287774   4.032   4.912   3.659
29178WAT      O87775   1.330   8.186   3.373
29178WAT     H187776   1.260   8.168   3.443
29178WAT     H287777   1.381   8.268   3.398
29179WAT      O87778   2.825   9.832   8.352
29179WAT     H187779   2.797   9.788   8.267
29179WAT     H287780   2.770   9.914   8.367
29180WAT      O87781   5.905   4.209   7.191
29180WAT     H187782   5.954   4.210   7.278
29180WAT     H287783   5.971   4.205   7.116
29181WAT      O87784   6.142   3.627   7.293
29181WAT     H187785   6.116   3.584   7.207
29181WAT     H287786   6.124   3.565   7.369
29182WAT      O87787   3.836   1.339   2.457
29182WAT     H187788   3.771   1.415   2.449
29182WAT     H287789   3.797   1.269   2.517
29183WAT      O87790   3.998   0.402   3.264
29183WAT     H187791   4.087   0.439   3.237
29183WAT     H287792   3.960   0.348   3.189
29184WAT      O87793   6.722   1.791   0.489
29184WAT     H187794   6.712   1.867   0.553
29184WAT     H287795   6.784   1.722   0.527
29185WAT      O87796   9.073   1.981   8.702
29185WAT     H187797   9.154   1.992   8.645
29185WAT     H287798   9.062   1.884   8.727
29186WAT      O87799   4.674   5.028   9.291
29186WAT     H187800   4.704   4.973   9.369
29186WAT     H287801   4.753   5.055   9.236
29187WAT      O87802   9.836   8.420   0.971
29187WAT     H187803   9.850   8.360   0.892
29187WAT     H287804   9.771   8.493   0.947
29188WAT      O87805   4.985   1.705   4.540
29188WAT     H187806   4.937   1.619   4.560
29188WAT     H287807   5.032   1.697   4.452
29189WAT      O87808   4.108   0.097   1.419
29189WAT     H187809   4.013   0.071   1.435
29189WAT     H287810   4.111   0.183   1.367
29190WAT      O87811   7.458   7.749   4.282
29190WAT     H187812   7.493   7.778   4.193
29190WAT     H287813   7.472   7.822   4.349
29191WAT      O87814   4.244   7.282   3.536
29191WAT     H187815   4.233   7.241   3.627
29191WAT     H287816   4.225   7.213   3.466
29192WAT      O87817   7.735   1.921   8.495
29192WAT     H187818   7.721   1.830   8.533
29192WAT     H287819   7.685   1.929   8.408
29193WAT      O87820   1.272   0.952   1.113
29193WAT     H187821   1.191   0.963   1.056
29193WAT     H287822   1.341   0.900   1.063
29194WAT      O87823   5.048   5.196   8.558
29194WAT     H187824   4.985   5.259   8.603
29194WAT     H287825   5.083   5.238   8.474
29195WAT      O87826   7.897   4.642   5.871
29195WAT     H187827   7.841   4.613   5.793
29195WAT     H287828   7.991   4.612   5.857
29196WAT      O87829   9.872   9.355   9.640
29196WAT     H187830   9.855   9.277   9.700
29196WAT     H287831   9.858   9.327   9.545
29197WAT      O87832   1.613   4.092   2.526
29197WAT     H187833   1.635   4.086   2.623
29197WAT     H287834   1.646   4.010   2.480
29198WAT      O87835   8.486   6.481   0.150
29198WAT     H187836   8.403   6.440   0.190
29198WAT     H287837   8.532   6.537   0.219
29199WAT      O87838   8.889   7.089   2.074
29199WAT     H187839   8.814   7.070   2.137
29199WAT     H287840   8.906   7.188   2.071
29200WAT      O87841   2.353   3.126   5.592
29200WAT     H187842   2.419   3.117   5.518
29200WAT     H287843   2.304   3.213   5.582
29201WAT      O87844   9.612   3.604   4.102
29201WAT     H187845   9.633   3.511   4.073
29201WAT     H287846   9.642   3.618   4.196
29202WAT      O87847   1.083   8.159   3.506
29202WAT     H187848   1.029   8.092   3.455
29202WAT     H287849   1.034   8.185   3.589
29203WAT      O87850   9.020   7.738   1.278
29203WAT     H187851   9.095   7.729   1.212
29203WAT     H287852   9.013   7.655   1.332
29204WAT      O87853   6.016   2.769   2.742
29204WAT     H187854   5.998   2.704   2.815
29204WAT     H287855   6.092   2.737   2.686
29205WAT      O87856   8.613   4.122   8.079
29205WAT     H187857   8.707   4.101   8.105
29205WAT     H287858   8.551   4.090   8.151
29206WAT      O87859   6.177   2.485   9.026
29206WAT     H187860   6.080   2.507   9.039
29206WAT     H287861   6.187   2.422   8.950
29207WAT      O87862   3.771   0.150   5.308
29207WAT     H187863   3.870   0.140   5.297
29207WAT     H287864   3.729   0.170   5.220
29208WAT      O87865   3.038   0.346   1.592
29208WAT     H187866   3.094   0.418   1.631
29208WAT     H287867   3.014   0.280   1.663
29209WAT      O87868   2.312   8.544   9.006
29209WAT     H187869   2.400   8.508   8.976
29209WAT     H287870   2.270   8.480   9.070
29210WAT      O87871   0.776   1.750   3.726
29210WAT     H187872   0.783   1.823   3.658
29210WAT     H287873   0.689   1.758   3.774
29211WAT      O87874   4.848   9.831   2.240
29211WAT     H187875   4.883   9.907   2.186
29211WAT     H287876   4.886   9.745   2.204
29212WAT      O87877   3.036   0.862   6.077
29212WAT     H187878   2.949   0.879   6.122
29212WAT     H287879   3.064   0.767   6.094
29213WAT      O87880   6.445   6.427   1.553
29213WAT     H187881   6.436   6.331   1.530
29213WAT     H287882   6.354   6.467   1.567
29214WAT      O87883   4.126   9.239   9.567
29214WAT     H187884   4.099   9.146   9.543
29214WAT     H287885   4.052   9.302   9.542
29215WAT      O87886   4.443   8.318   7.845
29215WAT     H187887   4.354   8.284   7.814
29215WAT     H287888   4.436   8.415   7.869
29216WAT      O87889   0.224   4.179   1.515
29216WAT     H187890   0.292   4.245   1.547
29216WAT     H287891   0.148   4.175   1.580
29217WAT      O87892   1.278   0.514   2.672
29217WAT     H187893   1.254   0.417   2.666
29217WAT     H287894   1.253   0.550   2.762
29218WAT      O87895   4.102   7.713   9.563
29218WAT     H187896   4.073   7.800   9.604
29218WAT     H287897   4.190   7.726   9.516
29219WAT      O87898   9.492   6.260   1.126
29219WAT     H187899   9.532   6.271   1.035
29219WAT     H287900   9.475   6.349   1.167
29220WAT      O87901   9.277   8.401   1.281
29220WAT     H187902   9.179   8.398   1.301
29220WAT     H287903   9.308   8.496   1.277
29221WAT      O87904   4.972   9.425   4.690
29221WAT     H187905   4.892   9.390   4.641
29221WAT     H287906   4.972   9.525   4.686
29222WAT      O87907   3.944   2.892   7.762
29222WAT     H187908   3.969   2.934   7.850
29222WAT     H287909   3.848   2.866   7.763
29223WAT      O87910   0.332   3.902   2.551
29223WAT     H187911   0.308   3.995   2.524
29223WAT     H287912   0.396   3.905   2.628
29224WAT      O87913   5.177   7.891   9.551
29224WAT     H187914   5.100   7.921   9.607
29224WAT     H287915   5.230   7.971   9.522
29225WAT      O87916   1.746   9.561   9.843
29225WAT     H187917   1.816   9.533   9.778
29225WAT     H287918   1.788   9.581   9.932
29226WAT      O87919   5.209   6.872   8.507
29226WAT     H187920   5.157   6.789   8.528
29226WAT     H287921   5.146   6.948   8.491
29227WAT      O87922   9.724   3.351   9.859
29227WAT     H187923   9.757   3.405   9.935
29227WAT     H287924   9.675   3.410   9.795
29228WAT      O87925   9.531   9.016   1.840
29228WAT     H187926   9.626   8.986   1.829
29228WAT     H287927   9.507   9.017   1.937
29229WAT      O87928   3.660   4.523   5.267
29229WAT     H187929   3.634   4.431   5.238
29229WAT     H287930   3.708   4.517   5.354
29230WAT      O87931   4.331   9.390   4.058
29230WAT     H187932   4.306   9.448   3.980
29230WAT     H287933   4.300   9.296   4.041
29231WAT      O87934   1.617   4.827   6.213
29231WAT     H187935   1.592   4.904   6.155
29231WAT     H287936   1.580   4.743   6.175
29232WAT      O87937   5.984   0.248   4.758
29232WAT     H187938   6.006   0.271   4.852
29232WAT     H287939   5.893   0.206   4.753
29233WAT      O87940   5.310   4.035   2.382
29233WAT     H187941   5.387   3.973   2.397
29233WAT     H287942   5.339   4.129   2.394
29234WAT      O87943   9.607   6.529   8.753
29234WAT     H187944   9.635   6.589   8.679
29234WAT     H287945   9.679   6.462   8.772
29235WAT      O87946   7.695   8.750   4.416
29235WAT     H187947   7.723   8.712   4.505
29235WAT     H287948   7.761   8.819   4.387
29236WAT      O87949   0.617   0.367   3.450
29236WAT     H187950   0.537   0.359   3.391
29236WAT     H287951   0.622   0.287   3.510
29237WAT      O87952   5.067   3.961   8.917
29237WAT     H187953   5.143   3.939   8.979
29237WAT     H287954   5.034   4.053   8.937
29238WAT      O87955   3.631   3.949   8.691
29238WAT     H187956   3.700   3.992   8.633
29238WAT     H287957   3.568   4.019   8.725
29239WAT      O87958   0.150   2.121   9.530
29239WAT     H187959   0.100   2.137   9.445
29239WAT     H287960   0.244   2.155   9.520
29240WAT      O87961   2.158   2.763   2.802
29240WAT     H187962   2.062   2.772   2.775
29240WAT     H287963   2.163   2.742   2.900
29241WAT      O87964   7.602   4.845   5.060
29241WAT     H187965   7.640   4.821   4.971
29241WAT     H287966   7.586   4.943   5.065
29242WAT      O87967   8.527   7.218   9.465
29242WAT     H187968   8.549   7.264   9.379
29242WAT     H287969   8.600   7.234   9.531
29243WAT      O87970   3.393   4.970   1.914
29243WAT     H187971   3.365   4.901   1.848
29243WAT     H287972   3.446   4.927   1.987
29244WAT      O87973   4.726   9.311   4.666
29244WAT     H187974   4.705   9.285   4.571
29244WAT     H287975   4.709   9.234   4.726
29245WAT      O87976   0.766   5.330   0.277
29245WAT     H187977   0.817   5.380   0.207
29245WAT     H287978   0.687   5.383   0.306
29246WAT      O87979   2.528   4.033   4.271
29246WAT     H187980   2.613   4.084   4.268
29246WAT     H287981   2.543   3.940   4.238
29247WAT      O87982   3.556   7.550   1.698
29247WAT     H187983   3.478   7.490   1.715
29247WAT     H287984   3.548   7.591   1.608
29248WAT      O87985   1.331   8.661   0.981
29248WAT     H187986   1.278   8.731   1.030
29248WAT     H287987   1.346   8.691   0.886
29249WAT      O87988   0.104   3.420   9.009
29249WAT     H187989   0.116   3.444   9.105
29249WAT     H287990   0.097   3.321   8.999
29250WAT      O87991   1.316   5.104   5.850
29250WAT     H187992   1.222   5.097   5.882
29250WAT     H287993   1.359   5.184   5.892
29251WAT      O87994   7.788   2.620   7.793
29251WAT     H187995   7.732   2.538   7.807
29251WAT     H287996   7.874   2.611   7.843
29252WAT      O87997   1.429   7.101   6.247
29252WAT     H187998   1.402   7.046   6.326
29252WAT     H287999   1.353   7.104   6.181
29253WAT      O88000   8.011   5.779   2.159
29253WAT     H188001   7.955   5.805   2.238
29253WAT     H288002   8.005   5.850   2.089
29254WAT      O88003   6.156   8.213   0.932
29254WAT     H188004   6.218   8.230   0.855
29254WAT     H288005   6.063   8.200   0.897
29255WAT      O88006   9.881   1.838   4.531
29255WAT     H188007   9.912   1.913   4.473
29255WAT     H288008   9.782   1.845   4.545
29256WAT      O88009   1.376   2.663   3.503
29256WAT     H188010   1.338   2.755   3.512
29256WAT     H288011   1.342   2.621   3.419
29257WAT      O88012   6.176   9.129   0.218
29257WAT     H188013   6.141   9.199   0.280
29257WAT     H288014   6.248   9.078   0.264
29258WAT      O88015   9.285   6.335   2.993
29258WAT     H188016   9.302   6.424   2.951
29258WAT     H288017   9.312   6.338   3.089
29259WAT      O88018   1.002   6.877   4.002
29259WAT     H188019   0.974   6.930   3.922
29259WAT     H288020   0.956   6.913   4.083
29260WAT      O88021   6.914   2.458   2.437
29260WAT     H188022   7.008   2.473   2.468
29260WAT     H288023   6.871   2.388   2.494
29261WAT      O88024   8.559   4.687   3.247
29261WAT     H188025   8.644   4.634   3.236
29261WAT     H288026   8.524   4.713   3.157
29262WAT      O88027   6.744   1.082   3.660
29262WAT     H188028   6.697   1.115   3.742
29262WAT     H288029   6.801   1.155   3.622
29263WAT      O88030   3.658   5.882   8.413
29263WAT     H188031   3.646   5.784   8.393
29263WAT     H288032   3.574   5.919   8.452
29264WAT      O88033   7.047   2.148   5.228
29264WAT     H188034   7.066   2.136   5.325
29264WAT     H288035   7.109   2.090   5.175
29265WAT      O88036   8.490   2.053   3.704
29265WAT     H188037   8.419   1.984   3.720
29265WAT     H288038   8.464   2.111   3.627
29266WAT      O88039   3.062   7.631   5.015
29266WAT     H188040   3.017   7.652   5.102
29266WAT     H288041   3.111   7.544   5.023
29267WAT      O88042   4.550   2.635   8.322
29267WAT     H188043   4.505   2.568   8.381
29267WAT     H288044   4.492   2.715   8.312
29268WAT      O88045   7.032   8.218   3.007
29268WAT     H188046   6.942   8.253   2.982
29268WAT     H288047   7.078   8.184   2.925
29269WAT      O88048   3.343   2.949   3.658
29269WAT     H188049   3.276   3.023   3.667
29269WAT     H288050   3.295   2.864   3.638
29270WAT      O88051   6.599   4.295   6.008
29270WAT     H188052   6.696   4.317   5.996
29270WAT     H288053   6.557   4.363   6.067
29271WAT      O88054   4.098   0.628   3.427
29271WAT     H188055   4.092   0.632   3.526
29271WAT     H288056   4.060   0.542   3.394
29272WAT      O88057   0.086   0.180   6.091
29272WAT     H188058   0.040   0.169   6.178
29272WAT     H288059   0.019   0.177   6.016
29273WAT      O88060   1.146   5.305   2.477
29273WAT     H188061   1.211   5.237   2.443
29273WAT     H288062   1.139   5.381   2.412
29274WAT      O88063   2.255   5.735   3.282
29274WAT     H188064   2.346   5.696   3.262
29274WAT     H288065   2.261   5.796   3.360
29275WAT      O88066   1.470   3.527   6.946
29275WAT     H188067   1.520   3.525   7.032
29275WAT     H288068   1.511   3.463   6.881
29276WAT      O88069   6.270   0.168   6.502
29276WAT     H188070   6.328   0.233   6.552
29276WAT     H288071   6.273   0.079   6.548
29277WAT      O88072   5.534   9.122   2.803
29277WAT     H188073   5.623   9.153   2.835
29277WAT     H288074   5.464   9.146   2.870
29278WAT      O88075   4.533   0.451   1.942
29278WAT     H188076   4.534   0.404   1.854
29278WAT     H288077   4.609   0.516   1.946
29279WAT      O88078   4.464   1.826   0.865
29279WAT     H188079   4.502   1.862   0.780
29279WAT     H288080   4.451   1.728   0.858
29280WAT      O88081   6.656   7.124   9.008
29280WAT     H188082   6.579   7.091   8.953
29280WAT     H288083   6.714   7.182   8.951
29281WAT      O88084   8.942   0.983   4.790
29281WAT     H188085   9.022   1.038   4.765
29281WAT     H288086   8.862   1.042   4.798
29282WAT      O88087   3.568   8.597   9.397
29282WAT     H188088   3.474   8.625   9.377
29282WAT     H288089   3.621   8.597   9.312
29283WAT      O88090   9.324   6.651   0.747
29283WAT     H188091   9.411   6.681   0.788
29283WAT     H288092   9.310   6.700   0.661
29284WAT      O88093   2.350   0.063   4.024
29284WAT     H188094   2.352   0.080   3.926
29284WAT     H288095   2.405  -0.018   4.045
29285WAT      O88096   9.383   6.619   1.891
29285WAT     H188097   9.359   6.670   1.809
29285WAT     H288098   9.380   6.679   1.970
29286WAT      O88099   9.036   4.782   7.545
29286WAT     H188100   9.072   4.712   7.607
29286WAT     H288101   9.023   4.742   7.454
29287WAT      O88102   6.253   0.818   2.817
29287WAT     H188103   6.286   0.907   2.787
29287WAT     H288104   6.203   0.774   2.742
29288WAT      O88105   4.951   0.065   0.814
29288WAT     H188106   4.903   0.152   0.827
29288WAT     H288107   5.032   0.079   0.757
29289WAT      O88108   7.484   2.336   6.845
29289WAT     H188109   7.568   2.375   6.808
29289WAT     H288110   7.415   2.333   6.772
29290WAT      O88111   9.801   8.442   6.971
29290WAT     H188112   9.782   8.540   6.971
29290WAT     H288113   9.896   8.427   7.000
29291WAT      O88114   0.284   3.256   9.334
29291WAT     H188115   0.330   3.342   9.355
29291WAT     H288116   0.185   3.269   9.344
29292WAT      O88117   5.438   0.428   2.561
29292WAT     H188118   5.416   0.520   2.528
29292WAT     H288119   5.435   0.426   2.661
29293WAT      O88120   9.162   3.690   3.978
29293WAT     H188121   9.175   3.751   3.901
29293WAT     H288122   9.082   3.718   4.031
29294WAT      O88123   4.380   8.670   6.656
29294WAT     H188124   4.415   8.747   6.709
29294WAT     H288125   4.380   8.588   6.712
29295WAT      O88126   5.974   9.571   0.472
29295WAT     H188127   6.017   9.608   0.555
29295WAT     H288128   5.875   9.571   0.483
29296WAT      O88129   4.593   7.614   7.298
29296WAT     H188130   4.560   7.525   7.267
29296WAT     H288131   4.598   7.615   7.398
29297WAT      O88132   3.808   0.473   3.460
29297WAT     H188133   3.851   0.429   3.381
29297WAT     H288134   3.739   0.538   3.428
29298WAT      O88135   9.098   3.829   7.771
29298WAT     H188136   9.132   3.814   7.864
29298WAT     H288137   9.145   3.908   7.730
29299WAT      O88138   9.765   4.183   6.120
29299WAT     H188139   9.693   4.242   6.084
29299WAT     H288140   9.795   4.119   6.050
29300WAT      O88141   2.502   3.779   6.928
29300WAT     H188142   2.552   3.864   6.918
29300WAT     H288143   2.407   3.798   6.952
29301WAT      O88144   7.940   3.950   3.863
29301WAT     H188145   7.949   3.853   3.885
29301WAT     H288146   7.881   3.961   3.782
29302WAT      O88147   6.197   7.504   7.915
29302WAT     H188148   6.235   7.574   7.855
29302WAT     H288149   6.240   7.416   7.894
29303WAT      O88150   3.816   9.393   1.022
29303WAT     H188151   3.844   9.297   1.016
29303WAT     H288152   3.717   9.400   1.011
29304WAT      O88153   0.695   0.036   3.326
29304WAT     H188154   0.602   0.071   3.337
29304WAT     H288155   0.692  -0.063   3.312
29305WAT      O88156   9.290   7.926   8.301
29305WAT     H188157   9.340   7.939   8.387
29305WAT     H288158   9.192   7.938   8.318
29306WAT      O88159   3.787   3.201   1.909
29306WAT     H188160   3.853   3.268   1.875
29306WAT     H288161   3.694   3.237   1.897
29307WAT      O88162   3.782   5.379   0.130
29307WAT     H188163   3.717   5.455   0.133
29307WAT     H288164   3.872   5.413   0.105
29308WAT      O88165   2.159   6.241   7.449
29308WAT     H188166   2.123   6.159   7.492
29308WAT     H288167   2.101   6.266   7.371
29309WAT      O88168   3.130   6.032   3.005
29309WAT     H188169   3.081   5.956   3.049
29309WAT     H288170   3.226   6.008   2.996
29310WAT      O88171   8.663   0.004   8.484
29310WAT     H188172   8.749   0.047   8.510
29310WAT     H288173   8.586   0.059   8.517
29311WAT      O88174   6.531   5.257   2.125
29311WAT     H188175   6.530   5.334   2.188
29311WAT     H288176   6.503   5.174   2.172
29312WAT      O88177   4.013   2.636   6.063
29312WAT     H188178   4.031   2.549   6.017
29312WAT     H288179   3.925   2.631   6.110
29313WAT      O88180   7.056   6.158   6.984
29313WAT     H188181   7.100   6.185   7.069
29313WAT     H288182   6.957   6.163   6.994
29314WAT      O88183   5.710   3.934   9.418
29314WAT     H188184   5.674   3.902   9.506
29314WAT     H288185   5.637   3.930   9.350
29315WAT      O88186   1.329   6.792   8.747
29315WAT     H188187   1.277   6.757   8.669
29315WAT     H288188   1.267   6.806   8.824
29316WAT      O88189   5.117   4.836   7.773
29316WAT     H188190   5.030   4.814   7.730
29316WAT     H288191   5.144   4.761   7.834
29317WAT      O88192   3.246   8.656   4.967
29317WAT     H188193   3.233   8.634   5.064
29317WAT     H288194   3.302   8.738   4.959
29318WAT      O88195   3.979   5.976   1.060
29318WAT     H188196   3.891   5.933   1.081
29318WAT     H288197   4.025   6.001   1.145
29319WAT      O88198   6.835   3.942   9.597
29319WAT     H188199   6.838   3.960   9.498
29319WAT     H288200   6.740   3.936   9.626
29320WAT      O88201   0.018   8.061   0.566
29320WAT     H188202  -0.005   8.015   0.480
29320WAT     H288203   0.106   8.026   0.599
29321WAT      O88204   0.845   3.149   8.975
29321WAT     H188205   0.911   3.135   9.049
29321WAT     H288206   0.783   3.071   8.970
29322WAT      O88207   2.698   6.992   6.414
29322WAT     H188208   2.632   7.040   6.356
29322WAT     H288209   2.710   6.899   6.381
29323WAT      O88210   1.103   7.901   4.781
29323WAT     H188211   1.147   7.904   4.691
29323WAT     H288212   1.141   7.825   4.834
29324WAT      O88213   6.415   1.006   3.033
29324WAT     H188214   6.352   1.029   2.960
29324WAT     H288215   6.367   1.009   3.121
29325WAT      O88216   3.167   7.255   5.886
29325WAT     H188217   3.226   7.183   5.850
29325WAT     H288218   3.176   7.338   5.831
29326WAT      O88219   7.970   4.961   6.758
29326WAT     H188220   8.053   4.906   6.770
29326WAT     H288221   7.919   4.926   6.679
29327WAT      O88222   7.742   6.262   3.358
29327WAT     H188223   7.693   6.341   3.395
29327WAT     H288224   7.799   6.222   3.429
29328WAT      O88225   3.258   7.014   0.947
29328WAT     H188226   3.268   6.934   0.887
29328WAT     H288227   3.221   6.985   1.035
29329WAT      O88228   1.052   8.862   6.081
29329WAT     H188229   1.145   8.884   6.110
29329WAT     H288230   1.015   8.790   6.138
29330WAT      O88231   7.311   1.205   4.812
29330WAT     H188232   7.281   1.118   4.775
29330WAT     H288233   7.288   1.210   4.909
29331WAT      O88234   3.295   7.111   2.872
29331WAT     H188235   3.209   7.097   2.824
29331WAT     H288236   3.293   7.066   2.961
29332WAT      O88237   6.949   0.213   0.666
29332WAT     H188238   6.870   0.153   0.666
29332WAT     H288239   6.936   0.287   0.731
29333WAT      O88240   4.877   9.445   4.029
29333WAT     H188241   4.779   9.462   4.018
29333WAT     H288242   4.900   9.355   3.991
29334WAT      O88243   8.215   2.955   6.070
29334WAT     H188244   8.156   2.876   6.049
29334WAT     H288245   8.158   3.034   6.092
29335WAT      O88246   7.488   2.779   5.252
29335WAT     H188247   7.443   2.695   5.221
29335WAT     H288248   7.464   2.795   5.348
29336WAT      O88249   8.149   8.506   3.274
29336WAT     H188250   8.093   8.559   3.338
29336WAT     H288251   8.186   8.426   3.321
29337WAT      O88252   2.070   2.166   3.078
29337WAT     H188253   2.088   2.068   3.080
29337WAT     H288254   2.157   2.215   3.071
29338WAT      O88255   4.033   9.715   5.189
29338WAT     H188256   4.082   9.628   5.188
29338WAT     H288257   3.934   9.697   5.189
29339WAT      O88258   9.655   2.060   6.560
29339WAT     H188259   9.671   2.107   6.473
29339WAT     H288260   9.557   2.038   6.568
29340WAT      O88261   0.076   6.633   7.985
29340WAT     H188262   0.064   6.685   7.901
29340WAT     H288263   0.173   6.610   7.996
29341WAT      O88264   8.927   8.201   4.630
29341WAT     H188265   8.921   8.210   4.730
29341WAT     H288266   9.020   8.220   4.600
29342WAT      O88267   5.517   7.191   7.568
29342WAT     H188268   5.552   7.103   7.537
29342WAT     H288269   5.588   7.261   7.559
29343WAT      O88270   0.897   6.515   3.546
29343WAT     H188271   0.948   6.598   3.570
29343WAT     H288272   0.821   6.503   3.611
29344WAT      O88273   5.800   1.680   3.016
29344WAT     H188274   5.747   1.680   3.100
29344WAT     H288275   5.859   1.760   3.013
29345WAT      O88276   3.379   5.453   8.413
29345WAT     H188277   3.284   5.476   8.434
29345WAT     H288278   3.439   5.527   8.444
29346WAT      O88279   9.389   6.553   7.286
29346WAT     H188280   9.303   6.502   7.281
29346WAT     H288281   9.442   6.538   7.202
29347WAT      O88282   8.537   1.512   3.617
29347WAT     H188283   8.550   1.471   3.708
29347WAT     H288284   8.617   1.492   3.560
29348WAT      O88285   6.184   7.588   6.722
29348WAT     H188286   6.242   7.548   6.792
29348WAT     H288287   6.144   7.673   6.756
29349WAT      O88288   8.359   4.989   5.027
29349WAT     H188289   8.297   5.036   5.090
29349WAT     H288290   8.332   4.893   5.019
29350WAT      O88291   1.879   2.918   8.166
29350WAT     H188292   1.843   2.925   8.259
29350WAT     H288293   1.812   2.954   8.101
29351WAT      O88294   9.033   4.646   7.315
29351WAT     H188295   9.047   4.672   7.219
29351WAT     H288296   9.047   4.548   7.325
29352WAT      O88297   4.354   7.510   7.663
29352WAT     H188298   4.261   7.545   7.657
29352WAT     H288299   4.358   7.434   7.728
29353WAT      O88300   3.062   6.186   3.916
29353WAT     H188301   2.998   6.174   3.840
29353WAT     H288302   3.022   6.250   3.983
29354WAT      O88303   2.734   2.049   6.393
29354WAT     H188304   2.750   2.044   6.492
29354WAT     H288305   2.780   2.130   6.356
29355WAT      O88306   8.655   2.920   8.611
29355WAT     H188307   8.671   2.891   8.706
29355WAT     H288308   8.558   2.914   8.590
29356WAT      O88309   5.934   6.203   7.936
29356WAT     H188310   5.880   6.120   7.921
29356WAT     H288311   6.028   6.179   7.957
29357WAT      O88312   2.897   3.964   5.154
29357WAT     H188313   2.812   3.928   5.194
29357WAT     H288314   2.953   4.005   5.226
29358WAT      O88315   9.826   1.301   0.847
29358WAT     H188316   9.782   1.307   0.757
29358WAT     H288317   9.765   1.338   0.917
29359WAT      O88318   9.165   2.942   6.354
29359WAT     H188319   9.116   3.029   6.363
29359WAT     H288320   9.207   2.937   6.263
29360WAT      O88321   0.450   4.176   7.906
29360WAT     H188322   0.516   4.136   7.842
29360WAT     H288323   0.362   4.187   7.861
29361WAT      O88324   5.924   5.618   6.059
29361WAT     H188325   6.012   5.643   6.100
29361WAT     H288326   5.922   5.521   6.038
29362WAT      O88327   9.714   2.429   8.418
29362WAT     H188328   9.757   2.362   8.479
29362WAT     H288329   9.673   2.502   8.474
29363WAT      O88330   8.233   6.176   8.274
29363WAT     H188331   8.145   6.128   8.278
29363WAT     H288332   8.228   6.248   8.205
29364WAT      O88333   7.897   9.434   0.806
29364WAT     H188334   7.994   9.459   0.800
29364WAT     H288335   7.849   9.469   0.725
29365WAT      O88336   3.226   6.679   8.350
29365WAT     H188337   3.306   6.732   8.324
29365WAT     H288338   3.247   6.581   8.344
29366WAT      O88339   1.601   4.406   5.205
29366WAT     H188340   1.619   4.308   5.206
29366WAT     H288341   1.687   4.456   5.192
29367WAT      O88342   8.959   4.686   3.758
29367WAT     H188343   9.048   4.643   3.769
29367WAT     H288344   8.929   4.723   3.846
29368WAT      O88345   4.567   4.960   2.039
29368WAT     H188346   4.557   4.904   2.121
29368WAT     H288347   4.617   4.909   1.969
29369WAT      O88348   7.697   7.667   4.658
29369WAT     H188349   7.700   7.747   4.599
29369WAT     H288350   7.791   7.638   4.679
29370WAT      O88351   2.845   1.667   0.291
29370WAT     H188352   2.889   1.580   0.312
29370WAT     H288353   2.748   1.661   0.311
29371WAT      O88354   9.107   7.781   3.508
29371WAT     H188355   9.138   7.686   3.507
29371WAT     H288356   9.136   7.824   3.594
29372WAT      O88357   1.045   0.661   9.338
29372WAT     H188358   1.069   0.607   9.258
29372WAT     H288359   1.074   0.613   9.421
29373WAT      O88360   4.255   6.435   1.585
29373WAT     H188361   4.259   6.336   1.569
29373WAT     H288362   4.333   6.479   1.539
29374WAT      O88363   7.155   0.755   5.842
29374WAT     H188364   7.126   0.833   5.786
29374WAT     H288365   7.125   0.670   5.798
29375WAT      O88366   4.461   5.513   9.276
29375WAT     H188367   4.366   5.482   9.287
29375WAT     H288368   4.462   5.610   9.251
29376WAT      O88369   4.614   2.045   9.490
29376WAT     H188370   4.668   1.978   9.541
29376WAT     H288371   4.676   2.114   9.451
29377WAT      O88372   3.587   1.520   9.495
29377WAT     H188373   3.531   1.562   9.566
29377WAT     H288374   3.678   1.562   9.495
29378WAT      O88375   3.633   9.514   2.099
29378WAT     H188376   3.558   9.579   2.105
29378WAT     H288377   3.690   9.522   2.180
29379WAT      O88378   5.975   6.028   0.865
29379WAT     H188379   6.024   6.111   0.837
29379WAT     H288380   6.006   5.951   0.808
29380WAT      O88381   0.393   0.147   0.469
29380WAT     H188382   0.307   0.096   0.475
29380WAT     H288383   0.415   0.165   0.373
29381WAT      O88384   7.640   9.544   4.153
29381WAT     H188385   7.694   9.502   4.080
29381WAT     H288386   7.609   9.634   4.123
29382WAT      O88387   1.599   9.237   7.150
29382WAT     H188388   1.674   9.275   7.204
29382WAT     H288389   1.627   9.232   7.054
29383WAT      O88390   2.455   7.536   2.453
29383WAT     H188391   2.454   7.499   2.546
29383WAT     H288392   2.548   7.530   2.416
29384WAT      O88393   3.414   8.434   4.586
29384WAT     H188394   3.444   8.491   4.663
29384WAT     H288395   3.314   8.428   4.587
29385WAT      O88396   6.420   4.465   9.152
29385WAT     H188397   6.501   4.408   9.131
29385WAT     H288398   6.339   4.407   9.153
29386WAT      O88399   7.759   5.330   6.472
29386WAT     H188400   7.805   5.241   6.481
29386WAT     H288401   7.811   5.399   6.522
29387WAT      O88402   2.419   0.707   3.299
29387WAT     H188403   2.500   0.750   3.261
29387WAT     H288404   2.346   0.775   3.307
29388WAT      O88405   6.997   9.410   5.318
29388WAT     H188406   6.912   9.370   5.282
29388WAT     H288407   6.975   9.485   5.381
29389WAT      O88408   0.236   0.784   5.646
29389WAT     H188409   0.160   0.820   5.593
29389WAT     H288410   0.322   0.801   5.598
29390WAT      O88411   7.768   8.190   7.872
29390WAT     H188412   7.769   8.135   7.955
29390WAT     H288413   7.795   8.284   7.895
29391WAT      O88414   1.032   7.713   7.263
29391WAT     H188415   0.937   7.707   7.232
29391WAT     H288416   1.059   7.809   7.268
29392WAT      O88417   3.110   4.196   7.883
29392WAT     H188418   3.185   4.258   7.905
29392WAT     H288419   3.106   4.123   7.951
29393WAT      O88420   6.870   5.521   1.746
29393WAT     H188421   6.901   5.459   1.817
29393WAT     H288422   6.918   5.500   1.660
29394WAT      O88423   1.113   6.061   9.104
29394WAT     H188424   1.171   5.991   9.146
29394WAT     H288425   1.055   6.018   9.034
29395WAT      O88426   7.527   9.800   2.426
29395WAT     H188427   7.509   9.773   2.332
29395WAT     H288428   7.581   9.884   2.428
29396WAT      O88429   8.536   2.176   3.177
29396WAT     H188430   8.627   2.141   3.199
29396WAT     H288431   8.541   2.238   3.098
29397WAT      O88432   1.387   7.401   6.786
29397WAT     H188433   1.391   7.474   6.855
29397WAT     H288434   1.439   7.428   6.705
29398WAT      O88435   0.955   1.796   4.995
29398WAT     H188436   0.960   1.877   5.053
29398WAT     H288437   0.868   1.795   4.946
29399WAT      O88438   7.046   8.002   6.288
29399WAT     H188439   7.075   7.907   6.299
29399WAT     H288440   7.002   8.034   6.372
29400WAT      O88441   5.971   2.916   5.121
29400WAT     H188442   5.895   2.888   5.179
29400WAT     H288443   5.936   2.976   5.048
29401WAT      O88444   3.004   2.896   4.261
29401WAT     H188445   2.912   2.882   4.223
29401WAT     H288446   3.015   2.991   4.289
29402WAT      O88447   3.210   3.500   8.068
29402WAT     H188448   3.261   3.548   7.997
29402WAT     H288449   3.212   3.553   8.153
29403WAT      O88450   9.110   5.239   5.561
29403WAT     H188451   9.164   5.292   5.626
29403WAT     H288452   9.105   5.289   5.474
29404WAT      O88453   2.610   4.025   6.845
29404WAT     H188454   2.679   4.043   6.915
29404WAT     H288455   2.563   4.110   6.823
29405WAT      O88456   2.814   3.626   5.120
29405WAT     H188457   2.765   3.682   5.187
29405WAT     H288458   2.819   3.532   5.152
29406WAT      O88459   7.202   9.474   2.562
29406WAT     H188460   7.207   9.573   2.547
29406WAT     H288461   7.153   9.455   2.647
29407WAT      O88462   8.857   1.907   9.703
29407WAT     H188463   8.814   1.990   9.740
29407WAT     H288464   8.795   1.863   9.639
29408WAT      O88465   0.087   7.750   8.872
29408WAT     H188466   0.179   7.713   8.862
29408WAT     H288467   0.064   7.804   8.791
29409WAT      O88468   4.442   2.767   5.376
29409WAT     H188469   4.400   2.695   5.432
29409WAT     H288470   4.517   2.729   5.322
29410WAT      O88471   2.065   0.830   4.111
29410WAT     H188472   2.127   0.889   4.163
29410WAT     H288473   1.986   0.806   4.168
29411WAT      O88474   9.785   9.656   0.107
29411WAT     H188475   9.828   9.686   0.022
29411WAT     H288476   9.710   9.593   0.087
29412WAT      O88477   6.719   7.170   7.471
29412WAT     H188478   6.726   7.246   7.536
29412WAT     H288479   6.623   7.149   7.454
29413WAT      O88480   5.962   5.767   0.015
29413WAT     H188481   5.966   5.690   0.079
29413WAT     H288482   5.957   5.732  -0.079
29414WAT      O88483   1.843   4.869   4.345
29414WAT     H188484   1.801   4.943   4.397
29414WAT     H288485   1.847   4.787   4.402
29415WAT      O88486   6.248   6.522   8.579
29415WAT     H188487   6.161   6.480   8.601
29415WAT     H288488   6.266   6.598   8.641
29416WAT      O88489   5.440   1.616   4.307
29416WAT     H188490   5.441   1.598   4.209
29416WAT     H288491   5.511   1.683   4.329
29417WAT      O88492   5.004   0.172   7.589
29417WAT     H188493   5.071   0.113   7.633
29417WAT     H288494   4.926   0.186   7.650
29418WAT      O88495   2.124   4.441   6.528
29418WAT     H188496   2.213   4.398   6.510
29418WAT     H288497   2.080   4.394   6.605
29419WAT      O88498   4.988   5.154   0.453
29419WAT     H188499   5.083   5.182   0.460
29419WAT     H288500   4.970   5.080   0.519
29420WAT      O88501   9.058   5.386   2.845
29420WAT     H188502   9.110   5.421   2.766
29420WAT     H288503   9.104   5.306   2.881
29421WAT      O88504   7.880   0.429   7.311
29421WAT     H188505   7.867   0.523   7.278
29421WAT     H288506   7.976   0.414   7.333
29422WAT      O88507   8.305   5.579   0.285
29422WAT     H188508   8.303   5.513   0.210
29422WAT     H288509   8.215   5.622   0.293
29423WAT      O88510   9.601   8.761   4.239
29423WAT     H188511   9.543   8.829   4.284
29423WAT     H288512   9.544   8.684   4.210
29424WAT      O88513   8.399   1.394   5.569
29424WAT     H188514   8.467   1.321   5.571
29424WAT     H288515   8.354   1.400   5.659
29425WAT      O88516   9.207   2.653   5.869
29425WAT     H188517   9.188   2.571   5.814
29425WAT     H288518   9.172   2.639   5.961
29426WAT      O88519   9.697   9.653   1.448
29426WAT     H188520   9.616   9.710   1.460
29426WAT     H288521   9.700   9.583   1.519
29427WAT      O88522   1.046   1.469   5.388
29427WAT     H188523   1.137   1.493   5.354
29427WAT     H288524   1.001   1.408   5.323
29428WAT      O88525   1.200   5.867   8.494
29428WAT     H188526   1.268   5.814   8.445
29428WAT     H288527   1.120   5.882   8.435
29429WAT      O88528   7.335   4.186   1.129
29429WAT     H188529   7.320   4.107   1.070
29429WAT     H288530   7.404   4.164   1.198
29430WAT      O88531   8.469   4.310   4.898
29430WAT     H188532   8.438   4.404   4.911
29430WAT     H288533   8.402   4.247   4.936
29431WAT      O88534   8.278   9.194   6.660
29431WAT     H188535   8.372   9.167   6.681
29431WAT     H288536   8.280   9.275   6.600
29432WAT      O88537   1.358   7.847   6.396
29432WAT     H188538   1.319   7.927   6.351
29432WAT     H288539   1.338   7.851   6.494
29433WAT      O88540   3.768   9.463   4.040
29433WAT     H188541   3.789   9.404   4.118
29433WAT     H288542   3.670   9.479   4.037
29434WAT      O88543   8.479   3.411   0.544
29434WAT     H188544   8.571   3.373   0.536
29434WAT     H288545   8.483   3.511   0.539
29435WAT      O88546   3.147   2.377   7.413
29435WAT     H188547   3.215   2.335   7.353
29435WAT     H288548   3.157   2.476   7.410
29436WAT      O88549   5.961   2.569   1.550
29436WAT     H188550   5.867   2.594   1.526
29436WAT     H288551   5.972   2.574   1.650
29437WAT      O88552   9.220   3.149   5.599
29437WAT     H188553   9.165   3.068   5.580
29437WAT     H288554   9.267   3.177   5.515
29438WAT      O88555   7.165   9.519   6.269
29438WAT     H188556   7.138   9.529   6.173
29438WAT     H288557   7.264   9.508   6.274
29439WAT      O88558   4.802   7.881   9.467
29439WAT     H188559   4.820   7.943   9.542
29439WAT     H288560   4.826   7.925   9.380
29440WAT      O88561   7.969   1.794   0.809
29440WAT     H188562   7.941   1.752   0.722
29440WAT     H288563   8.042   1.859   0.792
29441WAT      O88564   9.678   1.012   4.497
29441WAT     H188565   9.683   0.933   4.437
29441WAT     H288566   9.765   1.026   4.543
29442WAT      O88567   7.247   9.367   2.303
29442WAT     H188568   7.205   9.392   2.391
29442WAT     H288569   7.202   9.419   2.230
29443WAT      O88570   3.346   5.435   6.201
29443WAT     H188571   3.386   5.504   6.261
29443WAT     H288572   3.404   5.354   6.201
29444WAT      O88573   0.057   9.821   3.064
29444WAT     H188574  -0.030   9.814   3.015
29444WAT     H288575   0.068   9.742   3.124
29445WAT      O88576   7.448   4.007   1.554
29445WAT     H188577   7.348   4.010   1.561
29445WAT     H288578   7.482   3.928   1.605
29446WAT      O88579   0.618   0.051   4.478
29446WAT     H188580   0.681   0.081   4.549
29446WAT     H288581   0.588  -0.043   4.497
29447WAT      O88582   5.563   2.704   6.585
29447WAT     H188583   5.512   2.675   6.505
29447WAT     H288584   5.519   2.669   6.668
29448WAT      O88585   6.158   6.792   3.184
29448WAT     H188586   6.117   6.719   3.237
29448WAT     H288587   6.208   6.854   3.245
29449WAT      O88588   3.182   6.340   1.966
29449WAT     H188589   3.191   6.369   2.061
29449WAT     H288590   3.087   6.351   1.936
29450WAT      O88591   0.541   1.472   1.979
29450WAT     H188592   0.609   1.471   1.906
29450WAT     H288593   0.449   1.481   1.938
29451WAT      O88594   2.215   1.936   3.028
29451WAT     H188595   2.194   1.875   2.951
29451WAT     H288596   2.237   1.881   3.109
29452WAT      O88597   7.040   0.196   2.806
29452WAT     H188598   6.959   0.253   2.790
29452WAT     H288599   7.084   0.224   2.891
29453WAT      O88600   8.737   1.581   7.308
29453WAT     H188601   8.715   1.501   7.252
29453WAT     H288602   8.815   1.629   7.268
29454WAT      O88603   9.444   2.463   5.345
29454WAT     H188604   9.402   2.454   5.255
29454WAT     H288605   9.520   2.528   5.340
29455WAT      O88606   1.424   6.502   2.243
29455WAT     H188607   1.489   6.505   2.167
29455WAT     H288608   1.434   6.415   2.291
29456WAT      O88609   5.606   9.302   1.131
29456WAT     H188610   5.705   9.287   1.123
29456WAT     H288611   5.558   9.238   1.071
29457WAT      O88612   5.658   3.272   7.291
29457WAT     H188613   5.623   3.364   7.306
29457WAT     H288614   5.651   3.249   7.194
29458WAT      O88615   4.082   6.182   8.195
29458WAT     H188616   4.100   6.172   8.097
29458WAT     H288617   4.151   6.131   8.247
29459WAT      O88618   0.868   3.659   3.601
29459WAT     H188619   0.844   3.565   3.626
29459WAT     H288620   0.871   3.716   3.683
29460WAT      O88621   4.667   0.301   3.090
29460WAT     H188622   4.630   0.281   2.999
29460WAT     H288623   4.596   0.342   3.146
29461WAT      O88624   1.436   5.345   5.952
29461WAT     H188625   1.521   5.293   5.956
29461WAT     H288626   1.425   5.398   6.037
29462WAT      O88627   8.846   0.573   3.885
29462WAT     H188628   8.946   0.575   3.894
29462WAT     H288629   8.819   0.633   3.810
29463WAT      O88630   9.371   0.996   4.498
29463WAT     H188631   9.469   0.984   4.483
29463WAT     H288632   9.324   0.994   4.410
29464WAT      O88633   6.992   6.992   4.431
29464WAT     H188634   7.041   6.968   4.348
29464WAT     H288635   6.895   7.004   4.410
29465WAT      O88636   9.844   4.349   0.983
29465WAT     H188637   9.828   4.429   0.925
29465WAT     H288638   9.827   4.373   1.079
29466WAT      O88639   1.660   0.652   9.712
29466WAT     H188640   1.743   0.618   9.756
29466WAT     H288641   1.657   0.751   9.719
29467WAT      O88642   4.064   8.505   2.715
29467WAT     H188643   4.112   8.588   2.746
29467WAT     H288644   4.084   8.430   2.779
29468WAT      O88645   3.865   8.893   8.353
29468WAT     H188646   3.945   8.894   8.293
29468WAT     H288647   3.833   8.987   8.368
29469WAT      O88648   7.650   1.862   3.884
29469WAT     H188649   7.559   1.904   3.878
29469WAT     H288650   7.719   1.927   3.855
29470WAT      O88651   2.308   6.707   3.589
29470WAT     H188652   2.400   6.736   3.614
29470WAT     H288653   2.241   6.754   3.647
29471WAT      O88654   1.597   5.011   4.856
29471WAT     H188655   1.573   5.081   4.788
29471WAT     H288656   1.625   5.055   4.941
29472WAT      O88657   6.105   7.744   5.349
29472WAT     H188658   6.060   7.773   5.264
29472WAT     H288659   6.044   7.682   5.399
29473WAT      O88660   9.867   4.569   5.121
29473WAT     H188661   9.910   4.559   5.032
29473WAT     H288662   9.794   4.501   5.131
29474WAT      O88663   4.831   2.666   4.623
29474WAT     H188664   4.898   2.732   4.589
29474WAT     H288665   4.839   2.580   4.571
29475WAT      O88666   7.702   3.471   0.268
29475WAT     H188667   7.610   3.506   0.285
29475WAT     H288668   7.713   3.450   0.171
29476WAT      O88669   6.409   3.357   7.396
29476WAT     H188670   6.505   3.333   7.413
29476WAT     H288671   6.364   3.376   7.483
29477WAT      O88672   1.497   9.615   8.469
29477WAT     H188673   1.415   9.590   8.417
29477WAT     H288674   1.517   9.542   8.534
29478WAT      O88675   8.905   1.613   6.579
29478WAT     H188676   8.864   1.526   6.554
29478WAT     H288677   8.844   1.688   6.552
29479WAT      O88678   2.836   4.497   2.817
29479WAT     H188679   2.820   4.398   2.814
29479WAT     H288680   2.932   4.516   2.800
29480WAT      O88681   1.163   9.738   2.372
29480WAT     H188682   1.249   9.775   2.409
29480WAT     H288683   1.138   9.788   2.289
29481WAT      O88684   4.800   5.701   5.896
29481WAT     H188685   4.832   5.757   5.973
29481WAT     H288686   4.785   5.607   5.926
29482WAT      O88687   3.349   7.782   7.131
29482WAT     H188688   3.412   7.728   7.186
29482WAT     H288689   3.384   7.789   7.037
29483WAT      O88690   1.576   6.864   8.619
29483WAT     H188691   1.655   6.839   8.675
29483WAT     H288692   1.492   6.833   8.664
29484WAT      O88693   4.977   8.078   0.355
29484WAT     H188694   5.045   8.146   0.382
29484WAT     H288695   4.986   7.997   0.412
29485WAT      O88696   9.591   4.076   5.056
29485WAT     H188697   9.620   4.171   5.043
29485WAT     H288698   9.528   4.050   4.983
29486WAT      O88699   5.728   0.648   6.299
29486WAT     H188700   5.689   0.688   6.382
29486WAT     H288701   5.814   0.602   6.322
29487WAT      O88702   5.240   6.502   1.265
29487WAT     H188703   5.321   6.461   1.223
29487WAT     H288704   5.267   6.578   1.324
29488WAT      O88705   2.816   3.573   5.596
29488WAT     H188706   2.755   3.630   5.542
29488WAT     H288707   2.908   3.611   5.593
29489WAT      O88708   8.824   0.967   3.977
29489WAT     H188709   8.856   1.032   4.046
29489WAT     H288710   8.868   0.878   3.993
29490WAT      O88711   7.020   1.285   6.946
29490WAT     H188712   7.093   1.217   6.943
29490WAT     H288713   7.017   1.336   6.860
29491WAT      O88714   0.863   6.081   3.446
29491WAT     H188715   0.828   6.073   3.353
29491WAT     H288716   0.819   6.158   3.493
29492WAT      O88717   9.688   7.474   3.156
29492WAT     H188718   9.697   7.462   3.057
29492WAT     H288719   9.768   7.435   3.202
29493WAT      O88720   5.595   2.230   2.239
29493WAT     H188721   5.610   2.164   2.312
29493WAT     H288722   5.681   2.275   2.216
29494WAT      O88723   4.202   6.152   6.786
29494WAT     H188724   4.125   6.093   6.812
29494WAT     H288725   4.179   6.247   6.808
29495WAT      O88726   1.215   0.248   8.496
29495WAT     H188727   1.225   0.150   8.477
29495WAT     H288728   1.121   0.276   8.476
29496WAT      O88729   5.343   5.194   2.626
29496WAT     H188730   5.347   5.185   2.726
29496WAT     H288731   5.281   5.124   2.589
29497WAT      O88732   2.579   3.158   9.810
29497WAT     H188733   2.601   3.248   9.850
29497WAT     H288734   2.501   3.118   9.859
29498WAT      O88735   8.182   6.182   1.374
29498WAT     H188736   8.260   6.205   1.433
29498WAT     H288737   8.110   6.250   1.388
29499WAT      O88738   9.136   4.127   5.578
29499WAT     H188739   9.075   4.053   5.553
29499WAT     H288740   9.151   4.188   5.500
29500WAT      O88741   2.986   3.124   7.073
29500WAT     H188742   3.026   3.208   7.037
29500WAT     H288743   3.057   3.053   7.078
29501WAT      O88744   1.022   9.393   3.997
29501WAT     H188745   1.052   9.485   4.024
29501WAT     H288746   1.100   9.330   3.999
29502WAT      O88747   6.952   5.394   9.880
29502WAT     H188748   6.925   5.390   9.976
29502WAT     H288749   6.958   5.301   9.843
29503WAT      O88750   8.734   7.460   3.731
29503WAT     H188751   8.769   7.551   3.753
29503WAT     H288752   8.747   7.443   3.633
29504WAT      O88753   5.416   0.105   5.745
29504WAT     H188754   5.359   0.032   5.783
29504WAT     H288755   5.377   0.138   5.659
29505WAT      O88756   8.975   1.427   2.893
29505WAT     H188757   8.915   1.488   2.843
29505WAT     H288758   8.952   1.332   2.871
29506WAT      O88759   4.229   9.569   7.761
29506WAT     H188760   4.134   9.588   7.787
29506WAT     H288761   4.286   9.647   7.785
29507WAT      O88762   8.833   6.697   7.773
29507WAT     H188763   8.884   6.746   7.843
29507WAT     H288764   8.787   6.618   7.815
29508WAT      O88765   9.686   5.134   6.292
29508WAT     H188766   9.750   5.156   6.218
29508WAT     H288767   9.709   5.044   6.330
29509WAT      O88768   5.189   0.057   3.246
29509WAT     H188769   5.169   0.152   3.222
29509WAT     H288770   5.242   0.054   3.330
29510WAT      O88771   4.951   5.642   5.681
29510WAT     H188772   4.886   5.690   5.740
29510WAT     H288773   4.951   5.683   5.590
29511WAT      O88774   6.298   4.743   4.401
29511WAT     H188775   6.286   4.659   4.348
29511WAT     H288776   6.227   4.809   4.374
29512WAT      O88777   4.095   9.131   8.776
29512WAT     H188778   4.048   9.216   8.751
29512WAT     H288779   4.099   9.122   8.875
29513WAT      O88780   5.771   5.596   6.318
29513WAT     H188781   5.677   5.631   6.316
29513WAT     H288782   5.801   5.577   6.225
29514WAT      O88783   1.747   6.693   6.900
29514WAT     H188784   1.769   6.776   6.952
29514WAT     H288785   1.758   6.712   6.802
29515WAT      O88786   3.288   2.411   7.638
29515WAT     H188787   3.233   2.388   7.558
29515WAT     H288788   3.234   2.465   7.702
29516WAT      O88789   7.544   0.064   4.356
29516WAT     H188790   7.597   0.148   4.352
29516WAT     H288791   7.454   0.082   4.396
29517WAT      O88792   0.314   5.119   5.759
29517WAT     H188793   0.399   5.168   5.782
29517WAT     H288794   0.336   5.028   5.726
29518WAT      O88795   8.205   7.355   2.084
29518WAT     H188796   8.137   7.283   2.068
29518WAT     H288797   8.279   7.319   2.141
29519WAT      O88798   1.309   1.498   0.582
29519WAT     H188799   1.305   1.528   0.678
29519WAT     H288800   1.219   1.511   0.540
29520WAT      O88801   0.010   8.283   0.727
29520WAT     H188802  -0.089   8.277   0.722
29520WAT     H288803   0.051   8.236   0.649
29521WAT      O88804   4.000   6.927   4.985
29521WAT     H188805   4.020   7.001   4.921
29521WAT     H288806   3.966   6.965   5.071
29522WAT      O88807   7.015   1.118   3.179
29522WAT     H188808   7.065   1.141   3.095
29522WAT     H288809   6.980   1.202   3.220
29523WAT      O88810   2.705   3.723   4.703
29523WAT     H188811   2.614   3.758   4.724
29523WAT     H288812   2.708   3.692   4.608
29524WAT      O88813   6.175   8.849   8.362
29524WAT     H188814   6.076   8.835   8.362
29524WAT     H288815   6.219   8.775   8.311
29525WAT      O88816   2.812   8.836   1.850
29525WAT     H188817   2.715   8.859   1.843
29525WAT     H288818   2.865   8.898   1.792
29526WAT      O88819   2.880   1.007   9.290
29526WAT     H188820   2.850   0.920   9.331
29526WAT     H288821   2.959   0.990   9.231
29527WAT      O88822   1.391   2.413   1.358
29527WAT     H188823   1.407   2.421   1.456
29527WAT     H288824   1.293   2.420   1.340
29528WAT      O88825   1.554   0.796   8.551
29528WAT     H188826   1.480   0.794   8.619
29528WAT     H288827   1.563   0.706   8.509
29529WAT      O88828   4.728   9.695   4.155
29529WAT     H188829   4.640   9.648   4.151
29529WAT     H288830   4.734   9.762   4.082
29530WAT      O88831   5.754   1.536   2.268
29530WAT     H188832   5.716   1.580   2.187
29530WAT     H288833   5.808   1.602   2.320
29531WAT      O88834   1.925   1.119   8.889
29531WAT     H188835   1.847   1.114   8.827
29531WAT     H288836   1.901   1.174   8.969
29532WAT      O88837   8.790   0.736   3.426
29532WAT     H188838   8.766   0.785   3.342
29532WAT     H288839   8.855   0.663   3.405
29533WAT      O88840   7.940   3.346   6.466
29533WAT     H188841   7.861   3.350   6.527
29533WAT     H288842   8.014   3.402   6.504
29534WAT      O88843   7.831   2.831   0.709
29534WAT     H188844   7.907   2.819   0.645
29534WAT     H288845   7.862   2.886   0.787
29535WAT      O88846   2.617   9.283   7.157
29535WAT     H188847   2.590   9.186   7.161
29535WAT     H288848   2.666   9.301   7.072
29536WAT      O88849   5.934   9.499   4.141
29536WAT     H188850   5.849   9.533   4.102
29536WAT     H288851   5.996   9.470   4.067
29537WAT      O88852   0.822   2.957   1.666
29537WAT     H188853   0.753   2.885   1.661
29537WAT     H288854   0.828   2.992   1.759
29538WAT      O88855   5.549   0.511   1.705
29538WAT     H188856   5.469   0.530   1.648
29538WAT     H288857   5.575   0.593   1.755
29539WAT      O88858   7.818   9.590   5.339
29539WAT     H188859   7.851   9.496   5.324
29539WAT     H288860   7.825   9.612   5.436
29540WAT      O88861   8.271   3.723   0.782
29540WAT     H188862   8.210   3.801   0.768
29540WAT     H288863   8.263   3.693   0.877
29541WAT      O88864   0.539   0.650   7.461
29541WAT     H188865   0.506   0.556   7.468
29541WAT     H288866   0.590   0.673   7.544
29542WAT      O88867   8.530   0.144   4.649
29542WAT     H188868   8.524   0.153   4.748
29542WAT     H288869   8.577   0.223   4.610
29543WAT      O88870   8.444   5.670   0.058
29543WAT     H188871   8.388   5.646   0.137
29543WAT     H288872   8.387   5.675  -0.024
29544WAT      O88873   9.159   1.051   2.974
29544WAT     H188874   9.213   1.097   2.903
29544WAT     H288875   9.190   1.080   3.064
29545WAT      O88876   2.103   2.409   3.725
29545WAT     H188877   2.033   2.388   3.657
29545WAT     H288878   2.136   2.325   3.767
29546WAT      O88879   7.784   1.013   0.845
29546WAT     H188880   7.796   1.068   0.762
29546WAT     H288881   7.859   1.032   0.908
29547WAT      O88882   0.119   1.113   5.503
29547WAT     H188883   0.088   1.019   5.495
29547WAT     H288884   0.200   1.128   5.446
29548WAT      O88885   3.478   8.855   0.669
29548WAT     H188886   3.496   8.894   0.759
29548WAT     H288887   3.473   8.756   0.676
29549WAT      O88888   1.746   4.000   0.866
29549WAT     H188889   1.700   3.932   0.923
29549WAT     H288890   1.691   4.083   0.862
29550WAT      O88891   7.575   3.889   7.920
29550WAT     H188892   7.626   3.964   7.963
29550WAT     H288893   7.491   3.925   7.881
29551WAT      O88894   6.911   0.885   4.417
29551WAT     H188895   6.934   0.962   4.476
29551WAT     H288896   6.819   0.852   4.439
29552WAT      O88897   9.210   0.939   3.478
29552WAT     H188898   9.149   0.895   3.412
29552WAT     H288899   9.253   1.019   3.435
29553WAT      O88900   3.506   6.485   6.347
29553WAT     H188901   3.550   6.559   6.398
29553WAT     H288902   3.562   6.402   6.354
29554WAT      O88903   9.879   3.461   0.197
29554WAT     H188904   9.888   3.552   0.156
29554WAT     H288905   9.925   3.460   0.286
29555WAT      O88906   8.776   8.638   4.452
29555WAT     H188907   8.708   8.679   4.513
29555WAT     H288908   8.773   8.539   4.459
29556WAT      O88909   5.345   6.153   9.650
29556WAT     H188910   5.273   6.223   9.647
29556WAT     H288911   5.410   6.169   9.575
29557WAT      O88912   7.659   2.036   0.776
29557WAT     H188913   7.656   2.068   0.681
29557WAT     H288914   7.569   2.045   0.817
29558WAT      O88915   6.449   6.443   3.307
29558WAT     H188916   6.468   6.363   3.364
29558WAT     H288917   6.363   6.430   3.259
29559WAT      O88918   3.564   4.038   6.473
29559WAT     H188919   3.566   4.052   6.374
29559WAT     H288920   3.479   3.994   6.499
29560WAT      O88921   5.763   6.700   7.112
29560WAT     H188922   5.666   6.717   7.127
29560WAT     H288923   5.783   6.699   7.014
29561WAT      O88924   8.346   2.386   2.200
29561WAT     H188925   8.308   2.315   2.141
29561WAT     H288926   8.373   2.464   2.145
29562WAT      O88927   9.111   0.171   5.158
29562WAT     H188928   9.199   0.126   5.176
29562WAT     H288929   9.079   0.146   5.067
29563WAT      O88930   3.060   1.424   9.700
29563WAT     H188931   3.115   1.427   9.616
29563WAT     H288932   2.970   1.385   9.679
29564WAT      O88933   1.832   6.745   7.269
29564WAT     H188934   1.799   6.770   7.178
29564WAT     H288935   1.861   6.828   7.317
29565WAT      O88936   3.377   4.065   1.084
29565WAT     H188937   3.460   4.042   1.033
29565WAT     H288938   3.342   3.984   1.129
29566WAT      O88939   0.661   1.878   0.269
29566WAT     H188940   0.669   1.831   0.181
29566WAT     H288941   0.565   1.903   0.285
29567WAT      O88942   7.258   0.199   9.637
29567WAT     H188943   7.320   0.269   9.672
29567WAT     H288944   7.242   0.130   9.708
29568WAT      O88945   2.671   4.245   1.715
29568WAT     H188946   2.677   4.146   1.707
29568WAT     H288947   2.579   4.275   1.689
29569WAT      O88948   6.500   6.498   8.343
29569WAT     H188949   6.418   6.502   8.286
29569WAT     H288950   6.484   6.436   8.420
29570WAT      O88951   4.506   9.740   2.822
29570WAT     H188952   4.599   9.755   2.790
29570WAT     H288953   4.447   9.813   2.788
29571WAT      O88954   7.106   4.128   5.013
29571WAT     H188955   7.066   4.060   4.951
29571WAT     H288956   7.193   4.160   4.976
29572WAT      O88957   2.458   9.276   3.341
29572WAT     H188958   2.394   9.206   3.373
29572WAT     H288959   2.409   9.363   3.329
29573WAT      O88960   2.817   1.065   0.648
29573WAT     H188961   2.840   1.068   0.550
29573WAT     H288962   2.782   1.153   0.677
29574WAT      O88963   3.466   7.777   0.600
29574WAT     H188964   3.559   7.741   0.608
29574WAT     H288965   3.449   7.802   0.504
29575WAT      O88966   0.779   2.596   5.302
29575WAT     H188967   0.862   2.625   5.254
29575WAT     H288968   0.711   2.564   5.236
29576WAT      O88969   7.685   1.241   1.252
29576WAT     H188970   7.626   1.278   1.180
29576WAT     H288971   7.643   1.158   1.290
29577WAT      O88972   5.630   2.376   0.438
29577WAT     H188973   5.592   2.448   0.380
29577WAT     H288974   5.609   2.396   0.534
29578WAT      O88975   2.919   6.952   4.964
29578WAT     H188976   2.934   7.018   4.890
29578WAT     H288977   2.890   6.865   4.926
29579WAT      O88978   9.717   2.314   1.765
29579WAT     H188979   9.761   2.305   1.675
29579WAT     H288980   9.784   2.292   1.836
29580WAT      O88981   7.447   6.708   3.130
29580WAT     H188982   7.368   6.750   3.087
29580WAT     H288983   7.449   6.610   3.109
29581WAT      O88984   2.344   7.409   4.884
29581WAT     H188985   2.362   7.504   4.911
29581WAT     H288986   2.429   7.367   4.852
29582WAT      O88987   5.398   6.355   3.521
29582WAT     H188988   5.473   6.356   3.587
29582WAT     H288989   5.311   6.357   3.570
29583WAT      O88990   2.947   8.483   0.105
29583WAT     H188991   2.966   8.581   0.098
29583WAT     H288992   3.033   8.431   0.098
29584WAT      O88993   4.159   2.279   6.202
29584WAT     H188994   4.244   2.289   6.150
29584WAT     H288995   4.151   2.186   6.237
29585WAT      O88996   5.794   6.430   5.434
29585WAT     H188997   5.780   6.360   5.364
29585WAT     H288998   5.712   6.437   5.490
29586WAT      O88999   6.199   1.264   1.226
29586WAT     H189000   6.122   1.263   1.162
29586WAT     H289001   6.175   1.318   1.307
29587WAT      O89002   1.251   1.905   2.002
29587WAT     H189003   1.228   1.818   2.046
29587WAT     H289004   1.253   1.891   1.902
29588WAT      O89005   5.352   2.956   8.359
29588WAT     H189006   5.326   2.967   8.264
29588WAT     H289007   5.306   2.875   8.397
29589WAT      O89008   8.652   0.635   3.053
29589WAT     H189009   8.659   0.691   3.136
29589WAT     H289010   8.668   0.693   2.973
29590WAT      O89011   5.785   5.121   9.144
29590WAT     H189012   5.712   5.188   9.160
29590WAT     H289013   5.778   5.086   9.051
29591WAT      O89014   7.692   0.262   0.491
29591WAT     H189015   7.643   0.347   0.474
29591WAT     H289016   7.788   0.281   0.512
29592WAT      O89017   8.081   8.810   3.001
29592WAT     H189018   8.104   8.886   3.062
29592WAT     H289019   8.134   8.818   2.916
29593WAT      O89020   1.720   3.352   2.850
29593WAT     H189021   1.745   3.277   2.790
29593WAT     H289022   1.793   3.366   2.918
29594WAT      O89023   9.618   5.133   3.628
29594WAT     H189024   9.683   5.205   3.606
29594WAT     H289025   9.582   5.147   3.720
29595WAT      O89026   3.627   7.628   1.450
29595WAT     H189027   3.547   7.614   1.391
29595WAT     H289028   3.706   7.652   1.394
29596WAT      O89029   5.765   5.233   6.255
29596WAT     H189030   5.853   5.186   6.246
29596WAT     H289031   5.771   5.299   6.331
29597WAT      O89032   9.430   3.548   5.844
29597WAT     H189033   9.418   3.486   5.766
29597WAT     H289034   9.466   3.635   5.812
29598WAT      O89035   1.603   1.162   3.364
29598WAT     H189036   1.533   1.166   3.435
29598WAT     H289037   1.561   1.144   3.276
29599WAT      O89038   0.179   4.495   7.495
29599WAT     H189039   0.180   4.545   7.581
29599WAT     H289040   0.243   4.538   7.431
29600WAT      O89041   2.961   4.903   0.053
29600WAT     H189042   2.875   4.904   0.002
29600WAT     H289043   2.964   4.823   0.112
29601WAT      O89044   8.268   4.491   3.122
29601WAT     H189045   8.214   4.411   3.097
29601WAT     H289046   8.277   4.552   3.043
29602WAT      O89047   4.359   0.272   5.287
29602WAT     H189048   4.379   0.201   5.219
29602WAT     H289049   4.314   0.230   5.366
29603WAT      O89050   8.309   1.327   7.012
29603WAT     H189051   8.355   1.414   6.996
29603WAT     H289052   8.370   1.252   6.989
29604WAT      O89053   3.672   6.165   5.464
29604WAT     H189054   3.746   6.219   5.504
29604WAT     H289055   3.641   6.097   5.530
29605WAT      O89056   0.115   8.641   1.147
29605WAT     H189057   0.211   8.665   1.160
29605WAT     H289058   0.108   8.555   1.097
29606WAT      O89059   3.332   3.707   5.523
29606WAT     H189060   3.281   3.791   5.502
29606WAT     H289061   3.406   3.696   5.457
29607WAT      O89062   4.671   1.669   1.322
29607WAT     H189063   4.768   1.646   1.321
29607WAT     H289064   4.659   1.765   1.295
29608WAT      O89065   9.345   6.871   5.896
29608WAT     H189066   9.268   6.891   5.836
29608WAT     H289067   9.326   6.789   5.950
29609WAT      O89068   4.511   3.684   6.937
29609WAT     H189069   4.471   3.723   7.020
29609WAT     H289070   4.460   3.602   6.911
29610WAT      O89071   7.963   0.428   0.296
29610WAT     H189072   7.949   0.392   0.389
29610WAT     H289073   7.908   0.376   0.231
29611WAT      O89074   5.917   7.225   7.297
29611WAT     H189075   5.861   7.188   7.223
29611WAT     H289076   5.980   7.155   7.330
29612WAT      O89077   6.039   6.338   6.543
29612WAT     H189078   5.962   6.399   6.563
29612WAT     H289079   6.104   6.385   6.482
29613WAT      O89080   2.200   7.652   2.387
29613WAT     H189081   2.176   7.697   2.473
29613WAT     H289082   2.280   7.593   2.401
29614WAT      O89083   5.518   8.537   9.879
29614WAT     H189084   5.424   8.510   9.858
29614WAT     H289085   5.581   8.468   9.844
29615WAT      O89086   9.357   8.079   6.308
29615WAT     H189087   9.394   8.164   6.346
29615WAT     H289088   9.257   8.083   6.309
29616WAT      O89089   1.389   8.663   5.089
29616WAT     H189090   1.375   8.721   5.170
29616WAT     H289091   1.451   8.589   5.112
29617WAT      O89092   7.953   0.926   4.782
29617WAT     H189093   7.928   0.936   4.878
29617WAT     H289094   7.967   0.829   4.761
29618WAT      O89095   0.447   9.554   4.767
29618WAT     H189096   0.536   9.598   4.773
29618WAT     H289097   0.375   9.623   4.776
29619WAT      O89098   9.325   5.383   6.075
29619WAT     H189099   9.250   5.324   6.045
29619WAT     H289100   9.375   5.416   5.995
29620WAT      O89101   3.587   7.696   4.434
29620WAT     H189102   3.663   7.689   4.369
29620WAT     H289103   3.581   7.789   4.468
29621WAT      O89104   3.772   6.748   0.028
29621WAT     H189105   3.677   6.768   0.053
29621WAT     H289106   3.821   6.833   0.013
29622WAT      O89107   9.605   3.723   7.436
29622WAT     H189108   9.670   3.647   7.432
29622WAT     H289109   9.519   3.691   7.477
29623WAT      O89110   4.841   7.891   8.669
29623WAT     H189111   4.842   7.879   8.570
29623WAT     H289112   4.857   7.987   8.692
29624WAT      O89113   4.869   0.954   5.392
29624WAT     H189114   4.844   1.041   5.436
29624WAT     H289115   4.787   0.898   5.380
29625WAT      O89116   8.862   6.864   2.434
29625WAT     H189117   8.938   6.902   2.382
29625WAT     H289118   8.846   6.770   2.405
29626WAT      O89119   0.724   5.823   1.304
29626WAT     H189120   0.645   5.789   1.252
29626WAT     H289121   0.696   5.901   1.359
29627WAT      O89122   1.716   1.481   4.230
29627WAT     H189123   1.643   1.537   4.269
29627WAT     H289124   1.687   1.446   4.141
29628WAT      O89125   8.640   0.609   4.346
29628WAT     H189126   8.578   0.682   4.373
29628WAT     H289127   8.647   0.606   4.246
29629WAT      O89128   0.357   2.218   1.354
29629WAT     H189129   0.378   2.275   1.433
29629WAT     H289130   0.263   2.185   1.361
29630WAT      O89131   5.995   1.536   3.602
29630WAT     H189132   5.991   1.487   3.690
29630WAT     H289133   6.086   1.524   3.562
29631WAT      O89134   5.003   2.151   3.064
29631WAT     H189135   5.098   2.123   3.077
29631WAT     H289136   4.970   2.194   3.148
29632WAT      O89137   9.213   8.746   5.723
29632WAT     H189138   9.195   8.839   5.691
29632WAT     H289139   9.311   8.728   5.718
29633WAT      O89140   0.229   1.163   1.137
29633WAT     H189141   0.240   1.066   1.156
29633WAT     H289142   0.188   1.208   1.216
29634WAT      O89143   5.386   5.898   0.513
29634WAT     H189144   5.353   5.978   0.563
29634WAT     H289145   5.416   5.829   0.579
29635WAT      O89146   9.828   7.229   5.930
29635WAT     H189147   9.785   7.296   5.869
29635WAT     H289148   9.841   7.143   5.881
29636WAT      O89149   3.465   4.096   5.430
29636WAT     H189150   3.389   4.079   5.494
29636WAT     H289151   3.532   4.022   5.437
29637WAT      O89152   8.382   8.603   3.095
29637WAT     H189153   8.411   8.514   3.058
29637WAT     H289154   8.315   8.588   3.168
29638WAT      O89155   1.824   4.587   6.161
29638WAT     H189156   1.895   4.641   6.114
29638WAT     H289157   1.852   4.571   6.255
29639WAT      O89158   2.182   9.837   0.992
29639WAT     H189159   2.137   9.748   1.005
29639WAT     H289160   2.116   9.910   1.010
29640WAT      O89161   1.286   5.699   0.705
29640WAT     H189162   1.354   5.771   0.720
29640WAT     H289163   1.316   5.615   0.749
29641WAT      O89164   4.436   0.346   6.764
29641WAT     H189165   4.434   0.259   6.814
29641WAT     H289166   4.437   0.328   6.666
29642WAT      O89167   5.028   8.429   5.244
29642WAT     H189168   5.019   8.436   5.344
29642WAT     H289169   4.938   8.437   5.202
29643WAT      O89170   4.038   3.704   1.565
29643WAT     H189171   3.966   3.733   1.502
29643WAT     H289172   4.014   3.733   1.658
29644WAT      O89173   8.262   7.412   3.761
29644WAT     H189174   8.337   7.479   3.761
29644WAT     H289175   8.207   7.424   3.844
29645WAT      O89176   5.673   1.386   8.227
29645WAT     H189177   5.717   1.299   8.203
29645WAT     H289178   5.742   1.459   8.226
29646WAT      O89179   6.945   6.576   3.566
29646WAT     H189180   6.930   6.494   3.510
29646WAT     H289181   7.038   6.608   3.553
29647WAT      O89182   2.113   7.370   0.098
29647WAT     H189183   2.048   7.304   0.134
29647WAT     H289184   2.163   7.413   0.173
29648WAT      O89185   1.494   8.014   9.699
29648WAT     H189186   1.439   7.974   9.626
29648WAT     H289187   1.590   7.990   9.685
29649WAT      O89188   3.971   9.484   6.866
29649WAT     H189189   4.005   9.578   6.868
29649WAT     H289190   4.043   9.421   6.895
29650WAT      O89191   9.598   4.897   6.765
29650WAT     H189192   9.695   4.919   6.763
29650WAT     H289193   9.546   4.968   6.719
29651WAT      O89194   6.767   9.452   7.267
29651WAT     H189195   6.721   9.478   7.182
29651WAT     H289196   6.829   9.525   7.295
29652WAT      O89197   4.872   7.556   2.624
29652WAT     H189198   4.897   7.537   2.719
29652WAT     H289199   4.801   7.492   2.595
29653WAT      O89200   2.083   5.543   2.186
29653WAT     H189201   2.096   5.444   2.178
29653WAT     H289202   1.985   5.563   2.186
29654WAT      O89203   1.087   2.827   2.456
29654WAT     H189204   1.167   2.838   2.398
29654WAT     H289205   1.007   2.868   2.412
29655WAT      O89206   9.306   7.968   1.289
29655WAT     H189207   9.311   7.896   1.219
29655WAT     H289208   9.364   8.045   1.263
29656WAT      O89209   0.799   2.171   9.255
29656WAT     H189210   0.737   2.176   9.333
29656WAT     H289211   0.884   2.219   9.276
29657WAT      O89212   0.775   9.523   7.533
29657WAT     H189213   0.795   9.620   7.520
29657WAT     H289214   0.849   9.481   7.585
29658WAT      O89215   3.837   6.733   4.884
29658WAT     H189216   3.902   6.789   4.937
29658WAT     H289217   3.800   6.788   4.809
29659WAT      O89218   8.368   1.819   0.551
29659WAT     H189219   8.310   1.764   0.490
29659WAT     H289220   8.463   1.789   0.544
29660WAT      O89221   9.177   7.531   8.302
29660WAT     H189222   9.141   7.439   8.314
29660WAT     H289223   9.146   7.589   8.377
29661WAT      O89224   3.685   7.897   2.949
29661WAT     H189225   3.774   7.876   2.908
29661WAT     H289226   3.698   7.931   3.042
29662WAT      O89227   1.388   6.710   1.600
29662WAT     H189228   1.465   6.755   1.644
29662WAT     H289229   1.354   6.637   1.659
29663WAT      O89230   2.119   3.003   8.519
29663WAT     H189231   2.126   3.034   8.613
29663WAT     H289232   2.022   2.993   8.495
29664WAT      O89233   0.990   2.033   3.800
29664WAT     H189234   1.028   2.024   3.708
29664WAT     H289235   0.890   2.034   3.794
29665WAT      O89236   8.559   0.462   1.447
29665WAT     H189237   8.513   0.389   1.497
29665WAT     H289238   8.615   0.516   1.509
29666WAT      O89239   8.591   1.379   8.662
29666WAT     H189240   8.560   1.289   8.632
29666WAT     H289241   8.666   1.368   8.727
29667WAT      O89242   4.001   3.599   8.841
29667WAT     H189243   4.060   3.646   8.906
29667WAT     H289244   3.959   3.520   8.885
29668WAT      O89245   8.313   9.320   3.333
29668WAT     H189246   8.323   9.407   3.381
29668WAT     H289247   8.366   9.249   3.381
29669WAT      O89248   9.323   6.366   8.998
29669WAT     H189249   9.277   6.280   9.020
29669WAT     H289250   9.421   6.357   9.014
29670WAT      O89251   0.998   4.048   3.874
29670WAT     H189252   0.928   3.977   3.876
29670WAT     H289253   0.956   4.136   3.852
29671WAT      O89254   4.217   1.191   9.828
29671WAT     H189255   4.194   1.125   9.757
29671WAT     H289256   4.296   1.245   9.799
29672WAT      O89257   6.767   5.175   2.317
29672WAT     H189258   6.804   5.182   2.224
29672WAT     H289259   6.675   5.136   2.314
29673WAT      O89260   2.300   5.147   7.637
29673WAT     H189261   2.325   5.088   7.713
29673WAT     H289262   2.270   5.091   7.559
29674WAT      O89263   3.646   6.836   6.198
29674WAT     H189264   3.706   6.760   6.222
29674WAT     H289265   3.580   6.806   6.129
29675WAT      O89266   9.872   6.405   5.518
29675WAT     H189267   9.918   6.332   5.468
29675WAT     H289268   9.773   6.399   5.503
29676WAT      O89269   9.139   8.168   3.233
29676WAT     H189270   9.218   8.224   3.207
29676WAT     H289271   9.056   8.224   3.227
29677WAT      O89272   3.596   3.366   3.569
29677WAT     H189273   3.687   3.363   3.527
29677WAT     H289274   3.573   3.462   3.589
29678WAT      O89275   8.177   8.774   3.981
29678WAT     H189276   8.251   8.723   4.025
29678WAT     H289277   8.129   8.829   4.049
29679WAT      O89278   4.229   7.823   0.914
29679WAT     H189279   4.172   7.790   0.838
29679WAT     H289280   4.272   7.745   0.959
29680WAT      O89281   7.906   8.944   4.395
29680WAT     H189282   7.919   8.890   4.478
29680WAT     H289283   7.907   9.041   4.418
29681WAT      O89284   3.272   6.077   2.515
29681WAT     H189285   3.207   6.036   2.452
29681WAT     H289286   3.225   6.106   2.598
29682WAT      O89287   0.603   1.098   7.316
29682WAT     H189288   0.688   1.047   7.308
29682WAT     H289289   0.561   1.106   7.225
29683WAT      O89290   2.244   9.276   6.780
29683WAT     H189291   2.183   9.264   6.702
29683WAT     H289292   2.203   9.233   6.861
29684WAT      O89293   0.409   1.415   1.584
29684WAT     H189294   0.328   1.461   1.619
29684WAT     H289295   0.395   1.392   1.487
29685WAT      O89296   0.469   8.733   3.364
29685WAT     H189297   0.399   8.803   3.376
29685WAT     H289298   0.433   8.658   3.308
29686WAT      O89299   6.070   4.597   4.202
29686WAT     H189300   6.120   4.646   4.131
29686WAT     H289301   6.134   4.551   4.264
29687WAT      O89302   7.175   8.301   0.491
29687WAT     H189303   7.220   8.227   0.440
29687WAT     H289304   7.190   8.288   0.589
29688WAT      O89305   5.757   7.148   0.730
29688WAT     H189306   5.691   7.192   0.669
29688WAT     H289307   5.824   7.216   0.760
29689WAT      O89308   8.691   4.884   9.864
29689WAT     H189309   8.637   4.934   9.797
29689WAT     H289310   8.775   4.935   9.883
29690WAT      O89311   2.201   5.589   1.003
29690WAT     H189312   2.259   5.621   1.077
29690WAT     H289313   2.254   5.583   0.918
29691WAT      O89314   0.750   2.944   8.563
29691WAT     H189315   0.828   2.989   8.519
29691WAT     H289316   0.699   2.890   8.496
29692WAT      O89317   6.875   5.162   0.656
29692WAT     H189318   6.897   5.075   0.611
29692WAT     H289319   6.831   5.223   0.591
29693WAT      O89320   2.306   2.323   8.869
29693WAT     H189321   2.237   2.388   8.838
29693WAT     H289322   2.297   2.309   8.968
29694WAT      O89323   5.464   5.693   7.870
29694WAT     H189324   5.467   5.598   7.901
29694WAT     H289325   5.557   5.724   7.849
29695WAT      O89326   7.942   0.539   6.450
29695WAT     H189327   7.986   0.523   6.539
29695WAT     H289328   7.893   0.626   6.452
29696WAT      O89329   1.556   4.544   2.815
29696WAT     H189330   1.461   4.529   2.787
29696WAT     H289331   1.560   4.623   2.876
29697WAT      O89332   4.758   6.930   3.678
29697WAT     H189333   4.717   6.977   3.601
29697WAT     H289334   4.839   6.879   3.647
29698WAT      O89335   0.432   0.059   2.847
29698WAT     H189336   0.430   0.117   2.766
29698WAT     H289337   0.514   0.079   2.900
29699WAT      O89338   8.949   1.733   0.407
29699WAT     H189339   8.888   1.791   0.461
29699WAT     H289340   8.930   1.637   0.426
29700WAT      O89341   7.537   0.410   1.208
29700WAT     H189342   7.552   0.471   1.131
29700WAT     H289343   7.623   0.397   1.258
29701WAT      O89344   3.734   7.816   8.633
29701WAT     H189345   3.813   7.785   8.581
29701WAT     H289346   3.755   7.904   8.675
29702WAT      O89347   6.367   7.473   5.759
29702WAT     H189348   6.361   7.379   5.724
29702WAT     H289349   6.387   7.535   5.683
29703WAT      O89350   0.998   1.649   5.592
29703WAT     H189351   0.991   1.733   5.539
29703WAT     H289352   1.021   1.573   5.530
29704WAT      O89353   1.915   7.565   0.699
29704WAT     H189354   1.855   7.488   0.723
29704WAT     H289355   1.895   7.643   0.758
29705WAT      O89356   8.814   1.689   5.621
29705WAT     H189357   8.773   1.684   5.712
29705WAT     H289358   8.905   1.647   5.624
29706WAT      O89359   2.437   1.662   7.670
29706WAT     H189360   2.360   1.715   7.705
29706WAT     H289361   2.488   1.623   7.747
29707WAT      O89362   9.683   6.430   2.155
29707WAT     H189363   9.678   6.464   2.061
29707WAT     H289364   9.733   6.344   2.156
29708WAT      O89365   5.666   7.017   2.413
29708WAT     H189366   5.666   7.006   2.512
29708WAT     H289367   5.633   7.108   2.389
29709WAT      O89368   1.699   7.960   7.885
29709WAT     H189369   1.601   7.975   7.871
29709WAT     H289370   1.737   7.912   7.806
29710WAT      O89371   0.219   1.407   4.982
29710WAT     H189372   0.277   1.487   4.967
29710WAT     H289373   0.168   1.418   5.068
29711WAT      O89374   9.822   0.935   3.733
29711WAT     H189375   9.852   0.868   3.801
29711WAT     H289376   9.887   0.936   3.657
29712WAT      O89377   1.834   4.788   8.241
29712WAT     H189378   1.929   4.793   8.207
29712WAT     H289379   1.829   4.722   8.316
29713WAT      O89380   4.656   5.841   3.800
29713WAT     H189381   4.739   5.795   3.832
29713WAT     H289382   4.576   5.792   3.835
29714WAT      O89383   7.758   3.126   4.250
29714WAT     H189384   7.671   3.082   4.274
29714WAT     H289385   7.832   3.084   4.301
29715WAT      O89386   7.743   3.840   3.110
29715WAT     H189387   7.775   3.785   3.188
29715WAT     H289388   7.727   3.780   3.032
29716WAT      O89389   3.953   3.149   2.468
29716WAT     H189390   4.039   3.171   2.422
29716WAT     H289391   3.897   3.232   2.475
29717WAT      O89392   0.657   6.480   3.722
29717WAT     H189393   0.585   6.539   3.683
29717WAT     H289394   0.660   6.493   3.821
29718WAT      O89395   4.837   0.163   5.261
29718WAT     H189396   4.849   0.260   5.242
29718WAT     H289397   4.759   0.150   5.323
29719WAT      O89398   6.640   1.257   9.628
29719WAT     H189399   6.672   1.245   9.722
29719WAT     H289400   6.674   1.343   9.591
29720WAT      O89401   0.820   8.495   9.524
29720WAT     H189402   0.852   8.491   9.429
29720WAT     H289403   0.722   8.515   9.524
29721WAT      O89404   9.800   0.093   0.597
29721WAT     H189405   9.740   0.051   0.529
29721WAT     H289406   9.747   0.116   0.678
29722WAT      O89407   6.558   7.659   6.202
29722WAT     H189408   6.651   7.686   6.226
29722WAT     H289409   6.493   7.703   6.264
29723WAT      O89410   4.985   1.261   7.184
29723WAT     H189411   5.045   1.252   7.105
29723WAT     H289412   4.890   1.265   7.153
29724WAT      O89413   6.569   0.552   9.178
29724WAT     H189414   6.506   0.486   9.136
29724WAT     H289415   6.520   0.637   9.198
29725WAT      O89416   8.023   3.848   5.268
29725WAT     H189417   8.051   3.761   5.310
29725WAT     H289418   7.963   3.897   5.331
29726WAT      O89419   2.915   1.051   4.551
29726WAT     H189420   2.826   1.009   4.566
29726WAT     H289421   2.969   0.995   4.488
29727WAT      O89422   0.997   9.551   8.520
29727WAT     H189423   1.079   9.495   8.509
29727WAT     H289424   0.980   9.603   8.437
29728WAT      O89425   9.036   4.044   6.117
29728WAT     H189426   8.943   4.013   6.137
29728WAT     H289427   9.065   4.007   6.028
29729WAT      O89428   8.670   4.521   7.499
29729WAT     H189429   8.700   4.565   7.415
29729WAT     H289430   8.733   4.446   7.522
29730WAT      O89431   4.686   7.539   9.781
29730WAT     H189432   4.591   7.566   9.764
29730WAT     H289433   4.692   7.439   9.780
29731WAT      O89434   1.163   7.842   2.565
29731WAT     H189435   1.180   7.744   2.550
29731WAT     H289436   1.110   7.854   2.649
29732WAT      O89437   8.383   2.662   3.469
29732WAT     H189438   8.359   2.742   3.414
29732WAT     H289439   8.450   2.606   3.420
29733WAT      O89440   0.109   8.453   0.302
29733WAT     H189441   0.045   8.529   0.291
29733WAT     H289442   0.062   8.367   0.281
29734WAT      O89443   2.332   0.348   0.885
29734WAT     H189444   2.271   0.345   0.806
29734WAT     H289445   2.426   0.364   0.854
29735WAT      O89446   2.981   1.289   9.268
29735WAT     H189447   2.953   1.193   9.273
29735WAT     H289448   2.924   1.337   9.202
29736WAT      O89449   4.799   1.923   7.552
29736WAT     H189450   4.728   1.854   7.568
29736WAT     H289451   4.889   1.880   7.553
29737WAT      O89452   9.821   2.895   4.701
29737WAT     H189453   9.835   2.960   4.626
29737WAT     H289454   9.723   2.888   4.720
29738WAT      O89455   6.180   6.149   4.643
29738WAT     H189456   6.149   6.189   4.557
29738WAT     H289457   6.215   6.222   4.703
29739WAT      O89458   5.197   0.546   9.201
29739WAT     H189459   5.178   0.458   9.245
29739WAT     H289460   5.158   0.620   9.256
29740WAT      O89461   1.554   7.839   1.784
29740WAT     H189462   1.618   7.774   1.827
29740WAT     H289463   1.497   7.881   1.855
29741WAT      O89464   4.809   7.809   4.203
29741WAT     H189465   4.816   7.803   4.303
29741WAT     H289466   4.779   7.901   4.178
29742WAT      O89467   0.640   6.899   8.392
29742WAT     H189468   0.587   6.942   8.319
29742WAT     H289469   0.644   6.800   8.377
29743WAT      O89470   1.919   1.095   5.159
29743WAT     H189471   1.972   1.014   5.134
29743WAT     H289472   1.858   1.119   5.083
29744WAT      O89473   4.538   1.449   5.925
29744WAT     H189474   4.503   1.543   5.924
29744WAT     H289475   4.504   1.402   6.006
29745WAT      O89476   1.232   7.632   6.277
29745WAT     H189477   1.303   7.695   6.308
29745WAT     H289478   1.219   7.561   6.346
29746WAT      O89479   6.266   6.971   2.980
29746WAT     H189480   6.246   6.908   3.055
29746WAT     H289481   6.357   7.012   2.994
29747WAT      O89482   2.668   0.888   9.664
29747WAT     H189483   2.635   0.959   9.602
29747WAT     H289484   2.768   0.890   9.667
29748WAT      O89485   1.282   7.288   7.206
29748WAT     H189486   1.334   7.202   7.207
29748WAT     H289487   1.320   7.350   7.274
29749WAT      O89488   0.141   8.605   4.194
29749WAT     H189489   0.205   8.639   4.125
29749WAT     H289490   0.161   8.509   4.215
29750WAT      O89491   1.239   3.826   7.836
29750WAT     H189492   1.269   3.911   7.880
29750WAT     H289493   1.262   3.749   7.894
29751WAT      O89494   1.168   7.230   0.982
29751WAT     H189495   1.148   7.320   0.945
29751WAT     H289496   1.257   7.199   0.949
29752WAT      O89497   3.110   8.478   4.003
29752WAT     H189498   3.207   8.465   4.024
29752WAT     H289499   3.092   8.442   3.911
29753WAT      O89500   4.902   1.422   4.563
29753WAT     H189501   4.894   1.394   4.659
29753WAT     H289502   4.938   1.347   4.509
29754WAT      O89503   5.157   8.951   0.915
29754WAT     H189504   5.152   9.025   0.848
29754WAT     H289505   5.121   8.982   1.002
29755WAT      O89506   2.421   3.224   5.072
29755WAT     H189507   2.374   3.143   5.039
29755WAT     H289508   2.365   3.269   5.142
29756WAT      O89509   9.065   2.171   0.988
29756WAT     H189510   9.134   2.208   1.050
29756WAT     H289511   9.100   2.090   0.943
29757WAT      O89512   7.718   5.859   4.438
29757WAT     H189513   7.656   5.805   4.380
29757WAT     H289514   7.672   5.882   4.523
29758WAT      O89515   5.085   4.797   4.547
29758WAT     H189516   5.104   4.765   4.640
29758WAT     H289517   5.102   4.895   4.542
29759WAT      O89518   2.054   4.537   8.909
29759WAT     H189519   2.079   4.521   9.004
29759WAT     H289520   2.040   4.449   8.863
29760WAT      O89521   8.296   3.537   3.108
29760WAT     H189522   8.247   3.596   3.171
29760WAT     H289523   8.237   3.512   3.031
29761WAT      O89524   8.410   9.111   5.956
29761WAT     H189525   8.479   9.182   5.970
29761WAT     H289526   8.439   9.027   6.001
29762WAT      O89527   3.897   3.070   0.220
29762WAT     H189528   3.882   2.975   0.248
29762WAT     H289529   3.975   3.107   0.270
29763WAT      O89530   7.190   2.936   9.141
29763WAT     H189531   7.185   2.900   9.048
29763WAT     H289532   7.210   2.862   9.205
29764WAT      O89533   9.854   3.695   6.027
29764WAT     H189534   9.777   3.687   6.090
29764WAT     H289535   9.886   3.604   6.001
29765WAT      O89536   6.435   9.280   5.554
29765WAT     H189537   6.368   9.297   5.481
29765WAT     H289538   6.527   9.282   5.515
29766WAT      O89539   2.692   3.215   9.225
29766WAT     H189540   2.753   3.215   9.304
29766WAT     H289541   2.606   3.261   9.249
29767WAT      O89542   9.544   2.323   2.005
29767WAT     H189543   9.613   2.309   1.934
29767WAT     H289544   9.482   2.397   1.978
29768WAT      O89545   1.909   7.296   3.397
29768WAT     H189546   1.874   7.300   3.303
29768WAT     H289547   1.910   7.388   3.436
29769WAT      O89548   3.027   5.268   0.593
29769WAT     H189549   3.045   5.170   0.592
29769WAT     H289550   3.019   5.301   0.498
29770WAT      O89551   8.210   4.278   5.574
29770WAT     H189552   8.297   4.323   5.596
29770WAT     H289553   8.138   4.315   5.634
29771WAT      O89554   4.433   1.447   8.350
29771WAT     H189555   4.361   1.392   8.392
29771WAT     H289556   4.523   1.407   8.372
29772WAT      O89557   7.295   2.291   2.060
29772WAT     H189558   7.198   2.266   2.062
29772WAT     H289559   7.343   2.233   1.995
29773WAT      O89560   3.152   8.855   2.380
29773WAT     H189561   3.201   8.815   2.303
29773WAT     H289562   3.067   8.898   2.347
29774WAT      O89563   2.633   5.544   7.457
29774WAT     H189564   2.602   5.461   7.504
29774WAT     H289565   2.630   5.530   7.358
29775WAT      O89566   0.049   5.992   4.065
29775WAT     H189567  -0.005   6.060   4.015
29775WAT     H289568   0.010   5.901   4.049
29776WAT      O89569   7.603   0.817   3.136
29776WAT     H189570   7.617   0.733   3.188
29776WAT     H289571   7.647   0.808   3.047
29777WAT      O89572   1.092   0.137   0.805
29777WAT     H189573   0.996   0.156   0.784
29777WAT     H289574   1.147   0.148   0.723
29778WAT      O89575   2.112   0.517   9.706
29778WAT     H189576   2.021   0.527   9.747
29778WAT     H289577   2.154   0.607   9.694
29779WAT      O89578   7.033   9.371   1.343
29779WAT     H189579   7.019   9.324   1.256
29779WAT     H289580   7.088   9.314   1.404
29780WAT      O89581   8.294   5.134   7.306
29780WAT     H189582   8.215   5.194   7.321
29780WAT     H289583   8.348   5.128   7.390
29781WAT      O89584   6.001   8.839   2.061
29781WAT     H189585   5.983   8.844   1.962
29781WAT     H289586   5.915   8.848   2.111
29782WAT      O89587   8.858   6.958   7.181
29782WAT     H189588   8.810   6.923   7.101
29782WAT     H289589   8.815   6.925   7.265
29783WAT      O89590   8.106   6.484   3.448
29783WAT     H189591   8.121   6.389   3.476
29783WAT     H289592   8.193   6.534   3.452
29784WAT      O89593   2.804   2.919   4.677
29784WAT     H189594   2.813   2.833   4.628
29784WAT     H289595   2.709   2.932   4.705
29785WAT      O89596   6.868   2.085   2.169
29785WAT     H189597   6.790   2.137   2.202
29785WAT     H289598   6.843   1.989   2.159
29786WAT      O89599   1.809   8.910   2.552
29786WAT     H189600   1.766   8.852   2.621
29786WAT     H289601   1.803   9.006   2.580
29787WAT      O89602   7.612   4.149   5.846
29787WAT     H189603   7.514   4.141   5.833
29787WAT     H289604   7.660   4.084   5.786
29788WAT      O89605   9.327   2.099   2.023
29788WAT     H189606   9.405   2.150   1.987
29788WAT     H289607   9.305   2.132   2.115
29789WAT      O89608   5.825   4.032   7.438
29789WAT     H189609   5.790   3.966   7.371
29789WAT     H289610   5.833   3.988   7.527
29790WAT      O89611   1.886   8.179   4.037
29790WAT     H189612   1.962   8.114   4.031
29790WAT     H289613   1.920   8.271   4.019
29791WAT      O89614   9.552   2.553   9.036
29791WAT     H189615   9.485   2.501   9.090
29791WAT     H289616   9.632   2.571   9.093
29792WAT      O89617   0.381   1.412   8.540
29792WAT     H189618   0.310   1.370   8.596
29792WAT     H289619   0.392   1.508   8.567
29793WAT      O89620   4.011   8.087   9.343
29793WAT     H189621   4.023   8.003   9.291
29793WAT     H289622   4.066   8.160   9.302
29794WAT      O89623   5.654   1.888   7.042
29794WAT     H189624   5.625   1.867   7.136
29794WAT     H289625   5.751   1.911   7.041
29795WAT      O89626   6.532   1.958   7.472
29795WAT     H189627   6.505   1.862   7.476
29795WAT     H289628   6.490   2.001   7.392
29796WAT      O89629   5.817   8.702   5.551
29796WAT     H189630   5.887   8.705   5.623
29796WAT     H289631   5.745   8.768   5.573
29797WAT      O89632   0.096   5.556   9.582
29797WAT     H189633   0.022   5.495   9.612
29797WAT     H289634   0.149   5.585   9.661
29798WAT      O89635   2.666   4.153   0.421
29798WAT     H189636   2.618   4.094   0.356
29798WAT     H289637   2.704   4.098   0.495
29799WAT      O89638   5.750   4.618   7.650
29799WAT     H189639   5.714   4.669   7.729
29799WAT     H289640   5.741   4.520   7.667
29800WAT      O89641   2.357   8.171   4.069
29800WAT     H189642   2.451   8.190   4.041
29800WAT     H289643   2.357   8.101   4.141
29801WAT      O89644   9.288   1.399   7.356
29801WAT     H189645   9.246   1.475   7.404
29801WAT     H289646   9.388   1.404   7.364
29802WAT      O89647   1.896   7.467   5.774
29802WAT     H189648   1.838   7.455   5.854
29802WAT     H289649   1.911   7.564   5.757
29803WAT      O89650   2.170   8.301   8.577
29803WAT     H189651   2.216   8.250   8.650
29803WAT     H289652   2.123   8.380   8.616
29804WAT      O89653   4.678   0.561   4.927
29804WAT     H189654   4.739   0.579   4.850
29804WAT     H289655   4.615   0.486   4.903
29805WAT      O89656   7.310   7.676   8.674
29805WAT     H189657   7.291   7.722   8.587
29805WAT     H289658   7.224   7.646   8.715
29806WAT      O89659   7.256   6.862   7.237
29806WAT     H189660   7.198   6.920   7.181
29806WAT     H289661   7.206   6.834   7.319
29807WAT      O89662   2.066   4.377   5.086
29807WAT     H189663   2.014   4.341   5.008
29807WAT     H289664   2.164   4.373   5.064
29808WAT      O89665   0.555   2.152   9.476
29808WAT     H189666   0.565   2.211   9.557
29808WAT     H289667   0.466   2.169   9.434
29809WAT      O89668   4.203   6.556   6.685
29809WAT     H189669   4.299   6.557   6.710
29809WAT     H289670   4.174   6.648   6.659
29810WAT      O89671   2.919   8.963   6.827
29810WAT     H189672   2.895   9.043   6.772
29810WAT     H289673   2.841   8.900   6.830
29811WAT      O89674   0.090   8.906   8.598
29811WAT     H189675   0.069   8.813   8.566
29811WAT     H289676   0.074   8.911   8.697
29812WAT      O89677   8.896   0.188   7.810
29812WAT     H189678   8.839   0.255   7.858
29812WAT     H289679   8.904   0.213   7.714
29813WAT      O89680   8.617   8.543   3.714
29813WAT     H189681   8.608   8.576   3.808
29813WAT     H289682   8.595   8.445   3.711
29814WAT      O89683   0.790   6.847   3.321
29814WAT     H189684   0.798   6.872   3.225
29814WAT     H289685   0.715   6.899   3.363
29815WAT      O89686   0.513   6.669   1.952
29815WAT     H189687   0.542   6.656   1.858
29815WAT     H289688   0.559   6.602   2.010
29816WAT      O89689   7.922   0.843   2.337
29816WAT     H189690   7.877   0.764   2.378
29816WAT     H289691   8.019   0.840   2.357
29817WAT      O89692   0.488   0.625   8.630
29817WAT     H189693   0.578   0.603   8.669
29817WAT     H289694   0.417   0.603   8.696
29818WAT      O89695   1.084   8.866   9.832
29818WAT     H189696   1.054   8.800   9.762
29818WAT     H289697   1.148   8.930   9.791
29819WAT      O89698   8.471   7.474   0.673
29819WAT     H189699   8.444   7.542   0.605
29819WAT     H289700   8.423   7.387   0.654
29820WAT      O89701   5.294   8.187   0.208
29820WAT     H189702   5.313   8.095   0.240
29820WAT     H289703   5.228   8.231   0.269
29821WAT      O89704   5.549   2.500   5.452
29821WAT     H189705   5.582   2.503   5.358
29821WAT     H289706   5.557   2.407   5.488
29822WAT      O89707   7.795   1.667   6.356
29822WAT     H189708   7.800   1.577   6.315
29822WAT     H289709   7.817   1.737   6.288
29823WAT      O89710   4.713   5.474   1.208
29823WAT     H189711   4.756   5.542   1.267
29823WAT     H289712   4.749   5.383   1.228
29824WAT      O89713   5.192   3.068   6.921
29824WAT     H189714   5.247   3.137   6.969
29824WAT     H289715   5.096   3.097   6.920
29825WAT      O89716   9.449   4.100   8.762
29825WAT     H189717   9.486   4.044   8.836
29825WAT     H289718   9.354   4.125   8.783
29826WAT      O89719   0.099   1.644   2.054
29826WAT     H189720   0.119   1.652   2.152
29826WAT     H289721  -0.001   1.646   2.041
29827WAT      O89722   9.459   7.891   0.299
29827WAT     H189723   9.559   7.887   0.291
29827WAT     H289724   9.434   7.945   0.379
29828WAT      O89725   7.007   8.374   8.876
29828WAT     H189726   7.055   8.460   8.857
29828WAT     H289727   6.948   8.385   8.955
29829WAT      O89728   9.819   6.016   3.617
29829WAT     H189729   9.885   5.946   3.646
29829WAT     H289730   9.861   6.106   3.622
29830WAT      O89731   1.351   6.890   9.300
29830WAT     H189732   1.377   6.821   9.368
29830WAT     H289733   1.251   6.900   9.300
29831WAT      O89734   2.140   8.716   1.373
29831WAT     H189735   2.144   8.680   1.280
29831WAT     H289736   2.061   8.776   1.382
29832WAT      O89737   9.376   4.370   2.721
29832WAT     H189738   9.289   4.354   2.767
29832WAT     H289739   9.424   4.283   2.709
29833WAT      O89740   3.355   4.404   9.453
29833WAT     H189741   3.354   4.504   9.459
29833WAT     H289742   3.440   4.374   9.410
29834WAT      O89743   8.682   5.639   9.023
29834WAT     H189744   8.649   5.719   8.973
29834WAT     H289745   8.643   5.556   8.983
29835WAT      O89746   1.695   5.628   0.651
29835WAT     H189747   1.629   5.663   0.585
29835WAT     H289748   1.646   5.586   0.728
29836WAT      O89749   2.157   1.022   8.375
29836WAT     H189750   2.204   0.997   8.290
29836WAT     H289751   2.201   1.102   8.415
29837WAT      O89752   5.338   3.385   4.540
29837WAT     H189753   5.325   3.306   4.480
29837WAT     H289754   5.276   3.379   4.617
29838WAT      O89755   9.740   7.876   1.666
29838WAT     H189756   9.758   7.904   1.572
29838WAT     H289757   9.642   7.887   1.686
29839WAT      O89758   8.887   8.839   3.511
29839WAT     H189759   8.908   8.817   3.606
29839WAT     H289760   8.953   8.794   3.451
29840WAT      O89761   3.633   3.877   2.746
29840WAT     H189762   3.730   3.893   2.727
29840WAT     H289763   3.609   3.783   2.721
29841WAT      O89764   3.362   1.409   7.418
29841WAT     H189765   3.352   1.314   7.448
29841WAT     H289766   3.425   1.457   7.479
29842WAT      O89767   0.355   1.827   9.161
29842WAT     H189768   0.329   1.923   9.147
29842WAT     H289769   0.376   1.785   9.073
29843WAT      O89770   6.078   1.367   1.463
29843WAT     H189771   6.131   1.353   1.547
29843WAT     H289772   5.999   1.424   1.484
29844WAT      O89773   4.294   1.399   4.492
29844WAT     H189774   4.376   1.383   4.437
29844WAT     H289775   4.320   1.416   4.587
29845WAT      O89776   5.251   2.278   8.470
29845WAT     H189777   5.286   2.248   8.558
29845WAT     H289778   5.308   2.352   8.434
29846WAT      O89779   0.575   4.080   0.137
29846WAT     H189780   0.533   4.169   0.155
29846WAT     H289781   0.521   4.032   0.067
29847WAT      O89782   9.441   1.682   7.444
29847WAT     H189783   9.474   1.730   7.363
29847WAT     H289784   9.385   1.744   7.499
29848WAT      O89785   6.933   0.477   4.837
29848WAT     H189786   6.890   0.401   4.886
29848WAT     H289787   7.027   0.453   4.815
29849WAT      O89788   4.833   9.091   6.813
29849WAT     H189789   4.774   9.014   6.838
29849WAT     H289790   4.785   9.176   6.831
29850WAT      O89791   4.402   5.799   3.039
29850WAT     H189792   4.406   5.865   2.964
29850WAT     H289793   4.382   5.846   3.125
29851WAT      O89794   2.885   3.317   7.872
29851WAT     H189795   2.960   3.375   7.841
29851WAT     H289796   2.832   3.286   7.793
29852WAT      O89797   0.252   5.218   0.596
29852WAT     H189798   0.315   5.176   0.661
29852WAT     H289799   0.295   5.296   0.553
29853WAT      O89800   4.330   6.595   6.131
29853WAT     H189801   4.313   6.510   6.181
29853WAT     H289802   4.272   6.668   6.168
29854WAT      O89803   6.878   4.506   9.252
29854WAT     H189804   6.842   4.463   9.335
29854WAT     H289805   6.854   4.603   9.251
29855WAT      O89806   1.060   9.338   5.024
29855WAT     H189807   1.026   9.372   5.112
29855WAT     H289808   1.096   9.415   4.970
29856WAT      O89809   6.057   9.361   0.846
29856WAT     H189810   5.957   9.369   0.846
29856WAT     H289811   6.085   9.294   0.916
29857WAT      O89812   5.493   9.272   0.456
29857WAT     H189813   5.493   9.363   0.414
29857WAT     H289814   5.410   9.223   0.430
29858WAT      O89815   0.521   9.156   6.792
29858WAT     H189816   0.442   9.111   6.751
29858WAT     H289817   0.555   9.101   6.868
29859WAT      O89818   0.456   5.415   1.248
29859WAT     H189819   0.440   5.354   1.171
29859WAT     H289820   0.492   5.362   1.325
29860WAT      O89821   7.599   1.533   9.432
29860WAT     H189822   7.565   1.442   9.409
29860WAT     H289823   7.662   1.565   9.361
29861WAT      O89824   0.286   7.974   6.172
29861WAT     H189825   0.265   7.975   6.074
29861WAT     H289826   0.368   7.918   6.187
29862WAT      O89827   4.446   8.256   7.540
29862WAT     H189828   4.416   8.296   7.626
29862WAT     H289829   4.365   8.229   7.486
29863WAT      O89830   6.947   5.997   5.144
29863WAT     H189831   6.924   6.094   5.130
29863WAT     H289832   6.862   5.944   5.152
29864WAT      O89833   8.716   8.201   1.300
29864WAT     H189834   8.661   8.174   1.221
29864WAT     H289835   8.669   8.274   1.350
29865WAT      O89836   6.899   2.382   0.839
29865WAT     H189837   6.921   2.344   0.750
29865WAT     H289838   6.937   2.323   0.911
29866WAT      O89839   5.280   8.650   1.736
29866WAT     H189840   5.215   8.723   1.759
29866WAT     H289841   5.263   8.571   1.795
29867WAT      O89842   2.478   4.543   8.371
29867WAT     H189843   2.483   4.443   8.383
29867WAT     H289844   2.391   4.566   8.327
29868WAT      O89845   9.444   0.593   3.321
29868WAT     H189846   9.401   0.509   3.289
29868WAT     H289847   9.381   0.641   3.383
29869WAT      O89848   4.522   2.718   1.631
29869WAT     H189849   4.546   2.731   1.727
29869WAT     H289850   4.460   2.791   1.602
29870WAT      O89851   3.359   8.187   8.422
29870WAT     H189852   3.322   8.220   8.509
29870WAT     H289853   3.321   8.241   8.347
29871WAT      O89854   3.259   4.560   6.523
29871WAT     H189855   3.222   4.602   6.440
29871WAT     H289856   3.184   4.533   6.583
29872WAT      O89857   4.089   0.969   7.087
29872WAT     H189858   4.100   1.005   7.180
29872WAT     H289859   4.044   0.880   7.091
29873WAT      O89860   7.330   0.360   0.473
29873WAT     H189861   7.326   0.262   0.451
29873WAT     H289862   7.255   0.407   0.427
29874WAT      O89863   9.202   1.614   1.274
29874WAT     H189864   9.175   1.648   1.364
29874WAT     H289865   9.184   1.516   1.269
29875WAT      O89866   0.368   7.383   0.430
29875WAT     H189867   0.393   7.407   0.336
29875WAT     H289868   0.426   7.433   0.494
29876WAT      O89869   4.573   7.595   1.951
29876WAT     H189870   4.663   7.613   1.911
29876WAT     H289871   4.518   7.678   1.946
29877WAT      O89872   6.682   0.529   8.186
29877WAT     H189873   6.701   0.472   8.266
29877WAT     H289874   6.625   0.479   8.121
29878WAT      O89875   0.525   1.000   0.930
29878WAT     H189876   0.495   1.021   1.024
29878WAT     H289877   0.559   1.084   0.887
29879WAT      O89878   3.544   8.114   6.927
29879WAT     H189879   3.575   8.102   6.833
29879WAT     H289880   3.517   8.209   6.941
29880WAT      O89881   0.807   1.557   7.179
29880WAT     H189882   0.816   1.527   7.274
29880WAT     H289883   0.817   1.479   7.118
29881WAT      O89884   9.464   6.239   2.432
29881WAT     H189885   9.462   6.331   2.393
29881WAT     H289886   9.554   6.222   2.472
29882WAT      O89887   0.273   7.840   5.801
29882WAT     H189888   0.311   7.863   5.711
29882WAT     H289889   0.243   7.924   5.847
29883WAT      O89890   3.230   5.118   8.253
29883WAT     H189891   3.257   5.092   8.346
29883WAT     H289892   3.285   5.196   8.224
29884WAT      O89893   7.441   9.532   8.168
29884WAT     H189894   7.485   9.505   8.082
29884WAT     H289895   7.413   9.450   8.218
29885WAT      O89896   3.850   7.634   4.990
29885WAT     H189897   3.894   7.697   4.927
29885WAT     H289898   3.754   7.659   5.000
29886WAT      O89899   1.219   0.887   8.473
29886WAT     H189900   1.171   0.889   8.561
29886WAT     H289901   1.224   0.979   8.435
29887WAT      O89902   5.043   8.561   1.565
29887WAT     H189903   5.060   8.517   1.653
29887WAT     H289904   4.961   8.522   1.524
29888WAT      O89905   9.032   5.359   9.135
29888WAT     H189906   8.964   5.303   9.087
29888WAT     H289907   9.120   5.313   9.135
29889WAT      O89908   6.128   7.895   6.462
29889WAT     H189909   6.128   7.995   6.461
29889WAT     H289910   6.140   7.864   6.556
29890WAT      O89911   4.348   3.431   4.991
29890WAT     H189912   4.275   3.489   5.028
29890WAT     H289913   4.370   3.460   4.898
29891WAT      O89914   1.267   8.965   7.006
29891WAT     H189915   1.348   8.974   7.063
29891WAT     H289916   1.200   8.906   7.052
29892WAT      O89917   9.821   5.707   6.924
29892WAT     H189918   9.821   5.804   6.949
29892WAT     H289919   9.747   5.688   6.860
29893WAT      O89920   0.711   1.371   3.733
29893WAT     H189921   0.746   1.358   3.641
29893WAT     H289922   0.785   1.405   3.792
29894WAT      O89923   1.070   7.882   7.535
29894WAT     H189924   1.133   7.887   7.458
29894WAT     H289925   1.004   7.808   7.520
29895WAT      O89926   3.274   8.530   7.837
29895WAT     H189927   3.361   8.522   7.790
29895WAT     H289928   3.200   8.503   7.775
29896WAT      O89929   7.294   9.110   2.967
29896WAT     H189930   7.309   9.206   2.991
29896WAT     H289931   7.272   9.102   2.870
29897WAT      O89932   9.882   5.092   2.550
29897WAT     H189933   9.841   5.183   2.555
29897WAT     H289934   9.830   5.036   2.485
29898WAT      O89935   5.212   7.957   4.204
29898WAT     H189936   5.147   8.031   4.223
29898WAT     H289937   5.260   7.932   4.288
29899WAT      O89938   5.531   2.854   5.249
29899WAT     H189939   5.475   2.818   5.174
29899WAT     H289940   5.507   2.806   5.334
29900WAT      O89941   1.024   8.305   9.094
29900WAT     H189942   0.993   8.244   9.022
29900WAT     H289943   1.119   8.283   9.118
29901WAT      O89944   2.777   9.544   7.501
29901WAT     H189945   2.680   9.521   7.511
29901WAT     H289946   2.790   9.642   7.515
29902WAT      O89947   3.659   0.540   3.963
29902WAT     H189948   3.712   0.560   3.880
29902WAT     H289949   3.576   0.595   3.963
29903WAT      O89950   7.430   5.390   1.892
29903WAT     H189951   7.418   5.432   1.982
29903WAT     H289952   7.517   5.340   1.890
29904WAT      O89953   7.843   2.174   7.129
29904WAT     H189954   7.901   2.226   7.192
29904WAT     H289955   7.884   2.083   7.115
29905WAT      O89956   2.645   5.880   2.774
29905WAT     H189957   2.574   5.851   2.709
29905WAT     H289958   2.613   5.961   2.823
29906WAT      O89959   3.746   3.770   1.165
29906WAT     H189960   3.711   3.751   1.257
29906WAT     H289961   3.712   3.700   1.102
29907WAT      O89962   8.285   8.719   6.813
29907WAT     H189963   8.250   8.756   6.900
29907WAT     H289964   8.293   8.792   6.746
29908WAT      O89965   2.491   1.924   5.513
29908WAT     H189966   2.562   1.916   5.443
29908WAT     H289967   2.508   1.857   5.585
29909WAT      O89968   6.190   6.608   2.342
29909WAT     H189969   6.129   6.615   2.421
29909WAT     H289970   6.234   6.697   2.327
29910WAT      O89971   1.040   5.090   3.747
29910WAT     H189972   1.069   5.080   3.842
29910WAT     H289973   1.055   5.004   3.698
29911WAT      O89974   0.979   8.796   6.849
29911WAT     H189975   1.066   8.815   6.804
29911WAT     H289976   0.932   8.882   6.868
29912WAT      O89977   2.112   8.411   1.335
29912WAT     H189978   2.200   8.458   1.338
29912WAT     H289979   2.112   8.335   1.401
29913WAT      O89980   2.981   1.452   3.382
29913WAT     H189981   2.986   1.450   3.481
29913WAT     H289982   2.986   1.547   3.350
29914WAT      O89983   7.282   3.638   1.404
29914WAT     H189984   7.291   3.728   1.362
29914WAT     H289985   7.213   3.585   1.354
29915WAT      O89986   6.024   2.573   0.202
29915WAT     H189987   6.021   2.522   0.287
29915WAT     H289988   6.008   2.511   0.125
29916WAT      O89989   2.260   7.108   4.358
29916WAT     H189990   2.333   7.146   4.415
29916WAT     H289991   2.281   7.012   4.338
29917WAT      O89992   0.818   2.485   3.987
29917WAT     H189993   0.791   2.555   3.920
29917WAT     H289994   0.859   2.408   3.939
29918WAT      O89995   1.179   2.490   0.210
29918WAT     H189996   1.096   2.439   0.187
29918WAT     H289997   1.194   2.561   0.141
29919WAT      O89998   0.160   0.175   0.927
29919WAT     H189999   0.104   0.104   0.971
29919WAT     H290000   0.229   0.207   0.992
29920WAT      O90001   9.030   3.229   3.666
29920WAT     H190002   9.044   3.327   3.653
29920WAT     H290003   9.059   3.203   3.759
29921WAT      O90004   8.948   6.970   3.345
29921WAT     H190005   8.906   7.017   3.423
29921WAT     H290006   8.896   6.887   3.324
29922WAT      O90007   1.487   3.596   3.012
29922WAT     H190008   1.505   3.667   2.944
29922WAT     H290009   1.552   3.604   3.088
29923WAT      O90010   3.271   9.287   3.528
29923WAT     H190011   3.211   9.263   3.451
29923WAT     H290012   3.215   9.309   3.608
29924WAT      O90013   2.601   8.917   6.778
29924WAT     H190014   2.559   9.003   6.748
29924WAT     H290015   2.563   8.842   6.724
29925WAT      O90016   9.328   8.530   4.828
29925WAT     H190017   9.281   8.609   4.867
29925WAT     H290018   9.426   8.539   4.842
29926WAT      O90019   3.386   1.963   8.318
29926WAT     H190020   3.392   1.981   8.416
29926WAT     H290021   3.293   1.980   8.287
29927WAT      O90022   9.187   2.527   2.202
29927WAT     H190023   9.248   2.508   2.126
29927WAT     H290024   9.236   2.580   2.271
29928WAT      O90025   8.300   3.137   8.431
29928WAT     H190026   8.290   3.234   8.409
29928WAT     H290027   8.210   3.094   8.435
29929WAT      O90028   8.760   2.386   8.438
29929WAT     H190029   8.839   2.428   8.393
29929WAT     H290030   8.781   2.371   8.535
29930WAT      O90031   7.426   4.172   7.502
29930WAT     H190032   7.401   4.076   7.498
29930WAT     H290033   7.511   4.187   7.451
29931WAT      O90034   2.508   7.844   4.269
29931WAT     H190035   2.465   7.760   4.304
29931WAT     H290036   2.462   7.924   4.307
29932WAT      O90037   6.029   5.241   2.516
29932WAT     H190038   6.045   5.182   2.595
29932WAT     H290039   5.962   5.197   2.455
29933WAT      O90040   9.112   7.996   9.023
29933WAT     H190041   9.115   8.003   9.122
29933WAT     H290042   9.204   8.014   8.986
29934WAT      O90043   0.920   0.373   2.925
29934WAT     H190044   0.971   0.431   2.988
29934WAT     H290045   0.979   0.298   2.893
29935WAT      O90046   9.275   8.729   8.761
29935WAT     H190047   9.294   8.743   8.664
29935WAT     H290048   9.280   8.816   8.809
29936WAT      O90049   1.274   8.715   0.111
29936WAT     H190050   1.194   8.772   0.093
29936WAT     H290051   1.350   8.743   0.052
29937WAT      O90052   0.325   8.559   9.807
29937WAT     H190053   0.306   8.464   9.782
29937WAT     H290054   0.245   8.616   9.788
29938WAT      O90055   4.045   3.753   6.764
29938WAT     H190056   4.118   3.688   6.744
29938WAT     H290057   3.979   3.711   6.826
29939WAT      O90058   8.383   1.535   8.122
29939WAT     H190059   8.423   1.490   8.201
29939WAT     H290060   8.387   1.473   8.043
29940WAT      O90061   0.232   2.703   0.692
29940WAT     H190062   0.198   2.675   0.602
29940WAT     H290063   0.261   2.799   0.688
29941WAT      O90064   8.115   1.152   7.816
29941WAT     H190065   8.053   1.085   7.858
29941WAT     H290066   8.083   1.174   7.724
29942WAT      O90067   6.497   2.815   4.066
29942WAT     H190068   6.445   2.897   4.091
29942WAT     H290069   6.502   2.754   4.145
29943WAT      O90070   3.553   6.854   3.803
29943WAT     H190071   3.641   6.860   3.755
29943WAT     H290072   3.555   6.778   3.867
29944WAT      O90073   8.576   4.297   9.103
29944WAT     H190074   8.626   4.322   9.020
29944WAT     H290075   8.641   4.269   9.174
29945WAT      O90076   3.765   5.578   6.306
29945WAT     H190077   3.781   5.672   6.335
29945WAT     H290078   3.839   5.549   6.246
29946WAT      O90079   1.924   7.120   9.826
29946WAT     H190080   1.951   7.045   9.765
29946WAT     H290081   1.909   7.203   9.771
29947WAT      O90082   7.641   6.559   6.121
29947WAT     H190083   7.622   6.647   6.165
29947WAT     H290084   7.555   6.507   6.114
29948WAT      O90085   4.621   1.363   5.087
29948WAT     H190086   4.636   1.276   5.040
29948WAT     H290087   4.528   1.396   5.067
29949WAT      O90088   2.015   8.030   8.365
29949WAT     H190089   1.981   8.060   8.276
29949WAT     H290090   1.938   7.998   8.421
29950WAT      O90091   7.774   7.375   0.366
29950WAT     H190092   7.781   7.279   0.394
29950WAT     H290093   7.810   7.385   0.273
29951WAT      O90094   6.639   2.823   4.552
29951WAT     H190095   6.715   2.797   4.492
29951WAT     H290096   6.668   2.896   4.614
29952WAT      O90097   7.422   8.793   4.458
29952WAT     H190098   7.423   8.881   4.506
29952WAT     H290099   7.516   8.767   4.435
29953WAT      O90100   6.768   7.117   8.355
29953WAT     H190101   6.863   7.132   8.330
29953WAT     H290102   6.729   7.201   8.392
29954WAT      O90103   4.840   8.030   3.641
29954WAT     H190104   4.806   8.123   3.655
29954WAT     H290105   4.925   8.033   3.587
29955WAT      O90106   6.611   7.872   3.985
29955WAT     H190107   6.628   7.811   3.907
29955WAT     H290108   6.692   7.928   4.001
29956WAT      O90109   3.161   8.787   1.282
29956WAT     H190110   3.215   8.783   1.197
29956WAT     H290111   3.188   8.711   1.341
29957WAT      O90112   9.555   2.201   2.227
29957WAT     H190113   9.466   2.225   2.266
29957WAT     H290114   9.563   2.242   2.136
29958WAT      O90115   6.651   2.196   9.471
29958WAT     H190116   6.583   2.145   9.525
29958WAT     H290117   6.725   2.226   9.532
29959WAT      O90118   5.222   2.021   7.305
29959WAT     H190119   5.225   1.991   7.210
29959WAT     H290120   5.227   1.942   7.366
29960WAT      O90121   2.809   4.561   5.953
29960WAT     H190122   2.764   4.633   5.900
29960WAT     H290123   2.754   4.478   5.950
29961WAT      O90124   9.878   1.086   5.900
29961WAT     H190125   9.853   1.102   5.995
29961WAT     H290126   9.816   1.018   5.860
29962WAT      O90127   1.327   0.501   6.383
29962WAT     H190128   1.417   0.459   6.395
29962WAT     H290129   1.279   0.455   6.307
29963WAT      O90130   7.969   5.193   6.605
29963WAT     H190131   7.960   5.283   6.648
29963WAT     H290132   7.970   5.122   6.676
29964WAT      O90133   6.357   6.651   8.964
29964WAT     H190134   6.368   6.567   9.017
29964WAT     H290135   6.261   6.662   8.939
29965WAT      O90136   3.853   8.139   2.730
29965WAT     H190137   3.861   8.077   2.652
29965WAT     H290138   3.825   8.229   2.698
29966WAT      O90139   1.757   3.360   6.324
29966WAT     H190140   1.813   3.279   6.310
29966WAT     H290141   1.808   3.441   6.296
29967WAT      O90142   8.769   4.247   9.295
29967WAT     H190143   8.787   4.345   9.294
29967WAT     H290144   8.718   4.224   9.378
29968WAT      O90145   1.076   0.213   9.289
29968WAT     H190146   1.081   0.299   9.238
29968WAT     H290147   1.156   0.157   9.269
29969WAT      O90148   2.506   1.333   3.475
29969WAT     H190149   2.408   1.338   3.490
29969WAT     H290150   2.525   1.338   3.377
29970WAT      O90151   3.057   9.438   0.488
29970WAT     H190152   2.959   9.421   0.472
29970WAT     H290153   3.093   9.370   0.551
29971WAT      O90154   9.759   0.120   2.562
29971WAT     H190155   9.752   0.218   2.576
29971WAT     H290156   9.716   0.094   2.476
29972WAT      O90157   4.150   2.980   1.119
29972WAT     H190158   4.111   2.951   1.207
29972WAT     H290159   4.077   3.017   1.061
29973WAT      O90160   4.137   8.776   6.509
29973WAT     H190161   4.225   8.761   6.554
29973WAT     H290162   4.081   8.693   6.516
29974WAT      O90163   4.270   2.743   2.387
29974WAT     H190164   4.207   2.774   2.315
29974WAT     H290165   4.325   2.667   2.352
29975WAT      O90166   1.768   1.366   2.451
29975WAT     H190167   1.731   1.302   2.383
29975WAT     H290168   1.701   1.380   2.524
29976WAT      O90169   7.742   4.499   1.891
29976WAT     H190170   7.808   4.543   1.951
29976WAT     H290171   7.789   4.464   1.810
29977WAT      O90172   2.201   5.873   4.141
29977WAT     H190173   2.148   5.796   4.175
29977WAT     H290174   2.230   5.931   4.217
29978WAT      O90175   1.398   8.165   0.189
29978WAT     H190176   1.465   8.113   0.243
29978WAT     H290177   1.437   8.186   0.099
29979WAT      O90178   2.360   6.138   3.826
29979WAT     H190179   2.309   6.142   3.740
29979WAT     H290180   2.348   6.048   3.868
29980WAT      O90181   3.516   3.293   1.863
29980WAT     H190182   3.459   3.214   1.839
29980WAT     H290183   3.457   3.366   1.898
29981WAT      O90184   7.631   3.436   6.889
29981WAT     H190185   7.641   3.535   6.893
29981WAT     H290186   7.634   3.398   6.982
29982WAT      O90187   8.179   0.493   8.270
29982WAT     H190188   8.268   0.533   8.290
29982WAT     H290189   8.185   0.435   8.189
29983WAT      O90190   0.673   6.737   1.288
29983WAT     H190191   0.576   6.751   1.271
29983WAT     H290192   0.724   6.820   1.262
29984WAT      O90193   4.362   8.571   1.882
29984WAT     H190194   4.334   8.477   1.901
29984WAT     H290195   4.281   8.625   1.858
29985WAT      O90196   7.999   0.767   9.734
29985WAT     H190197   7.943   0.792   9.655
29985WAT     H290198   8.051   0.847   9.764
29986WAT      O90199   5.905   5.737   4.621
29986WAT     H190200   5.881   5.668   4.553
29986WAT     H290201   5.881   5.703   4.713
29987WAT      O90202   1.476   6.214   2.010
29987WAT     H190203   1.550   6.274   2.041
29987WAT     H290204   1.513   6.144   1.950
29988WAT      O90205   6.320   8.609   1.165
29988WAT     H190206   6.261   8.644   1.238
29988WAT     H290207   6.341   8.683   1.101
29989WAT      O90208   4.751   0.030   3.941
29989WAT     H190209   4.693   0.094   3.891
29989WAT     H290210   4.791  -0.035   3.877
29990WAT      O90211   1.906   8.439   6.793
29990WAT     H190212   1.869   8.485   6.712
29990WAT     H290213   1.833   8.388   6.838
29991WAT      O90214   8.309   7.739   3.128
29991WAT     H190215   8.270   7.831   3.131
29991WAT     H290216   8.309   7.699   3.220
29992WAT      O90217   4.689   1.380   0.020
29992WAT     H190218   4.617   1.449   0.026
29992WAT     H290219   4.674   1.310   0.089
29993WAT      O90220   1.589   4.448   7.051
29993WAT     H190221   1.554   4.540   7.037
29993WAT     H290222   1.515   4.389   7.083
29994WAT      O90223   6.998   5.062   2.438
29994WAT     H190224   7.002   5.032   2.533
29994WAT     H290225   6.908   5.102   2.420
29995WAT      O90226   5.321   1.552   0.824
29995WAT     H190227   5.226   1.524   0.837
29995WAT     H290228   5.382   1.478   0.851
29996WAT      O90229   9.020   7.641   2.425
29996WAT     H190230   8.973   7.700   2.360
29996WAT     H290231   9.044   7.555   2.380
29997WAT      O90232   6.592   8.804   2.601
29997WAT     H190233   6.653   8.725   2.604
29997WAT     H290234   6.498   8.772   2.591
29998WAT      O90235   4.680   9.642   5.904
29998WAT     H190236   4.617   9.587   5.850
29998WAT     H290237   4.677   9.614   5.999
29999WAT      O90238   1.018   8.158   4.873
29999WAT     H190239   0.967   8.164   4.959
29999WAT     H290240   1.056   8.066   4.863
30000WAT      O90241   9.550   7.323   2.154
30000WAT     H190242   9.526   7.286   2.244
30000WAT     H290243   9.532   7.254   2.084
30001WAT      O90244   1.543   0.372   8.809
30001WAT     H190245   1.455   0.376   8.856
30001WAT     H290246   1.560   0.278   8.778
30002WAT      O90247   0.559   6.839   2.803
30002WAT     H190248   0.541   6.935   2.820
30002WAT     H290249   0.604   6.798   2.882
30003WAT      O90250   2.863   3.621   2.040
30003WAT     H190251   2.777   3.574   2.059
30003WAT     H290252   2.856   3.668   1.952
30004WAT      O90253   7.664   7.791   8.200
30004WAT     H190254   7.695   7.696   8.194
30004WAT     H290255   7.624   7.807   8.291
30005WAT      O90256   1.324   6.981   6.471
30005WAT     H190257   1.256   6.950   6.404
30005WAT     H290258   1.290   6.961   6.563
30006WAT      O90259   3.708   1.261   3.528
30006WAT     H190260   3.768   1.299   3.598
30006WAT     H290261   3.730   1.300   3.439
30007WAT      O90262   2.098   4.828   7.110
30007WAT     H190263   2.088   4.915   7.158
30007WAT     H290264   2.190   4.821   7.072
30008WAT      O90265   0.711   0.665   1.781
30008WAT     H190266   0.806   0.691   1.764
30008WAT     H290267   0.681   0.703   1.868
30009WAT      O90268   5.518   9.647   6.127
30009WAT     H190269   5.471   9.700   6.197
30009WAT     H290270   5.590   9.592   6.168
30010WAT      O90271   1.083   3.092   4.559
30010WAT     H190272   1.094   3.181   4.515
30010WAT     H290273   0.990   3.059   4.545
30011WAT      O90274   6.427   1.145   5.693
30011WAT     H190275   6.398   1.050   5.700
30011WAT     H290276   6.350   1.202   5.665
30012WAT      O90277   8.021   1.467   7.580
30012WAT     H190278   8.101   1.520   7.553
30012WAT     H290279   8.008   1.475   7.679
30013WAT      O90280   7.212   2.128   4.219
30013WAT     H190281   7.269   2.146   4.138
30013WAT     H290282   7.131   2.186   4.215
30014WAT      O90283   7.827   3.482   2.979
30014WAT     H190284   7.738   3.526   2.991
30014WAT     H290285   7.899   3.552   2.986
30015WAT      O90286   9.549   0.972   8.975
30015WAT     H190287   9.500   1.034   8.914
30015WAT     H290288   9.501   0.885   8.979
30016WAT      O90289   0.776   3.369   2.820
30016WAT     H190290   0.830   3.445   2.856
30016WAT     H290291   0.693   3.404   2.778
30017WAT      O90292   6.709   2.180   4.967
30017WAT     H190293   6.764   2.137   4.896
30017WAT     H290294   6.731   2.278   4.972
30018WAT      O90295   8.990   9.245   5.477
30018WAT     H190296   8.992   9.145   5.477
30018WAT     H290297   8.998   9.278   5.383
30019WAT      O90298   6.180   1.747   2.322
30019WAT     H190299   6.216   1.681   2.255
30019WAT     H290300   6.162   1.834   2.276
30020WAT      O90301   8.839   1.051   9.750
30020WAT     H190302   8.748   1.088   9.771
30020WAT     H290303   8.907   1.096   9.808
30021WAT      O90304   7.015   2.363   8.764
30021WAT     H190305   7.025   2.380   8.862
30021WAT     H290306   7.053   2.440   8.713
30022WAT      O90307   5.476   9.315   7.958
30022WAT     H190308   5.505   9.403   7.921
30022WAT     H290309   5.379   9.317   7.980
30023WAT      O90310   8.469   4.990   6.064
30023WAT     H190311   8.482   4.958   5.970
30023WAT     H290312   8.377   5.027   6.075
30024WAT      O90313   6.611   0.524   3.499
30024WAT     H190314   6.640   0.599   3.439
30024WAT     H290315   6.643   0.542   3.592
30025WAT      O90316   6.797   8.681   6.934
30025WAT     H190317   6.889   8.645   6.948
30025WAT     H290318   6.794   8.734   6.850
30026WAT      O90319   0.966   2.208   2.810
30026WAT     H190320   1.065   2.218   2.808
30026WAT     H290321   0.929   2.218   2.717
30027WAT      O90322   8.186   3.177   4.380
30027WAT     H190323   8.237   3.251   4.335
30027WAT     H290324   8.229   3.089   4.359
30028WAT      O90325   7.647   4.558   8.601
30028WAT     H190326   7.692   4.501   8.669
30028WAT     H290327   7.593   4.628   8.646
30029WAT      O90328   4.474   3.885   0.629
30029WAT     H190329   4.519   3.937   0.557
30029WAT     H290330   4.496   3.788   0.620
30030WAT      O90331   6.702   6.643   7.660
30030WAT     H190332   6.679   6.554   7.622
30030WAT     H290333   6.623   6.679   7.710
30031WAT      O90334   9.686   0.162   6.680
30031WAT     H190335   9.778   0.161   6.641
30031WAT     H290336   9.672   0.247   6.731
30032WAT      O90337   7.941   4.926   5.902
30032WAT     H190338   7.942   4.942   6.001
30032WAT     H290339   7.929   4.829   5.884
30033WAT      O90340   7.366   3.922   1.874
30033WAT     H190341   7.294   3.941   1.808
30033WAT     H290342   7.335   3.851   1.937
30034WAT      O90343   1.352   0.235   6.681
30034WAT     H190344   1.407   0.186   6.614
30034WAT     H290345   1.255   0.219   6.663
30035WAT      O90346   6.620   8.683   5.805
30035WAT     H190347   6.556   8.709   5.733
30035WAT     H290348   6.577   8.615   5.864
30036WAT      O90349   0.501   4.389   9.702
30036WAT     H190350   0.542   4.303   9.671
30036WAT     H290351   0.436   4.371   9.776
30037WAT      O90352   9.422   7.301   9.550
30037WAT     H190353   9.398   7.284   9.455
30037WAT     H290354   9.507   7.353   9.555
30038WAT      O90355   8.538   8.038   8.592
30038WAT     H190356   8.439   8.046   8.596
30038WAT     H290357   8.578   8.127   8.569
30039WAT      O90358   3.124   3.683   9.393
30039WAT     H190359   3.061   3.709   9.319
30039WAT     H290360   3.078   3.619   9.455
30040WAT      O90361   5.243   5.091   9.476
30040WAT     H190362   5.169   5.150   9.443
30040WAT     H290363   5.206   5.022   9.538
30041WAT      O90364   4.131   3.611   2.622
30041WAT     H190365   4.185   3.695   2.615
30041WAT     H290366   4.049   3.620   2.565
30042WAT      O90367   0.123   5.394   5.472
30042WAT     H190368   0.033   5.427   5.442
30042WAT     H290369   0.195   5.447   5.427
30043WAT      O90370   0.214   7.105   8.475
30043WAT     H190371   0.172   7.104   8.566
30043WAT     H290372   0.149   7.071   8.408
30044WAT      O90373   4.675   6.621   1.403
30044WAT     H190374   4.712   6.667   1.322
30044WAT     H290375   4.701   6.672   1.485
30045WAT      O90376   3.097   1.570   0.964
30045WAT     H190377   3.124   1.474   0.953
30045WAT     H290378   3.179   1.627   0.973
30046WAT      O90379   1.885   8.012   3.069
30046WAT     H190380   1.932   8.098   3.090
30046WAT     H290381   1.788   8.022   3.090
30047WAT      O90382   5.056   6.639   8.520
30047WAT     H190383   4.974   6.630   8.463
30047WAT     H290384   5.107   6.552   8.518
30048WAT      O90385   6.168   2.117   1.501
30048WAT     H190386   6.258   2.152   1.530
30048WAT     H290387   6.096   2.174   1.541
30049WAT      O90388   0.355   7.485   5.303
30049WAT     H190389   0.389   7.467   5.211
30049WAT     H290390   0.311   7.402   5.339
30050WAT      O90391   1.055   5.361   0.721
30050WAT     H190392   1.005   5.447   0.732
30050WAT     H290393   1.128   5.373   0.654
30051WAT      O90394   2.439   6.398   3.341
30051WAT     H190395   2.377   6.468   3.375
30051WAT     H290396   2.534   6.428   3.354
30052WAT      O90397   0.473   9.085   5.364
30052WAT     H190398   0.473   9.015   5.293
30052WAT     H290399   0.426   9.051   5.446
30053WAT      O90400   9.727   7.706   8.986
30053WAT     H190401   9.818   7.744   8.970
30053WAT     H290402   9.720   7.616   8.943
30054WAT      O90403   5.826   9.667   8.089
30054WAT     H190404   5.838   9.574   8.123
30054WAT     H290405   5.890   9.685   8.015
30055WAT      O90406   0.275   0.102   1.666
30055WAT     H190407   0.274   0.091   1.567
30055WAT     H290408   0.343   0.171   1.691
30056WAT      O90409   5.280   1.707   9.472
30056WAT     H190410   5.316   1.762   9.547
30056WAT     H290411   5.354   1.657   9.428
30057WAT      O90412   0.930   5.694   4.107
30057WAT     H190413   0.990   5.767   4.075
30057WAT     H290414   0.917   5.702   4.205
30058WAT      O90415   6.135   8.455   6.633
30058WAT     H190416   6.222   8.438   6.679
30058WAT     H290417   6.151   8.468   6.535
30059WAT      O90418   4.085   2.785   2.164
30059WAT     H190419   4.052   2.691   2.159
30059WAT     H290420   4.019   2.841   2.214
30060WAT      O90421   6.309   1.567   9.556
30060WAT     H190422   6.340   1.498   9.621
30060WAT     H290423   6.320   1.658   9.595
30061WAT      O90424   3.545   6.178   6.084
30061WAT     H190425   3.458   6.154   6.040
30061WAT     H290426   3.620   6.166   6.019
30062WAT      O90427   1.076   7.914   3.706
30062WAT     H190428   0.990   7.954   3.673
30062WAT     H290429   1.063   7.816   3.723
30063WAT      O90430   9.239   5.474   0.213
30063WAT     H190431   9.214   5.481   0.309
30063WAT     H290432   9.169   5.422   0.164
30064WAT      O90433   2.050   3.989   9.660
30064WAT     H190434   1.979   4.056   9.637
30064WAT     H290435   2.073   3.996   9.757
30065WAT      O90436   8.020   8.664   2.017
30065WAT     H190437   8.083   8.587   2.022
30065WAT     H290438   7.980   8.669   1.926
30066WAT      O90439   1.263   8.070   0.618
30066WAT     H190440   1.185   8.009   0.627
30066WAT     H290441   1.348   8.019   0.633
30067WAT      O90442   2.272   2.457   7.949
30067WAT     H190443   2.341   2.433   8.018
30067WAT     H290444   2.184   2.471   7.994
30068WAT      O90445   2.996   6.862   1.756
30068WAT     H190446   2.941   6.941   1.783
30068WAT     H290447   2.939   6.798   1.706
30069WAT      O90448   9.803   4.881   4.120
30069WAT     H190449   9.889   4.844   4.086
30069WAT     H290450   9.816   4.977   4.146
30070WAT      O90451   4.993   6.349   5.217
30070WAT     H190452   4.936   6.269   5.200
30070WAT     H290453   4.937   6.424   5.249
30071WAT      O90454   0.335   6.912   6.060
30071WAT     H190455   0.319   6.981   6.131
30071WAT     H290456   0.431   6.882   6.064
30072WAT      O90457   3.519   1.549   7.573
30072WAT     H190458   3.585   1.475   7.580
30072WAT     H290459   3.503   1.587   7.665
30073WAT      O90460   1.206   6.758   3.828
30073WAT     H190461   1.136   6.750   3.757
30073WAT     H290462   1.164   6.791   3.913
30074WAT      O90463   4.132   3.008   9.781
30074WAT     H190464   4.061   3.078   9.776
30074WAT     H290465   4.172   2.994   9.691
30075WAT      O90466   5.091   5.691   4.587
30075WAT     H190467   5.030   5.615   4.565
30075WAT     H290468   5.038   5.767   4.626
30076WAT      O90469   2.130   9.681   8.417
30076WAT     H190470   2.188   9.748   8.463
30076WAT     H290471   2.187   9.617   8.366
30077WAT      O90472   1.070   8.918   4.524
30077WAT     H190473   1.033   8.897   4.433
30077WAT     H290474   1.063   9.016   4.540
30078WAT      O90475   3.137   2.661   7.406
30078WAT     H190476   3.165   2.714   7.486
30078WAT     H290477   3.049   2.695   7.372
30079WAT      O90478   4.412   2.196   2.683
30079WAT     H190479   4.447   2.106   2.658
30079WAT     H290480   4.442   2.264   2.616
30080WAT      O90481   5.211   8.278   4.767
30080WAT     H190482   5.311   8.264   4.769
30080WAT     H290483   5.176   8.275   4.860
30081WAT      O90484   1.475   1.091   9.244
30081WAT     H190485   1.426   1.092   9.331
30081WAT     H290486   1.413   1.120   9.171
30082WAT      O90487   0.199   1.588   0.999
30082WAT     H190488   0.191   1.665   0.935
30082WAT     H290489   0.208   1.503   0.947
30083WAT      O90490   6.892   2.791   2.799
30083WAT     H190491   6.940   2.837   2.724
30083WAT     H290492   6.950   2.791   2.880
30084WAT      O90493   2.648   7.904   6.825
30084WAT     H190494   2.622   7.865   6.913
30084WAT     H290495   2.681   7.831   6.765
30085WAT      O90496   8.482   1.564   6.353
30085WAT     H190497   8.502   1.661   6.338
30085WAT     H290498   8.560   1.521   6.399
30086WAT      O90499   1.615   4.132   5.255
30086WAT     H190500   1.517   4.144   5.268
30086WAT     H290501   1.664   4.167   5.335
30087WAT      O90502   5.906   9.235   8.394
30087WAT     H190503   5.870   9.147   8.362
30087WAT     H290504   6.004   9.226   8.411
30088WAT      O90505   0.686   5.804   3.529
30088WAT     H190506   0.665   5.717   3.575
30088WAT     H290507   0.735   5.785   3.444
30089WAT      O90508   9.015   1.216   2.388
30089WAT     H190509   9.060   1.134   2.423
30089WAT     H290510   9.053   1.297   2.432
30090WAT      O90511   7.267   8.394   6.679
30090WAT     H190512   7.191   8.335   6.703
30090WAT     H290513   7.353   8.352   6.710
30091WAT      O90514   7.228   4.903   1.974
30091WAT     H190515   7.234   4.877   2.070
30091WAT     H290516   7.201   4.999   1.967
30092WAT      O90517   7.083   5.220   7.387
30092WAT     H190518   7.176   5.258   7.395
30092WAT     H290519   7.021   5.291   7.355
30093WAT      O90520   4.683   3.075   1.965
30093WAT     H190521   4.782   3.084   1.973
30093WAT     H290522   4.649   3.140   1.897
30094WAT      O90523   3.828   4.288   8.162
30094WAT     H190524   3.878   4.260   8.244
30094WAT     H290525   3.871   4.247   8.081
30095WAT      O90526   2.800   4.588   7.116
30095WAT     H190527   2.715   4.640   7.104
30095WAT     H290528   2.876   4.637   7.073
30096WAT      O90529   7.769   7.114   9.697
30096WAT     H190530   7.845   7.103   9.633
30096WAT     H290531   7.776   7.204   9.741
30097WAT      O90532   8.320   2.215   1.480
30097WAT     H190533   8.418   2.204   1.468
30097WAT     H290534   8.284   2.275   1.408
30098WAT      O90535   7.475   7.851   0.011
30098WAT     H190536   7.382   7.853  -0.024
30098WAT     H290537   7.535   7.905  -0.048
30099WAT      O90538   1.184   2.576   9.033
30099WAT     H190539   1.261   2.626   8.993
30099WAT     H290540   1.098   2.612   8.996
30100WAT      O90541   0.009   4.402   3.593
30100WAT     H190542   0.059   4.320   3.566
30100WAT     H290543  -0.007   4.401   3.691
30101WAT      O90544   5.279   0.823   8.411
30101WAT     H190545   5.355   0.819   8.476
30101WAT     H290546   5.275   0.914   8.371
30102WAT      O90547   6.186   9.357   8.306
30102WAT     H190548   6.221   9.280   8.359
30102WAT     H290549   6.206   9.344   8.210
30103WAT      O90550   3.060   8.975   8.555
30103WAT     H190551   2.996   8.991   8.630
30103WAT     H290552   3.024   9.014   8.471
30104WAT      O90553   8.139   1.291   8.996
30104WAT     H190554   8.088   1.206   8.987
30104WAT     H290555   8.237   1.272   8.984
30105WAT      O90556   7.835   5.640   2.012
30105WAT     H190557   7.894   5.564   1.982
30105WAT     H290558   7.888   5.702   2.070
30106WAT      O90559   4.474   8.874   6.822
30106WAT     H190560   4.450   8.970   6.810
30106WAT     H290561   4.572   8.865   6.840
30107WAT      O90562   3.939   8.837   0.160
30107WAT     H190563   4.015   8.847   0.225
30107WAT     H290564   3.958   8.891   0.078
30108WAT      O90565   3.630   5.180   3.616
30108WAT     H190566   3.548   5.147   3.662
30108WAT     H290567   3.611   5.267   3.571
30109WAT      O90568   3.942   4.768   7.156
30109WAT     H190569   3.850   4.770   7.119
30109WAT     H290570   3.958   4.680   7.200
30110WAT      O90571   8.620   4.161   6.868
30110WAT     H190572   8.628   4.248   6.819
30110WAT     H290573   8.710   4.118   6.874
30111WAT      O90574   0.727   9.765   6.702
30111WAT     H190575   0.723   9.730   6.795
30111WAT     H290576   0.707   9.692   6.637
30112WAT      O90577   6.691   2.967   6.296
30112WAT     H190578   6.748   3.028   6.351
30112WAT     H290579   6.716   2.872   6.314
30113WAT      O90580   3.661   3.300   0.615
30113WAT     H190581   3.590   3.291   0.545
30113WAT     H290582   3.711   3.385   0.599
30114WAT      O90583   7.826   5.542   4.542
30114WAT     H190584   7.777   5.590   4.470
30114WAT     H290585   7.924   5.560   4.534
30115WAT      O90586   0.007   2.807   2.792
30115WAT     H190587  -0.032   2.899   2.791
30115WAT     H290588   0.049   2.790   2.881
30116WAT      O90589   3.186   6.914   3.255
30116WAT     H190590   3.152   6.867   3.173
30116WAT     H290591   3.272   6.873   3.284
30117WAT      O90592   7.965   6.530   0.858
30117WAT     H190593   8.016   6.466   0.916
30117WAT     H290594   7.899   6.580   0.914
30118WAT      O90595   4.726   6.734   9.526
30118WAT     H190596   4.626   6.737   9.525
30118WAT     H290597   4.762   6.780   9.445
30119WAT      O90598   2.061   4.886   1.241
30119WAT     H190599   1.974   4.935   1.239
30119WAT     H290600   2.128   4.934   1.185
30120WAT      O90601   1.259   3.175   1.181
30120WAT     H190602   1.314   3.149   1.260
30120WAT     H290603   1.194   3.247   1.206
30121WAT      O90604   5.975   8.802   9.703
30121WAT     H190605   6.030   8.837   9.779
30121WAT     H290606   6.018   8.721   9.664
30122WAT      O90607   9.656   5.008   8.247
30122WAT     H190608   9.747   5.045   8.232
30122WAT     H290609   9.632   5.015   8.344
30123WAT      O90610   9.359   3.672   4.886
30123WAT     H190611   9.310   3.759   4.881
30123WAT     H290612   9.450   3.688   4.925
30124WAT      O90613   4.437   8.677   8.994
30124WAT     H190614   4.516   8.650   9.050
30124WAT     H290615   4.376   8.733   9.050
30125WAT      O90616   2.945   7.747   8.921
30125WAT     H190617   3.009   7.689   8.870
30125WAT     H290618   2.851   7.724   8.894
30126WAT      O90619   8.735   5.060   6.097
30126WAT     H190620   8.649   5.010   6.090
30126WAT     H290621   8.807   4.999   6.131
30127WAT      O90622   0.208   5.284   1.049
30127WAT     H190623   0.288   5.323   1.003
30127WAT     H290624   0.237   5.214   1.114
30128WAT      O90625   1.615   1.149   7.934
30128WAT     H190626   1.517   1.129   7.946
30128WAT     H290627   1.664   1.120   8.017
30129WAT      O90628   1.117   6.704   2.173
30129WAT     H190629   1.023   6.731   2.151
30129WAT     H290630   1.125   6.605   2.169
30130WAT      O90631   2.925   4.125   3.061
30130WAT     H190632   2.826   4.131   3.051
30130WAT     H290633   2.950   4.151   3.155
30131WAT      O90634   2.777   4.268   7.446
30131WAT     H190635   2.749   4.181   7.406
30131WAT     H290636   2.803   4.253   7.542
30132WAT      O90637   3.261   5.247   4.991
30132WAT     H190638   3.182   5.292   5.033
30132WAT     H290639   3.270   5.276   4.896
30133WAT      O90640   1.880   0.742   4.272
30133WAT     H190641   1.803   0.702   4.222
30133WAT     H290642   1.878   0.709   4.366
30134WAT      O90643   9.309   9.234   0.182
30134WAT     H190644   9.313   9.263   0.087
30134WAT     H290645   9.214   9.216   0.208
30135WAT      O90646   5.448   7.590   6.389
30135WAT     H190647   5.413   7.508   6.345
30135WAT     H290648   5.404   7.671   6.350
30136WAT      O90649   6.278   5.302   0.197
30136WAT     H190650   6.267   5.279   0.294
30136WAT     H290651   6.361   5.259   0.162
30137WAT      O90652   7.569   0.592   7.369
30137WAT     H190653   7.582   0.527   7.443
30137WAT     H290654   7.654   0.644   7.355
30138WAT      O90655   8.791   6.311   8.596
30138WAT     H190656   8.720   6.295   8.664
30138WAT     H290657   8.843   6.227   8.580
30139WAT      O90658   1.659   8.390   0.516
30139WAT     H190659   1.582   8.380   0.453
30139WAT     H290660   1.684   8.300   0.552
30140WAT      O90661   3.532   8.993   3.102
30140WAT     H190662   3.472   8.976   3.024
30140WAT     H290663   3.618   9.034   3.071
30141WAT      O90664   9.139   4.021   1.612
30141WAT     H190665   9.189   4.103   1.640
30141WAT     H290666   9.104   3.975   1.693
30142WAT      O90667   2.820   3.896   1.061
30142WAT     H190668   2.766   3.815   1.040
30142WAT     H290669   2.765   3.978   1.044
30143WAT      O90670   3.559   1.603   1.150
30143WAT     H190671   3.531   1.507   1.149
30143WAT     H290672   3.548   1.640   1.242
30144WAT      O90673   3.224   2.446   4.593
30144WAT     H190674   3.249   2.403   4.506
30144WAT     H290675   3.173   2.530   4.576
30145WAT      O90676   7.536   6.470   7.432
30145WAT     H190677   7.499   6.381   7.407
30145WAT     H290678   7.636   6.467   7.429
30146WAT      O90679   7.603   2.761   5.648
30146WAT     H190680   7.679   2.772   5.584
30146WAT     H290681   7.521   2.804   5.610
30147WAT      O90682   2.820   2.299   6.349
30147WAT     H190683   2.724   2.326   6.344
30147WAT     H290684   2.855   2.317   6.441
30148WAT      O90685   1.326   4.926   6.540
30148WAT     H190686   1.306   4.847   6.483
30148WAT     H290687   1.357   4.895   6.630
30149WAT      O90688   8.904   9.587   6.158
30149WAT     H190689   8.884   9.637   6.073
30149WAT     H290690   8.820   9.545   6.192
30150WAT      O90691   1.234   1.379   4.548
30150WAT     H190692   1.215   1.473   4.518
30150WAT     H290693   1.331   1.371   4.571
30151WAT      O90694   2.284   1.344   5.576
30151WAT     H190695   2.240   1.354   5.487
30151WAT     H290696   2.315   1.434   5.608
30152WAT      O90697   9.068   0.938   5.173
30152WAT     H190698   9.146   0.961   5.115
30152WAT     H290699   9.085   0.850   5.218
30153WAT      O90700   8.805   4.443   6.778
30153WAT     H190701   8.726   4.414   6.724
30153WAT     H290702   8.887   4.436   6.721
30154WAT      O90703   4.502   3.622   1.714
30154WAT     H190704   4.571   3.575   1.660
30154WAT     H290705   4.420   3.637   1.658
30155WAT      O90706   5.080   9.694   0.445
30155WAT     H190707   5.024   9.656   0.371
30155WAT     H290708   5.148   9.626   0.474
30156WAT      O90709   3.370   3.040   0.250
30156WAT     H190710   3.301   2.968   0.248
30156WAT     H290711   3.415   3.046   0.161
30157WAT      O90712   9.303   4.088   6.638
30157WAT     H190713   9.247   4.013   6.601
30157WAT     H290714   9.376   4.050   6.694
30158WAT      O90715   6.671   7.071   9.267
30158WAT     H190716   6.611   7.110   9.337
30158WAT     H290717   6.637   7.096   9.176
30159WAT      O90718   7.829   1.203   5.905
30159WAT     H190719   7.767   1.187   5.829
30159WAT     H290720   7.839   1.302   5.919
30160WAT      O90721   3.448   1.993   7.510
30160WAT     H190722   3.463   2.064   7.579
30160WAT     H290723   3.483   1.906   7.544
30161WAT      O90724   6.754   3.197   6.731
30161WAT     H190725   6.783   3.142   6.809
30161WAT     H290726   6.662   3.233   6.747
30162WAT      O90727   6.817   0.813   3.708
30162WAT     H190728   6.794   0.910   3.712
30162WAT     H290729   6.888   0.798   3.640
30163WAT      O90730   6.619   1.329   1.512
30163WAT     H190731   6.718   1.328   1.499
30163WAT     H290732   6.574   1.329   1.423
30164WAT      O90733   6.900   5.428   7.322
30164WAT     H190734   6.892   5.508   7.262
30164WAT     H290735   6.812   5.381   7.327
30165WAT      O90736   2.149   3.126   7.212
30165WAT     H190737   2.131   3.202   7.149
30165WAT     H290738   2.097   3.140   7.297
30166WAT      O90739   5.188   6.806   7.681
30166WAT     H190740   5.206   6.863   7.761
30166WAT     H290741   5.108   6.840   7.632
30167WAT      O90742   7.347   9.419   3.798
30167WAT     H190743   7.306   9.375   3.878
30167WAT     H290744   7.364   9.351   3.728
30168WAT      O90745   3.074   5.598   4.257
30168WAT     H190746   3.022   5.546   4.325
30168WAT     H290747   3.154   5.545   4.229
30169WAT      O90748   7.885   3.282   5.249
30169WAT     H190749   7.840   3.270   5.161
30169WAT     H290750   7.921   3.375   5.256
30170WAT      O90751   8.899   6.209   8.142
30170WAT     H190752   8.895   6.120   8.098
30170WAT     H290753   8.825   6.215   8.210
30171WAT      O90754   1.230   9.346   1.002
30171WAT     H190755   1.228   9.264   0.944
30171WAT     H290756   1.187   9.326   1.090
30172WAT      O90757   2.760   9.127   7.842
30172WAT     H190758   2.808   9.188   7.905
30172WAT     H290759   2.686   9.177   7.796
30173WAT      O90760   6.992   3.938   5.435
30173WAT     H190761   6.977   3.890   5.521
30173WAT     H290762   6.993   4.037   5.451
30174WAT      O90763   8.100   6.293   4.085
30174WAT     H190764   8.086   6.321   3.990
30174WAT     H290765   8.188   6.248   4.094
30175WAT      O90766   4.517   8.738   5.962
30175WAT     H190767   4.558   8.820   6.002
30175WAT     H290768   4.550   8.657   6.011
30176WAT      O90769   8.399   5.388   7.150
30176WAT     H190770   8.328   5.330   7.110
30176WAT     H290771   8.358   5.471   7.187
30177WAT      O90772   6.420   5.600   7.980
30177WAT     H190773   6.409   5.692   8.018
30177WAT     H290774   6.390   5.600   7.885
30178WAT      O90775   8.715   4.666   2.874
30178WAT     H190776   8.792   4.615   2.911
30178WAT     H290777   8.741   4.762   2.860
30179WAT      O90778   3.990   1.713   0.296
30179WAT     H190779   3.986   1.736   0.393
30179WAT     H290780   3.981   1.796   0.242
30180WAT      O90781   3.274   0.532   7.631
30180WAT     H190782   3.219   0.600   7.679
30180WAT     H290783   3.336   0.579   7.567
30181WAT      O90784   4.566   3.575   9.654
30181WAT     H190785   4.483   3.605   9.701
30181WAT     H290786   4.629   3.534   9.720
30182WAT      O90787   5.848   1.121   8.829
30182WAT     H190788   5.905   1.043   8.852
30182WAT     H290789   5.786   1.097   8.754
30183WAT      O90790   2.785   0.868   2.734
30183WAT     H190791   2.735   0.948   2.698
30183WAT     H290792   2.875   0.864   2.691
30184WAT      O90793   0.717   4.915   9.355
30184WAT     H190794   0.630   4.904   9.403
30184WAT     H290795   0.749   4.826   9.323
30185WAT      O90796   8.472   9.428   8.692
30185WAT     H190797   8.397   9.363   8.679
30185WAT     H290798   8.559   9.378   8.690
30186WAT      O90799   5.345   1.448   2.307
30186WAT     H190800   5.270   1.397   2.348
30186WAT     H290801   5.316   1.543   2.292
30187WAT      O90802   7.391   1.580   4.237
30187WAT     H190803   7.363   1.665   4.283
30187WAT     H290804   7.395   1.506   4.304
30188WAT      O90805   9.484   4.159   1.668
30188WAT     H190806   9.440   4.120   1.587
30188WAT     H290807   9.574   4.118   1.680
30189WAT      O90808   4.299   9.807   7.399
30189WAT     H190809   4.297   9.903   7.371
30189WAT     H290810   4.318   9.749   7.320
30190WAT      O90811   2.302   3.913   2.188
30190WAT     H190812   2.348   3.859   2.259
30190WAT     H290813   2.306   3.864   2.101
30191WAT      O90814   5.912   4.578   0.505
30191WAT     H190815   5.947   4.486   0.525
30191WAT     H290816   5.860   4.612   0.584
30192WAT      O90817   8.307   1.436   1.352
30192WAT     H190818   8.350   1.524   1.338
30192WAT     H290819   8.230   1.426   1.289
30193WAT      O90820   7.883   1.081   3.582
30193WAT     H190821   7.806   1.049   3.526
30193WAT     H290822   7.959   1.107   3.522
30194WAT      O90823   9.190   8.734   4.988
30194WAT     H190824   9.225   8.812   5.039
30194WAT     H290825   9.090   8.734   4.992
30195WAT      O90826   9.348   1.759   8.583
30195WAT     H190827   9.322   1.845   8.539
30195WAT     H290828   9.343   1.684   8.516
30196WAT      O90829   9.596   1.425   3.795
30196WAT     H190830   9.527   1.455   3.861
30196WAT     H290831   9.614   1.328   3.808
30197WAT      O90832   3.873   6.002   0.766
30197WAT     H190833   3.950   5.964   0.818
30197WAT     H290834   3.888   5.987   0.668
30198WAT      O90835   7.387   4.641   7.287
30198WAT     H190836   7.348   4.663   7.198
30198WAT     H290837   7.317   4.655   7.358
30199WAT      O90838   9.815   1.966   4.150
30199WAT     H190839   9.864   1.892   4.104
30199WAT     H290840   9.881   2.023   4.200
30200WAT      O90841   7.877   4.356   1.673
30200WAT     H190842   7.834   4.381   1.587
30200WAT     H290843   7.976   4.375   1.668
30201WAT      O90844   4.651   2.506   8.841
30201WAT     H190845   4.648   2.549   8.931
30201WAT     H290846   4.563   2.518   8.794
30202WAT      O90847   1.513   7.651   9.044
30202WAT     H190848   1.438   7.590   9.071
30202WAT     H290849   1.483   7.746   9.050
30203WAT      O90850   6.293   2.602   4.981
30203WAT     H190851   6.208   2.645   4.949
30203WAT     H290852   6.293   2.506   4.956
30204WAT      O90853   0.916   4.832   2.937
30204WAT     H190854   1.007   4.871   2.931
30204WAT     H290855   0.889   4.795   2.848
30205WAT      O90856   7.976   1.167   0.631
30205WAT     H190857   8.042   1.134   0.699
30205WAT     H290858   8.018   1.164   0.541
30206WAT      O90859   6.442   4.077   2.162
30206WAT     H190860   6.382   4.154   2.141
30206WAT     H290861   6.537   4.106   2.157
30207WAT      O90862   4.772   9.198   8.234
30207WAT     H190863   4.777   9.159   8.326
30207WAT     H290864   4.680   9.186   8.198
30208WAT      O90865   2.530   1.452   6.988
30208WAT     H190866   2.583   1.369   7.004
30208WAT     H290867   2.567   1.500   6.908
30209WAT      O90868   7.790   6.000   9.374
30209WAT     H190869   7.767   6.091   9.409
30209WAT     H290870   7.874   5.968   9.419
30210WAT      O90871   5.425   6.318   3.247
30210WAT     H190872   5.436   6.323   3.346
30210WAT     H290873   5.371   6.396   3.215
30211WAT      O90874   3.645   6.377   3.410
30211WAT     H190875   3.737   6.341   3.428
30211WAT     H290876   3.632   6.462   3.462
30212WAT      O90877   9.815   7.715   4.140
30212WAT     H190878   9.907   7.686   4.167
30212WAT     H290879   9.763   7.740   4.222
30213WAT      O90880   5.941   9.374   3.431
30213WAT     H190881   5.977   9.323   3.353
30213WAT     H290882   5.974   9.468   3.429
30214WAT      O90883   8.923   1.812   7.805
30214WAT     H190884   8.914   1.854   7.895
30214WAT     H290885   8.999   1.747   7.806
30215WAT      O90886   3.784   4.180   6.022
30215WAT     H190887   3.780   4.081   6.037
30215WAT     H290888   3.738   4.227   6.097
30216WAT      O90889   8.002   6.691   3.903
30216WAT     H190890   8.023   6.753   3.827
30216WAT     H290891   7.902   6.687   3.915
30217WAT      O90892   6.701   5.455   1.995
30217WAT     H190893   6.715   5.436   1.898
30217WAT     H290894   6.622   5.404   2.028
30218WAT      O90895   2.735   0.233   6.086
30218WAT     H190896   2.658   0.192   6.133
30218WAT     H290897   2.790   0.286   6.151
30219WAT      O90898   0.930   4.322   9.759
30219WAT     H190899   1.027   4.302   9.773
30219WAT     H290900   0.875   4.246   9.791
30220WAT      O90901   0.664   0.751   3.319
30220WAT     H190902   0.614   0.716   3.398
30220WAT     H290903   0.627   0.710   3.235
30221WAT      O90904   2.534   3.065   7.631
30221WAT     H190905   2.581   2.985   7.594
30221WAT     H290906   2.494   3.043   7.719
30222WAT      O90907   4.964   6.639   5.592
30222WAT     H190908   5.057   6.652   5.557
30222WAT     H290909   4.941   6.713   5.655
30223WAT      O90910   0.906   8.298   7.059
30223WAT     H190911   0.847   8.218   7.067
30223WAT     H290912   0.892   8.358   7.137
30224WAT      O90913   4.483   8.483   5.369
30224WAT     H190914   4.529   8.481   5.458
30224WAT     H290915   4.473   8.390   5.334
30225WAT      O90916   7.268   2.483   1.332
30225WAT     H190917   7.230   2.557   1.388
30225WAT     H290918   7.201   2.456   1.263
30226WAT      O90919   7.276   3.815   8.184
30226WAT     H190920   7.341   3.891   8.177
30226WAT     H290921   7.291   3.766   8.270
30227WAT      O90922   1.784   3.789   6.492
30227WAT     H190923   1.829   3.749   6.572
30227WAT     H290924   1.823   3.750   6.409
30228WAT      O90925   7.563   0.709   3.824
30228WAT     H190926   7.660   0.734   3.821
30228WAT     H290927   7.511   0.783   3.867
30229WAT      O90928   1.451   6.622   4.081
30229WAT     H190929   1.524   6.653   4.021
30229WAT     H290930   1.437   6.523   4.068
30230WAT      O90931   4.847   6.853   5.757
30230WAT     H190932   4.792   6.845   5.674
30230WAT     H290933   4.812   6.928   5.813
30231WAT      O90934   1.653   3.982   8.409
30231WAT     H190935   1.618   3.903   8.358
30231WAT     H290936   1.651   3.962   8.507
30232WAT      O90937   5.350   7.601   7.671
30232WAT     H190938   5.419   7.634   7.735
30232WAT     H290939   5.319   7.677   7.613
30233WAT      O90940   6.729   1.950   1.222
30233WAT     H190941   6.716   1.975   1.126
30233WAT     H290942   6.640   1.933   1.264
30234WAT      O90943   6.072   4.989   1.491
30234WAT     H190944   6.111   4.961   1.579
30234WAT     H290945   6.130   5.059   1.449
30235WAT      O90946   3.869   9.229   0.509
30235WAT     H190947   3.863   9.300   0.579
30235WAT     H290948   3.961   9.191   0.508
30236WAT      O90949   5.179   2.156   6.703
30236WAT     H190950   5.221   2.065   6.710
30236WAT     H290951   5.080   2.146   6.698
30237WAT      O90952   3.920   6.977   3.217
30237WAT     H190953   3.998   6.923   3.186
30237WAT     H290954   3.836   6.941   3.175
30238WAT      O90955   9.030   9.223   0.212
30238WAT     H190956   8.944   9.171   0.215
30238WAT     H290957   9.020   9.307   0.266
30239WAT      O90958   9.155   7.990   0.999
30239WAT     H190959   9.092   7.993   0.921
30239WAT     H290960   9.142   8.073   1.054
30240WAT      O90961   2.058   1.722   0.961
30240WAT     H190962   2.006   1.676   1.033
30240WAT     H290963   2.014   1.809   0.939
30241WAT      O90964   2.474   2.649   2.178
30241WAT     H190965   2.474   2.716   2.252
30241WAT     H290966   2.459   2.558   2.216
30242WAT      O90967   1.890   2.993   7.217
30242WAT     H190968   1.945   3.063   7.171
30242WAT     H290969   1.895   3.006   7.316
30243WAT      O90970   2.827   7.045   5.351
30243WAT     H190971   2.803   7.112   5.281
30243WAT     H290972   2.745   7.018   5.401
30244WAT      O90973   2.022   4.522   4.087
30244WAT     H190974   2.069   4.497   4.003
30244WAT     H290975   1.954   4.593   4.068
30245WAT      O90976   8.583   4.075   4.804
30245WAT     H190977   8.619   4.067   4.711
30245WAT     H290978   8.541   4.165   4.815
30246WAT      O90979   7.327   3.175   8.595
30246WAT     H190980   7.250   3.167   8.531
30246WAT     H290981   7.311   3.251   8.657
30247WAT      O90982   2.894   3.754   6.310
30247WAT     H190983   2.896   3.821   6.236
30247WAT     H290984   2.864   3.798   6.395
30248WAT      O90985   6.153   1.920   0.372
30248WAT     H190986   6.141   1.834   0.322
30248WAT     H290987   6.188   1.900   0.464
30249WAT      O90988   6.025   2.804   1.973
30249WAT     H190989   6.101   2.836   2.030
30249WAT     H290990   5.945   2.787   2.030
30250WAT      O90991   2.721   2.123   1.035
30250WAT     H190992   2.707   2.214   1.073
30250WAT     H290993   2.662   2.110   0.955
30251WAT      O90994   2.695   2.705   5.598
30251WAT     H190995   2.665   2.652   5.519
30251WAT     H290996   2.631   2.691   5.674
30252WAT      O90997   1.328   0.584   8.240
30252WAT     H190998   1.424   0.610   8.228
30252WAT     H290999   1.313   0.492   8.202
30253WAT      O91000   2.463   1.359   6.435
30253WAT     H191001   2.460   1.376   6.533
30253WAT     H291002   2.479   1.445   6.387
30254WAT      O91003   0.444   3.209   3.511
30254WAT     H191004   0.466   3.244   3.420
30254WAT     H291005   0.347   3.225   3.530
30255WAT      O91006   3.083   6.452   9.278
30255WAT     H191007   3.074   6.520   9.350
30255WAT     H291008   3.138   6.490   9.203
30256WAT      O91009   0.934   2.503   8.662
30256WAT     H191010   0.937   2.410   8.699
30256WAT     H291011   0.849   2.517   8.613
30257WAT      O91012   8.230   8.901   7.038
30257WAT     H191013   8.227   8.986   7.091
30257WAT     H291014   8.308   8.846   7.068
30258WAT      O91015   3.906   1.332   1.202
30258WAT     H191016   3.900   1.422   1.245
30258WAT     H291017   3.838   1.271   1.243
30259WAT      O91018   7.827   7.554   8.216
30259WAT     H191019   7.894   7.550   8.141
30259WAT     H291020   7.875   7.571   8.302
30260WAT      O91021   1.069   2.642   6.018
30260WAT     H191022   1.150   2.697   6.001
30260WAT     H291023   1.047   2.588   5.937
30261WAT      O91024   9.091   3.325   4.549
30261WAT     H191025   9.165   3.380   4.509
30261WAT     H291026   9.118   3.295   4.640
30262WAT      O91027   2.169   0.108   2.648
30262WAT     H191028   2.069   0.105   2.657
30262WAT     H291029   2.208   0.160   2.725
30263WAT      O91030   8.222   1.067   4.340
30263WAT     H191031   8.138   1.066   4.285
30263WAT     H291032   8.206   1.016   4.425
30264WAT      O91033   5.228   9.084   6.716
30264WAT     H191034   5.271   8.999   6.684
30264WAT     H291035   5.167   9.063   6.793
30265WAT      O91036   8.020   6.985   1.922
30265WAT     H191037   8.017   7.053   1.996
30265WAT     H291038   7.996   7.030   1.836
30266WAT      O91039   9.046   6.907   0.953
30266WAT     H191040   9.092   6.888   0.866
30266WAT     H291041   9.093   6.981   1.000
30267WAT      O91042   4.605   8.421   8.778
30267WAT     H191043   4.633   8.378   8.692
30267WAT     H291044   4.578   8.350   8.843
30268WAT      O91045   9.526   8.603   3.920
30268WAT     H191046   9.624   8.583   3.923
30268WAT     H291047   9.481   8.562   3.999
30269WAT      O91048   8.118   8.205   8.200
30269WAT     H191049   8.129   8.121   8.252
30269WAT     H291050   8.023   8.236   8.204
30270WAT      O91051   7.876   7.026   9.147
30270WAT     H191052   7.815   6.985   9.079
30270WAT     H291053   7.970   7.025   9.114
30271WAT      O91054   1.763   4.260   3.867
30271WAT     H191055   1.790   4.356   3.875
30271WAT     H291056   1.680   4.244   3.921
30272WAT      O91057   7.579   2.905   0.094
30272WAT     H191058   7.613   2.999   0.088
30272WAT     H291059   7.550   2.885   0.187
30273WAT      O91060   4.386   0.020   3.125
30273WAT     H191061   4.416  -0.075   3.111
30273WAT     H291062   4.302   0.036   3.072
30274WAT      O91063   2.397   9.556   4.598
30274WAT     H191064   2.306   9.516   4.587
30274WAT     H291065   2.426   9.596   4.511
30275WAT      O91066   6.374   3.234   1.059
30275WAT     H191067   6.401   3.139   1.074
30275WAT     H291068   6.291   3.254   1.111
30276WAT      O91069   3.247   1.672   0.125
30276WAT     H191070   3.284   1.756   0.084
30276WAT     H291071   3.171   1.639   0.068
30277WAT      O91072   3.369   2.718   5.180
30277WAT     H191073   3.332   2.725   5.088
30277WAT     H291074   3.334   2.792   5.237
30278WAT      O91075   8.693   4.303   8.410
30278WAT     H191076   8.742   4.390   8.419
30278WAT     H291077   8.596   4.318   8.430
30279WAT      O91078   6.099   8.778   7.367
30279WAT     H191079   6.144   8.702   7.320
30279WAT     H291080   6.117   8.863   7.318
30280WAT      O91081   7.687   0.075   2.045
30280WAT     H191082   7.787   0.071   2.044
30280WAT     H291083   7.650  -0.013   2.076
30281WAT      O91084   3.123   8.028   5.902
30281WAT     H191085   3.086   8.082   5.976
30281WAT     H291086   3.157   8.088   5.829
30282WAT      O91087   8.045   2.315   4.303
30282WAT     H191088   8.082   2.296   4.212
30282WAT     H291089   8.118   2.351   4.361
30283WAT      O91090   9.331   0.514   6.863
30283WAT     H191091   9.385   0.490   6.782
30283WAT     H291092   9.240   0.473   6.855
30284WAT      O91093   3.506   0.763   5.567
30284WAT     H191094   3.542   0.742   5.657
30284WAT     H291095   3.482   0.678   5.519
30285WAT      O91096   5.001   7.745   6.512
30285WAT     H191097   5.098   7.755   6.534
30285WAT     H291098   4.959   7.679   6.575
30286WAT      O91099   9.233   7.284   6.167
30286WAT     H191100   9.289   7.360   6.134
30286WAT     H291101   9.291   7.217   6.213
30287WAT      O91102   7.570   4.377   2.743
30287WAT     H191103   7.548   4.360   2.838
30287WAT     H291104   7.634   4.307   2.710
30288WAT      O91105   4.099   4.265   0.246
30288WAT     H191106   4.052   4.327   0.182
30288WAT     H291107   4.179   4.226   0.201
30289WAT      O91108   2.285   6.040   6.900
30289WAT     H191109   2.319   6.040   6.994
30289WAT     H291110   2.326   6.116   6.850
30290WAT      O91111   8.517   5.901   9.814
30290WAT     H191112   8.501   5.844   9.895
30290WAT     H291113   8.437   5.959   9.798
30291WAT      O91114   4.732   9.189   8.921
30291WAT     H191115   4.770   9.282   8.924
30291WAT     H291116   4.677   9.172   9.003
30292WAT      O91117   5.437   6.163   0.382
30292WAT     H191118   5.484   6.076   0.398
30292WAT     H291119   5.338   6.149   0.381
30293WAT      O91120   3.449   2.160   1.647
30293WAT     H191121   3.469   2.226   1.719
30293WAT     H291122   3.432   2.209   1.561
30294WAT      O91123   8.360   6.779   8.528
30294WAT     H191124   8.412   6.840   8.588
30294WAT     H291125   8.393   6.788   8.434
30295WAT      O91126   8.559   6.117   7.296
30295WAT     H191127   8.479   6.170   7.268
30295WAT     H291128   8.637   6.141   7.239
30296WAT      O91129   5.315   4.786   6.113
30296WAT     H191130   5.261   4.737   6.182
30296WAT     H291131   5.411   4.782   6.138
30297WAT      O91132   1.487   7.449   1.199
30297WAT     H191133   1.483   7.355   1.164
30297WAT     H291134   1.408   7.500   1.167
30298WAT      O91135   9.376   3.794   1.101
30298WAT     H191136   9.350   3.721   1.038
30298WAT     H291137   9.371   3.882   1.055
30299WAT      O91138   5.329   3.233   9.226
30299WAT     H191139   5.273   3.315   9.240
30299WAT     H291140   5.271   3.152   9.228
30300WAT      O91141   0.999   9.506   7.036
30300WAT     H191142   1.004   9.407   7.020
30300WAT     H291143   0.919   9.543   6.988
30301WAT      O91144   4.032   3.937   5.563
30301WAT     H191145   4.116   3.909   5.609
30301WAT     H291146   4.053   3.971   5.472
30302WAT      O91147   7.992   7.161   2.120
30302WAT     H191148   7.897   7.191   2.114
30302WAT     H291149   8.021   7.161   2.216
30303WAT      O91150   6.997   2.705   9.263
30303WAT     H191151   6.940   2.710   9.181
30303WAT     H291152   7.067   2.635   9.251
30304WAT      O91153   0.131   3.785   2.193
30304WAT     H191154   0.103   3.879   2.179
30304WAT     H291155   0.059   3.723   2.161
30305WAT      O91156   0.680   9.677   7.173
30305WAT     H191157   0.758   9.672   7.236
30305WAT     H291158   0.605   9.727   7.216
30306WAT      O91159   4.414   5.294   7.564
30306WAT     H191160   4.406   5.199   7.595
30306WAT     H291161   4.502   5.307   7.520
30307WAT      O91162   7.208   3.191   6.697
30307WAT     H191163   7.139   3.263   6.712
30307WAT     H291164   7.257   3.175   6.782
30308WAT      O91165   0.408   0.349   5.642
30308WAT     H191166   0.359   0.412   5.703
30308WAT     H291167   0.343   0.304   5.581
30309WAT      O91168   9.609   2.283   0.993
30309WAT     H191169   9.642   2.246   1.079
30309WAT     H291170   9.524   2.237   0.967
30310WAT      O91171   0.781   6.881   6.570
30310WAT     H191172   0.764   6.972   6.533
30310WAT     H291173   0.776   6.883   6.670
30311WAT      O91174   3.545   0.699   6.087
30311WAT     H191175   3.453   0.669   6.063
30311WAT     H291176   3.573   0.656   6.173
30312WAT      O91177   4.593   3.138   7.235
30312WAT     H191178   4.680   3.166   7.193
30312WAT     H291179   4.595   3.160   7.333
30313WAT      O91180   2.057   1.979   0.615
30313WAT     H191181   2.114   2.037   0.557
30313WAT     H291182   2.043   2.024   0.703
30314WAT      O91183   8.491   0.850   7.036
30314WAT     H191184   8.395   0.876   7.042
30314WAT     H291185   8.527   0.832   7.127
30315WAT      O91186   4.894   6.405   2.569
30315WAT     H191187   4.844   6.322   2.589
30315WAT     H291188   4.913   6.454   2.654
30316WAT      O91189   9.430   0.900   0.252
30316WAT     H191190   9.334   0.927   0.242
30316WAT     H291191   9.468   0.881   0.162
30317WAT      O91192   1.205   2.916   8.259
30317WAT     H191193   1.157   2.828   8.268
30317WAT     H291194   1.157   2.973   8.192
30318WAT      O91195   7.453   8.726   9.558
30318WAT     H191196   7.543   8.729   9.599
30318WAT     H291197   7.442   8.642   9.505
30319WAT      O91198   1.562   3.204   8.979
30319WAT     H191199   1.568   3.195   8.879
30319WAT     H291200   1.467   3.190   9.008
30320WAT      O91201   9.512   9.416   9.715
30320WAT     H191202   9.571   9.351   9.667
30320WAT     H291203   9.451   9.460   9.649
30321WAT      O91204   8.078   6.153   2.544
30321WAT     H191205   8.123   6.220   2.485
30321WAT     H291206   8.081   6.063   2.501
30322WAT      O91207   5.708   8.727   3.248
30322WAT     H191208   5.624   8.770   3.282
30322WAT     H291209   5.698   8.627   3.253
30323WAT      O91210   1.072   1.686   8.718
30323WAT     H191211   1.035   1.692   8.625
30323WAT     H291212   1.029   1.610   8.766
30324WAT      O91213   9.574   8.904   1.268
30324WAT     H191214   9.556   8.943   1.358
30324WAT     H291215   9.671   8.917   1.245
30325WAT      O91216   3.904   5.231   1.158
30325WAT     H191217   3.811   5.222   1.121
30325WAT     H291218   3.904   5.301   1.229
30326WAT      O91219   8.381   2.363   3.871
30326WAT     H191220   8.350   2.357   3.776
30326WAT     H291221   8.307   2.337   3.933
30327WAT      O91222   7.844   6.581   0.012
30327WAT     H191223   7.790   6.548   0.090
30327WAT     H291224   7.826   6.524  -0.068
30328WAT      O91225   8.593   6.940   3.389
30328WAT     H191226   8.588   6.979   3.297
30328WAT     H291227   8.537   6.995   3.452
30329WAT      O91228   6.187   9.144   1.010
30329WAT     H191229   6.171   9.060   0.958
30329WAT     H291230   6.251   9.126   1.084
30330WAT      O91231   4.932   8.591   4.457
30330WAT     H191232   4.879   8.511   4.485
30330WAT     H291233   4.980   8.630   4.536
30331WAT      O91234   4.153   5.234   9.712
30331WAT     H191235   4.197   5.230   9.802
30331WAT     H291236   4.188   5.314   9.662
30332WAT      O91237   9.393   2.138   9.741
30332WAT     H191238   9.424   2.136   9.646
30332WAT     H291239   9.322   2.207   9.752
30333WAT      O91240   8.616   9.573   3.200
30333WAT     H191241   8.625   9.671   3.182
30333WAT     H291242   8.660   9.551   3.288
30334WAT      O91243   4.258   7.952   8.094
30334WAT     H191244   4.247   7.889   8.016
30334WAT     H291245   4.346   7.999   8.086
30335WAT      O91246   6.051   4.592   9.872
30335WAT     H191247   6.115   4.528   9.829
30335WAT     H291248   6.046   4.574   9.970
30336WAT      O91249   3.853   2.812   9.456
30336WAT     H191250   3.794   2.732   9.443
30336WAT     H291251   3.880   2.818   9.552
30337WAT      O91252   7.117   4.255   3.317
30337WAT     H191253   7.052   4.326   3.289
30337WAT     H291254   7.152   4.276   3.408
30338WAT      O91255   6.756   6.335   8.756
30338WAT     H191256   6.680   6.270   8.762
30338WAT     H291257   6.842   6.285   8.751
30339WAT      O91258   1.795   5.442   6.005
30339WAT     H191259   1.731   5.513   6.034
30339WAT     H291260   1.750   5.353   6.007
30340WAT      O91261   6.663   1.714   2.293
30340WAT     H191262   6.651   1.783   2.364
30340WAT     H291263   6.671   1.759   2.204
30341WAT      O91264   1.164   4.371   5.350
30341WAT     H191265   1.202   4.411   5.266
30341WAT     H291266   1.202   4.419   5.429
30342WAT      O91267   9.502   8.236   2.569
30342WAT     H191268   9.601   8.241   2.584
30342WAT     H291269   9.480   8.158   2.512
30343WAT      O91270   1.297   4.677   2.959
30343WAT     H191271   1.392   4.682   2.991
30343WAT     H291272   1.245   4.616   3.018
30344WAT      O91273   6.937   0.241   3.190
30344WAT     H191274   7.014   0.241   3.127
30344WAT     H291275   6.916   0.148   3.218
30345WAT      O91276   2.373   8.494   0.859
30345WAT     H191277   2.304   8.554   0.818
30345WAT     H291278   2.441   8.468   0.790
30346WAT      O91279   0.973   3.561   2.121
30346WAT     H191280   0.919   3.627   2.071
30346WAT     H291281   1.018   3.499   2.057
30347WAT      O91282   1.842   4.373   7.092
30347WAT     H191283   1.854   4.373   7.192
30347WAT     H291284   1.752   4.410   7.070
30348WAT      O91285   6.552   3.844   9.193
30348WAT     H191286   6.456   3.828   9.214
30348WAT     H291287   6.567   3.837   9.095
30349WAT      O91288   8.994   6.614   8.742
30349WAT     H191289   9.076   6.668   8.722
30349WAT     H291290   9.019   6.528   8.785
30350WAT      O91291   3.946   6.818   7.438
30350WAT     H191292   3.849   6.837   7.451
30350WAT     H291293   3.974   6.845   7.346
30351WAT      O91294   1.346   2.999   4.599
30351WAT     H191295   1.254   3.038   4.596
30351WAT     H291296   1.351   2.922   4.535
30352WAT      O91297   7.630   4.859   8.189
30352WAT     H191298   7.680   4.931   8.236
30352WAT     H291299   7.664   4.849   8.095
30353WAT      O91300   6.313   2.483   7.568
30353WAT     H191301   6.228   2.478   7.619
30353WAT     H291302   6.322   2.574   7.527
30354WAT      O91303   2.196   6.234   3.614
30354WAT     H191304   2.177   6.332   3.627
30354WAT     H291305   2.206   6.215   3.517
30355WAT      O91306   1.110   4.968   0.948
30355WAT     H191307   1.114   5.029   1.027
30355WAT     H291308   1.190   4.983   0.890
30356WAT      O91309   1.301   4.260   2.566
30356WAT     H191310   1.226   4.259   2.631
30356WAT     H291311   1.385   4.291   2.612
30357WAT      O91312   8.454   7.105   0.145
30357WAT     H191313   8.435   7.007   0.135
30357WAT     H291314   8.552   7.121   0.137
30358WAT      O91315   1.643   1.540   5.657
30358WAT     H191316   1.678   1.447   5.669
30358WAT     H291317   1.622   1.579   5.747
30359WAT      O91318   9.251   4.495   9.783
30359WAT     H191319   9.189   4.429   9.742
30359WAT     H291320   9.199   4.572   9.820
30360WAT      O91321   6.973   7.524   6.114
30360WAT     H191322   7.015   7.584   6.181
30360WAT     H291323   6.876   7.549   6.103
30361WAT      O91324   6.161   2.342   6.620
30361WAT     H191325   6.218   2.418   6.587
30361WAT     H291326   6.196   2.256   6.582
30362WAT      O91327   4.284   4.152   0.096
30362WAT     H191328   4.307   4.055   0.087
30362WAT     H291329   4.364   4.207   0.074
30363WAT      O91330   7.343   3.820   3.177
30363WAT     H191331   7.370   3.818   3.273
30363WAT     H291332   7.312   3.912   3.152
30364WAT      O91333   2.545   2.617   9.440
30364WAT     H191334   2.570   2.663   9.355
30364WAT     H291335   2.546   2.518   9.426
30365WAT      O91336   8.308   3.829   3.673
30365WAT     H191337   8.389   3.774   3.692
30365WAT     H291338   8.282   3.881   3.754
30366WAT      O91339   0.727   6.768   9.486
30366WAT     H191340   0.788   6.846   9.503
30366WAT     H291341   0.729   6.745   9.389
30367WAT      O91342   9.674   6.085   5.279
30367WAT     H191343   9.604   6.150   5.308
30367WAT     H291344   9.693   6.021   5.353
30368WAT      O91345   9.837   6.652   9.132
30368WAT     H191346   9.871   6.720   9.197
30368WAT     H291347   9.737   6.653   9.132
30369WAT      O91348   2.030   6.525   2.720
30369WAT     H191349   2.030   6.597   2.790
30369WAT     H291350   2.063   6.440   2.760
30370WAT      O91351   3.877   2.444   9.176
30370WAT     H191352   3.905   2.497   9.096
30370WAT     H291353   3.801   2.490   9.221
30371WAT      O91354   4.694   6.403   3.256
30371WAT     H191355   4.751   6.430   3.334
30371WAT     H291356   4.607   6.452   3.259
30372WAT      O91357   8.759   1.394   3.408
30372WAT     H191358   8.834   1.440   3.361
30372WAT     H291359   8.795   1.315   3.459
30373WAT      O91360   5.088   5.200   3.113
30373WAT     H191361   5.135   5.117   3.082
30373WAT     H291362   5.037   5.239   3.037
30374WAT      O91363   5.855   5.165   5.054
30374WAT     H191364   5.755   5.156   5.058
30374WAT     H291365   5.889   5.114   4.975
30375WAT      O91366   2.883   1.735   1.069
30375WAT     H191367   2.796   1.717   1.024
30375WAT     H291368   2.955   1.682   1.025
30376WAT      O91369   9.641   6.358   1.674
30376WAT     H191370   9.634   6.342   1.772
30376WAT     H291371   9.717   6.420   1.656
30377WAT      O91372   7.826   8.770   8.605
30377WAT     H191373   7.786   8.860   8.589
30377WAT     H291374   7.802   8.739   8.697
30378WAT      O91375   5.350   2.349   5.304
30378WAT     H191376   5.251   2.349   5.318
30378WAT     H291377   5.390   2.426   5.353
30379WAT      O91378   3.739   4.516   8.035
30379WAT     H191379   3.775   4.436   8.082
30379WAT     H291380   3.805   4.548   7.967
30380WAT      O91381   8.701   5.285   1.304
30380WAT     H191382   8.727   5.324   1.215
30380WAT     H291383   8.771   5.220   1.334
30381WAT      O91384   4.475   6.892   6.797
30381WAT     H191385   4.412   6.841   6.855
30381WAT     H291386   4.566   6.849   6.800
30382WAT      O91387   4.143   4.194   1.072
30382WAT     H191388   4.089   4.271   1.107
30382WAT     H291389   4.084   4.135   1.017
30383WAT      O91390   7.689   3.558   3.331
30383WAT     H191391   7.616   3.588   3.392
30383WAT     H291392   7.744   3.488   3.376
30384WAT      O91393   6.565   2.028   6.532
30384WAT     H191394   6.589   2.092   6.459
30384WAT     H291395   6.627   1.950   6.530
30385WAT      O91396   2.205   0.059   3.233
30385WAT     H191397   2.123   0.038   3.179
30385WAT     H291398   2.286   0.036   3.180
30386WAT      O91399   8.117   9.148   1.227
30386WAT     H191400   8.025   9.131   1.263
30386WAT     H291401   8.117   9.235   1.177
30387WAT      O91402   7.014   9.442   5.661
30387WAT     H191403   6.968   9.504   5.597
30387WAT     H291404   7.112   9.463   5.663
30388WAT      O91405   4.526   1.068   4.679
30388WAT     H191406   4.436   1.052   4.639
30388WAT     H291407   4.518   1.070   4.779
30389WAT      O91408   9.877   4.270   4.195
30389WAT     H191409   9.882   4.207   4.272
30389WAT     H291410   9.961   4.264   4.141
30390WAT      O91411   8.344   3.975   5.439
30390WAT     H191412   8.353   3.875   5.441
30390WAT     H291413   8.292   4.005   5.519
30391WAT      O91414   3.143   8.486   1.965
30391WAT     H191415   3.154   8.508   1.868
30391WAT     H291416   3.190   8.401   1.986
30392WAT      O91417   5.216   0.721   1.705
30392WAT     H191418   5.136   0.776   1.730
30392WAT     H291419   5.270   0.703   1.787
30393WAT      O91420   7.889   0.816   9.251
30393WAT     H191421   7.802   0.865   9.242
30393WAT     H291422   7.873   0.727   9.294
30394WAT      O91423   9.449   7.440   6.381
30394WAT     H191424   9.404   7.485   6.304
30394WAT     H291425   9.533   7.395   6.350
30395WAT      O91426   4.670   2.913   2.312
30395WAT     H191427   4.584   2.948   2.350
30395WAT     H291428   4.746   2.941   2.371
30396WAT      O91429   8.446   9.341   4.360
30396WAT     H191430   8.435   9.308   4.454
30396WAT     H291431   8.361   9.384   4.330
30397WAT      O91432   4.939   6.814   7.552
30397WAT     H191433   4.839   6.811   7.555
30397WAT     H291434   4.969   6.834   7.459
30398WAT      O91435   8.296   0.741   9.342
30398WAT     H191436   8.298   0.703   9.435
30398WAT     H291437   8.322   0.670   9.277
30399WAT      O91438   4.815   6.728   3.203
30399WAT     H191439   4.774   6.737   3.295
30399WAT     H291440   4.905   6.685   3.211
30400WAT      O91441   6.327   8.565   4.967
30400WAT     H191442   6.422   8.539   4.985
30400WAT     H291443   6.308   8.558   4.869
30401WAT      O91444   5.177   1.573   3.823
30401WAT     H191445   5.086   1.595   3.858
30401WAT     H291446   5.244   1.577   3.897
30402WAT      O91447   9.510   9.137   8.755
30402WAT     H191448   9.462   9.215   8.796
30402WAT     H291449   9.454   9.055   8.764
30403WAT      O91450   8.845   5.825   4.242
30403WAT     H191451   8.913   5.798   4.310
30403WAT     H291452   8.755   5.794   4.271
30404WAT      O91453   6.597   2.223   2.430
30404WAT     H191454   6.673   2.241   2.491
30404WAT     H291455   6.608   2.276   2.346
30405WAT      O91456   7.124   5.629   4.841
30405WAT     H191457   7.037   5.678   4.848
30405WAT     H291458   7.156   5.633   4.746
30406WAT      O91459   0.969   8.174   9.886
30406WAT     H191460   0.907   8.245   9.851
30406WAT     H291461   1.060   8.187   9.847
30407WAT      O91462   8.365   1.693   2.387
30407WAT     H191463   8.399   1.703   2.293
30407WAT     H291464   8.388   1.774   2.440
30408WAT      O91465   1.695   2.412   1.587
30408WAT     H191466   1.760   2.482   1.616
30408WAT     H291467   1.715   2.387   1.492
30409WAT      O91468   5.208   1.288   3.696
30409WAT     H191469   5.287   1.256   3.748
30409WAT     H291470   5.179   1.377   3.732
30410WAT      O91471   7.818   8.633   5.931
30410WAT     H191472   7.789   8.538   5.913
30410WAT     H291473   7.907   8.649   5.889
30411WAT      O91474   7.254   5.179   2.392
30411WAT     H191475   7.310   5.123   2.332
30411WAT     H291476   7.172   5.129   2.419
30412WAT      O91477   1.274   0.826   9.667
30412WAT     H191478   1.215   0.748   9.685
30412WAT     H291479   1.322   0.812   9.580
30413WAT      O91480   5.682   0.230   6.071
30413WAT     H191481   5.627   0.252   5.990
30413WAT     H291482   5.622   0.231   6.152
30414WAT      O91483   6.377   1.299   2.344
30414WAT     H191484   6.307   1.229   2.358
30414WAT     H291485   6.451   1.261   2.288
30415WAT      O91486   5.289   1.887   6.266
30415WAT     H191487   5.296   1.977   6.311
30415WAT     H291488   5.231   1.895   6.185
30416WAT      O91489   7.301   2.048   8.628
30416WAT     H191490   7.337   2.070   8.719
30416WAT     H291491   7.247   1.965   8.632
30417WAT      O91492   4.237   6.085   7.491
30417WAT     H191493   4.290   6.158   7.534
30417WAT     H291494   4.248   6.091   7.392
30418WAT      O91495   6.489   0.997   1.458
30418WAT     H191496   6.437   0.975   1.540
30418WAT     H291497   6.571   0.940   1.455
30419WAT      O91498   9.678   2.222   7.023
30419WAT     H191499   9.627   2.293   7.071
30419WAT     H291500   9.672   2.136   7.073
30420WAT      O91501   9.570   0.205   5.413
30420WAT     H191502   9.525   0.267   5.349
30420WAT     H291503   9.665   0.234   5.427
30421WAT      O91504   8.576   6.686   0.311
30421WAT     H191505   8.550   6.688   0.408
30421WAT     H291506   8.675   6.694   0.303
30422WAT      O91507   9.095   2.559   5.172
30422WAT     H191508   9.108   2.541   5.270
30422WAT     H291509   9.039   2.641   5.161
30423WAT      O91510   3.729   1.137   1.323
30423WAT     H191511   3.651   1.118   1.263
30423WAT     H291512   3.797   1.066   1.313
30424WAT      O91513   3.753   9.288   7.008
30424WAT     H191514   3.841   9.327   6.980
30424WAT     H291515   3.679   9.331   6.956
30425WAT      O91516   5.997   3.975   4.462
30425WAT     H191517   5.939   4.027   4.400
30425WAT     H291518   6.093   3.994   4.443
30426WAT      O91519   6.040   1.709   2.792
30426WAT     H191520   6.065   1.614   2.773
30426WAT     H291521   5.969   1.738   2.729
30427WAT      O91522   6.997   2.442   3.868
30427WAT     H191523   7.010   2.526   3.920
30427WAT     H291524   6.905   2.406   3.887
30428WAT      O91525   1.359   5.932   5.635
30428WAT     H191526   1.305   5.897   5.559
30428WAT     H291527   1.406   6.016   5.607
30429WAT      O91528   4.753   4.749   1.366
30429WAT     H191529   4.689   4.723   1.438
30429WAT     H291530   4.703   4.777   1.285
30430WAT      O91531   4.830   4.726   7.982
30430WAT     H191532   4.744   4.678   7.964
30430WAT     H291533   4.829   4.762   8.076
30431WAT      O91534   5.530   6.755   6.112
30431WAT     H191535   5.514   6.804   6.198
30431WAT     H291536   5.443   6.743   6.064
30432WAT      O91537   1.718   5.032   9.072
30432WAT     H191538   1.661   5.094   9.019
30432WAT     H291539   1.815   5.054   9.056
30433WAT      O91540   7.003   8.794   9.058
30433WAT     H191541   7.047   8.769   9.144
30433WAT     H291542   7.032   8.886   9.030
30434WAT      O91543   1.380   2.333   6.544
30434WAT     H191544   1.341   2.405   6.486
30434WAT     H291545   1.327   2.249   6.532
30435WAT      O91546   2.317   4.609   5.665
30435WAT     H191547   2.236   4.639   5.615
30435WAT     H291548   2.289   4.549   5.740
30436WAT      O91549   5.262   7.592   8.352
30436WAT     H191550   5.189   7.661   8.349
30436WAT     H291551   5.235   7.517   8.413
30437WAT      O91552   1.284   0.818   6.247
30437WAT     H191553   1.312   0.897   6.301
30437WAT     H291554   1.333   0.737   6.280
30438WAT      O91555   9.680   4.058   5.321
30438WAT     H191556   9.626   4.071   5.237
30438WAT     H291557   9.773   4.092   5.306
30439WAT      O91558   3.366   1.671   3.776
30439WAT     H191559   3.321   1.614   3.707
30439WAT     H291560   3.408   1.612   3.845
30440WAT      O91561   2.449   8.817   2.983
30440WAT     H191562   2.367   8.843   2.932
30440WAT     H291563   2.506   8.757   2.926
30441WAT      O91564   7.278   8.311   2.596
30441WAT     H191565   7.269   8.269   2.506
30441WAT     H291566   7.258   8.409   2.590
30442WAT      O91567   2.928   1.266   5.717
30442WAT     H191568   2.944   1.272   5.816
30442WAT     H291569   2.972   1.185   5.681
30443WAT      O91570   8.800   6.797   5.030
30443WAT     H191571   8.845   6.858   5.096
30443WAT     H291572   8.796   6.842   4.941
30444WAT      O91573   1.911   9.584   2.682
30444WAT     H191574   1.869   9.641   2.752
30444WAT     H291575   1.973   9.640   2.626
30445WAT      O91576   3.993   5.494   4.355
30445WAT     H191577   3.967   5.452   4.442
30445WAT     H291578   4.092   5.496   4.347
30446WAT      O91579   7.655   1.966   9.688
30446WAT     H191580   7.717   2.021   9.633
30446WAT     H291581   7.605   1.902   9.629
30447WAT      O91582   0.208   7.239   6.471
30447WAT     H191583   0.283   7.290   6.514
30447WAT     H291584   0.137   7.302   6.441
30448WAT      O91585   1.662   4.159   1.691
30448WAT     H191586   1.722   4.197   1.621
30448WAT     H291587   1.666   4.216   1.773
30449WAT      O91588   5.977   7.795   9.286
30449WAT     H191589   6.029   7.846   9.218
30449WAT     H291590   5.884   7.778   9.252
30450WAT      O91591   9.455   5.366   2.681
30450WAT     H191592   9.424   5.315   2.761
30450WAT     H291593   9.449   5.307   2.600
30451WAT      O91594   7.949   8.125   8.802
30451WAT     H191595   7.978   8.068   8.879
30451WAT     H291596   7.952   8.221   8.830
30452WAT      O91597   8.381   5.944   1.956
30452WAT     H191598   8.351   5.943   2.051
30452WAT     H291599   8.320   5.888   1.900
30453WAT      O91600   4.791   7.543   8.293
30453WAT     H191601   4.746   7.479   8.356
30453WAT     H291602   4.809   7.497   8.206
30454WAT      O91603   3.198   2.269   5.805
30454WAT     H191604   3.271   2.209   5.771
30454WAT     H291605   3.193   2.351   5.749
30455WAT      O91606   5.336   9.347   6.700
30455WAT     H191607   5.418   9.362   6.754
30455WAT     H291608   5.297   9.258   6.722
30456WAT      O91609   7.212   4.929   5.090
30456WAT     H191610   7.299   4.930   5.140
30456WAT     H291611   7.145   4.875   5.141
30457WAT      O91612   1.116   9.022   3.937
30457WAT     H191613   1.081   9.023   3.844
30457WAT     H291614   1.045   8.989   3.999
30458WAT      O91615   6.999   8.654   4.640
30458WAT     H191616   6.952   8.604   4.713
30458WAT     H291617   6.950   8.739   4.620
30459WAT      O91618   1.283   8.056   5.425
30459WAT     H191619   1.304   8.128   5.491
30459WAT     H291620   1.278   8.095   5.333
30460WAT      O91621   6.023   2.976   7.864
30460WAT     H191622   5.982   3.020   7.784
30460WAT     H291623   6.015   3.037   7.942
30461WAT      O91624   5.961   3.273   1.367
30461WAT     H191625   5.887   3.325   1.326
30461WAT     H291626   5.929   3.232   1.453
30462WAT      O91627   8.033   0.130   1.612
30462WAT     H191628   8.049   0.063   1.684
30462WAT     H291629   8.070   0.097   1.526
30463WAT      O91630   6.685   4.302   1.582
30463WAT     H191631   6.690   4.393   1.623
30463WAT     H291632   6.637   4.240   1.645
30464WAT      O91633   4.688   2.685   2.919
30464WAT     H191634   4.628   2.618   2.964
30464WAT     H291635   4.632   2.754   2.873
30465WAT      O91636   9.765   3.481   7.482
30465WAT     H191637   9.850   3.505   7.528
30465WAT     H291638   9.724   3.401   7.526
30466WAT      O91639   4.951   7.457   8.744
30466WAT     H191640   4.861   7.433   8.782
30466WAT     H291641   4.986   7.538   8.791
30467WAT      O91642   5.070   7.716   6.248
30467WAT     H191643   5.023   7.649   6.191
30467WAT     H291644   5.035   7.711   6.342
30468WAT      O91645   3.903   0.788   0.790
30468WAT     H191646   3.936   0.863   0.847
30468WAT     H291647   3.816   0.814   0.747
30469WAT      O91648   3.018   1.703   0.723
30469WAT     H191649   3.040   1.631   0.789
30469WAT     H291650   3.103   1.748   0.693
30470WAT      O91651   3.793   6.948   5.195
30470WAT     H191652   3.702   6.911   5.176
30470WAT     H291653   3.830   6.903   5.277
30471WAT      O91654   6.877   3.013   0.574
30471WAT     H191655   6.969   3.005   0.537
30471WAT     H291656   6.840   2.921   0.593
30472WAT      O91657   0.328   4.112   9.665
30472WAT     H191658   0.278   4.194   9.638
30472WAT     H291659   0.422   4.117   9.631
30473WAT      O91660   6.413   4.235   7.845
30473WAT     H191661   6.359   4.295   7.786
30473WAT     H291662   6.359   4.213   7.927
30474WAT      O91663   7.077   0.369   5.905
30474WAT     H191664   6.996   0.323   5.943
30474WAT     H291665   7.106   0.442   5.967
30475WAT      O91666   7.553   4.525   5.422
30475WAT     H191667   7.573   4.542   5.325
30475WAT     H291668   7.501   4.440   5.431
30476WAT      O91669   9.266   3.584   3.304
30476WAT     H191670   9.215   3.499   3.286
30476WAT     H291671   9.348   3.586   3.248
30477WAT      O91672   3.211   0.721   2.934
30477WAT     H191673   3.214   0.632   2.889
30477WAT     H291674   3.290   0.730   2.995
30478WAT      O91675   5.855   4.390   1.738
30478WAT     H191676   5.791   4.373   1.663
30478WAT     H291677   5.872   4.489   1.745
30479WAT      O91678   2.750   6.447   5.063
30479WAT     H191679   2.843   6.444   5.028
30479WAT     H291680   2.727   6.542   5.088
30480WAT      O91681   2.303   6.166   1.971
30480WAT     H191682   2.361   6.234   2.015
30480WAT     H291683   2.355   6.120   1.898
30481WAT      O91684   9.243   6.307   3.469
30481WAT     H191685   9.150   6.335   3.493
30481WAT     H291686   9.270   6.229   3.525
30482WAT      O91687   2.744   7.864   3.986
30482WAT     H191688   2.835   7.840   4.018
30482WAT     H291689   2.687   7.890   4.064
30483WAT      O91690   2.863   4.853   8.373
30483WAT     H191691   2.787   4.802   8.411
30483WAT     H291692   2.885   4.930   8.432
30484WAT      O91693   3.688   5.146   4.621
30484WAT     H191694   3.777   5.137   4.575
30484WAT     H291695   3.655   5.055   4.648
30485WAT      O91696   1.651   0.638   3.242
30485WAT     H191697   1.727   0.668   3.300
30485WAT     H291698   1.566   0.681   3.273
30486WAT      O91699   2.411   4.065   4.995
30486WAT     H191700   2.498   4.031   4.958
30486WAT     H291701   2.353   3.987   5.020
30487WAT      O91702   5.640   9.023   8.309
30487WAT     H191703   5.584   9.095   8.351
30487WAT     H291704   5.603   8.934   8.334
30488WAT      O91705   7.249   2.537   0.096
30488WAT     H191706   7.246   2.622   0.147
30488WAT     H291707   7.157   2.510   0.070
30489WAT      O91708   1.099   1.931   8.851
30489WAT     H191709   1.101   1.838   8.815
30489WAT     H291710   1.166   1.987   8.802
30490WAT      O91711   2.320   3.608   1.745
30490WAT     H191712   2.334   3.521   1.793
30490WAT     H291713   2.260   3.594   1.667
30491WAT      O91714   1.135   5.014   4.000
30491WAT     H191715   1.233   5.023   3.983
30491WAT     H291716   1.105   4.923   3.974
30492WAT      O91717   7.323   7.544   6.047
30492WAT     H191718   7.276   7.600   5.979
30492WAT     H291719   7.421   7.560   6.041
30493WAT      O91720   8.105   1.119   6.611
30493WAT     H191721   8.057   1.045   6.564
30493WAT     H291722   8.078   1.122   6.707
30494WAT      O91723   4.359   3.615   1.259
30494WAT     H191724   4.450   3.627   1.218
30494WAT     H291725   4.291   3.608   1.186
30495WAT      O91726   4.673   2.767   7.458
30495WAT     H191727   4.633   2.720   7.536
30495WAT     H291728   4.680   2.703   7.381
30496WAT      O91729   9.043   2.926   0.413
30496WAT     H191730   8.981   2.852   0.387
30496WAT     H291731   9.137   2.891   0.419
30497WAT      O91732   4.766   8.622   5.367
30497WAT     H191733   4.764   8.600   5.465
30497WAT     H291734   4.708   8.702   5.350
30498WAT      O91735   7.476   3.268   5.191
30498WAT     H191736   7.498   3.360   5.223
30498WAT     H291737   7.382   3.266   5.158
30499WAT      O91738   5.113   9.803   7.733
30499WAT     H191739   5.157   9.836   7.817
30499WAT     H291740   5.022   9.766   7.755
30500WAT      O91741   9.439   3.564   2.203
30500WAT     H191742   9.444   3.575   2.103
30500WAT     H291743   9.428   3.654   2.246
30501WAT      O91744   3.609   4.265   5.297
30501WAT     H191745   3.540   4.219   5.354
30501WAT     H291746   3.690   4.207   5.290
30502WAT      O91747   1.669   7.389   4.419
30502WAT     H191748   1.618   7.368   4.502
30502WAT     H291749   1.650   7.318   4.350
30503WAT      O91750   9.462   2.389   2.568
30503WAT     H191751   9.368   2.362   2.550
30503WAT     H291752   9.480   2.479   2.528
30504WAT      O91753   8.769   4.043   6.131
30504WAT     H191754   8.797   4.112   6.064
30504WAT     H291755   8.689   4.075   6.181
30505WAT      O91756   9.169   2.803   5.612
30505WAT     H191757   9.226   2.770   5.688
30505WAT     H291758   9.074   2.776   5.628
30506WAT      O91759   1.443   1.732   5.248
30506WAT     H191760   1.377   1.794   5.207
30506WAT     H291761   1.536   1.767   5.235
30507WAT      O91762   5.919   6.907   0.625
30507WAT     H191763   5.872   6.995   0.619
30507WAT     H291764   5.953   6.894   0.718
30508WAT      O91765   0.401   4.165   8.553
30508WAT     H191766   0.445   4.085   8.592
30508WAT     H291767   0.470   4.234   8.530
30509WAT      O91768   3.432   2.570   8.690
30509WAT     H191769   3.459   2.663   8.668
30509WAT     H291770   3.360   2.572   8.759
30510WAT      O91771   5.519   7.148   0.446
30510WAT     H191772   5.438   7.168   0.391
30510WAT     H291773   5.552   7.233   0.488
30511WAT      O91774   6.368   1.993   2.207
30511WAT     H191775   6.439   2.027   2.146
30511WAT     H291776   6.365   1.893   2.202
30512WAT      O91777   6.691   9.294   0.230
30512WAT     H191778   6.777   9.345   0.221
30512WAT     H291779   6.676   9.272   0.327
30513WAT      O91780   6.957   7.833   3.722
30513WAT     H191781   6.911   7.915   3.688
30513WAT     H291782   7.052   7.833   3.689
30514WAT      O91783   9.328   6.086   0.988
30514WAT     H191784   9.264   6.143   0.937
30514WAT     H291785   9.394   6.143   1.036
30515WAT      O91786   3.195   1.796   5.858
30515WAT     H191787   3.288   1.758   5.866
30515WAT     H291788   3.194   1.866   5.787
30516WAT      O91789   9.116   5.375   8.823
30516WAT     H191790   9.029   5.343   8.860
30516WAT     H291791   9.172   5.412   8.897
30517WAT      O91792   6.759   2.823   4.279
30517WAT     H191793   6.857   2.840   4.271
30517WAT     H291794   6.736   2.734   4.238
30518WAT      O91795   8.289   2.869   2.432
30518WAT     H191796   8.338   2.924   2.500
30518WAT     H291797   8.193   2.895   2.432
30519WAT      O91798   3.813   4.954   2.847
30519WAT     H191799   3.820   4.989   2.753
30519WAT     H291800   3.836   5.027   2.911
30520WAT      O91801   5.466   5.975   6.687
30520WAT     H191802   5.395   5.934   6.629
30520WAT     H291803   5.485   5.914   6.764
30521WAT      O91804   5.728   9.801   1.524
30521WAT     H191805   5.758   9.708   1.502
30521WAT     H291806   5.663   9.833   1.455
30522WAT      O91807   5.929   8.455   7.044
30522WAT     H191808   5.871   8.399   7.102
30522WAT     H291809   5.922   8.551   7.072
30523WAT      O91810   3.695   1.322   0.907
30523WAT     H191811   3.793   1.329   0.925
30523WAT     H291812   3.675   1.361   0.818
30524WAT      O91813   0.964   4.068   0.975
30524WAT     H191814   1.055   4.026   0.976
30524WAT     H291815   0.924   4.057   0.884
30525WAT      O91816   3.889   0.518   1.533
30525WAT     H191817   3.947   0.594   1.506
30525WAT     H291818   3.912   0.490   1.626
30526WAT      O91819   7.544   6.438   3.163
30526WAT     H191820   7.466   6.458   3.222
30526WAT     H291821   7.628   6.441   3.216
30527WAT      O91822   1.566   7.485   6.611
30527WAT     H191823   1.612   7.535   6.538
30527WAT     H291824   1.630   7.468   6.686
30528WAT      O91825   4.933   2.433   2.563
30528WAT     H191826   4.924   2.452   2.465
30528WAT     H291827   5.013   2.480   2.599
30529WAT      O91828   2.482   7.082   6.275
30529WAT     H191829   2.502   7.107   6.180
30529WAT     H291830   2.421   7.003   6.277
30530WAT      O91831   2.580   9.482   8.010
30530WAT     H191832   2.530   9.401   8.040
30530WAT     H291833   2.650   9.455   7.944
30531WAT      O91834   3.383   0.104   5.034
30531WAT     H191835   3.339   0.175   5.088
30531WAT     H291836   3.316   0.061   4.974
30532WAT      O91837   0.640   4.835   5.703
30532WAT     H191838   0.666   4.916   5.755
30532WAT     H291839   0.556   4.796   5.741
30533WAT      O91840   6.170   0.744   2.562
30533WAT     H191841   6.121   0.829   2.544
30533WAT     H291842   6.172   0.689   2.478
30534WAT      O91843   7.513   4.238   4.094
30534WAT     H191844   7.581   4.299   4.135
30534WAT     H291845   7.431   4.236   4.151
30535WAT      O91846   2.704   8.517   8.662
30535WAT     H191847   2.709   8.419   8.679
30535WAT     H291848   2.796   8.554   8.656
30536WAT      O91849   5.122   2.398   3.719
30536WAT     H191850   5.138   2.414   3.622
30536WAT     H291851   5.139   2.482   3.771
30537WAT      O91852   0.137   3.147   2.689
30537WAT     H191853   0.091   3.207   2.624
30537WAT     H291854   0.221   3.192   2.721
30538WAT      O91855   6.820   3.445   5.578
30538WAT     H191856   6.835   3.543   5.588
30538WAT     H291857   6.852   3.415   5.489
30539WAT      O91858   1.737   6.837   2.412
30539WAT     H191859   1.812   6.784   2.373
30539WAT     H291860   1.652   6.814   2.365
30540WAT      O91861   9.486   8.772   7.922
30540WAT     H191862   9.464   8.796   7.827
30540WAT     H291863   9.415   8.807   7.983
30541WAT      O91864   7.131   4.159   0.816
30541WAT     H191865   7.144   4.061   0.835
30541WAT     H291866   7.104   4.206   0.900
30542WAT      O91867   9.400   3.338   4.180
30542WAT     H191868   9.494   3.372   4.185
30542WAT     H291869   9.360   3.362   4.092
30543WAT      O91870   0.295   2.609   1.101
30543WAT     H191871   0.388   2.636   1.077
30543WAT     H291872   0.230   2.657   1.042
30544WAT      O91873   6.091   5.438   3.942
30544WAT     H191874   6.140   5.465   4.025
30544WAT     H291875   6.121   5.496   3.866
30545WAT      O91876   7.506   7.987   7.438
30545WAT     H191877   7.516   7.898   7.394
30545WAT     H291878   7.587   8.043   7.420
30546WAT      O91879   0.779   2.268   2.242
30546WAT     H191880   0.856   2.328   2.224
30546WAT     H291881   0.709   2.317   2.294
30547WAT      O91882   1.932   5.740   5.656
30547WAT     H191883   1.956   5.808   5.586
30547WAT     H291884   1.937   5.783   5.746
30548WAT      O91885   9.778   8.774   3.404
30548WAT     H191886   9.714   8.783   3.328
30548WAT     H291887   9.782   8.678   3.434
30549WAT      O91888   2.166   0.241   5.573
30549WAT     H191889   2.250   0.195   5.603
30549WAT     H291890   2.187   0.305   5.500
30550WAT      O91891   4.154   8.139   6.183
30550WAT     H191892   4.066   8.114   6.224
30550WAT     H291893   4.222   8.070   6.205
30551WAT      O91894   8.701   3.265   8.646
30551WAT     H191895   8.793   3.279   8.685
30551WAT     H291896   8.650   3.202   8.704
30552WAT      O91897   2.672   1.618   6.776
30552WAT     H191898   2.707   1.649   6.688
30552WAT     H291899   2.702   1.681   6.848
30553WAT      O91900   0.903   8.573   4.683
30553WAT     H191901   0.857   8.631   4.751
30553WAT     H291902   0.845   8.565   4.602
30554WAT      O91903   0.961   0.035   6.809
30554WAT     H191904   0.888  -0.013   6.758
30554WAT     H291905   0.923   0.074   6.892
30555WAT      O91906   2.155   9.215   5.036
30555WAT     H191907   2.219   9.145   5.066
30555WAT     H291908   2.061   9.185   5.054
30556WAT      O91909   5.231   0.135   8.178
30556WAT     H191910   5.159   0.168   8.117
30556WAT     H291911   5.306   0.096   8.124
30557WAT      O91912   9.725   6.185   1.959
30557WAT     H191913   9.721   6.086   1.945
30557WAT     H291914   9.634   6.219   1.982
30558WAT      O91915   8.556   2.501   6.302
30558WAT     H191916   8.623   2.462   6.238
30558WAT     H291917   8.464   2.483   6.268
30559WAT      O91918   5.829   5.473   3.969
30559WAT     H191919   5.788   5.427   4.048
30559WAT     H291920   5.925   5.448   3.962
30560WAT      O91921   3.390   6.671   3.241
30560WAT     H191922   3.379   6.619   3.157
30560WAT     H291923   3.455   6.746   3.226
30561WAT      O91924   4.550   6.632   5.966
30561WAT     H191925   4.491   6.604   6.041
30561WAT     H291926   4.646   6.620   5.993
30562WAT      O91927   1.709   2.301   9.814
30562WAT     H191928   1.767   2.343   9.883
30562WAT     H291929   1.613   2.311   9.841
30563WAT      O91930   8.288   2.744   9.556
30563WAT     H191931   8.193   2.716   9.561
30563WAT     H291932   8.328   2.745   9.648
30564WAT      O91933   1.535   2.519   3.676
30564WAT     H191934   1.469   2.571   3.622
30564WAT     H291935   1.510   2.423   3.676
30565WAT      O91936   4.305   2.744   7.997
30565WAT     H191937   4.314   2.678   8.071
30565WAT     H291938   4.263   2.700   7.918
30566WAT      O91939   6.128   0.275   8.009
30566WAT     H191940   6.065   0.340   7.968
30566WAT     H291941   6.184   0.232   7.938
30567WAT      O91942   3.353   7.004   6.148
30567WAT     H191943   3.341   7.046   6.059
30567WAT     H291944   3.396   6.914   6.137
30568WAT      O91945   5.563   0.099   5.359
30568WAT     H191946   5.576   0.196   5.377
30568WAT     H291947   5.652   0.052   5.360
30569WAT      O91948   0.140   0.785   0.015
30569WAT     H191949   0.174   0.763  -0.076
30569WAT     H291950   0.049   0.747   0.028
30570WAT      O91951   2.307   2.993   3.799
30570WAT     H191952   2.315   2.998   3.899
30570WAT     H291953   2.398   2.987   3.759
30571WAT      O91954   5.159   3.502   7.145
30571WAT     H191955   5.172   3.504   7.046
30571WAT     H291956   5.216   3.572   7.188
30572WAT      O91957   2.073   5.666   7.447
30572WAT     H191958   2.109   5.573   7.444
30572WAT     H291959   1.977   5.665   7.419
30573WAT      O91960   8.223   0.241   8.089
30573WAT     H191961   8.173   0.178   8.030
30573WAT     H291962   8.268   0.311   8.032
30574WAT      O91963   7.411   6.560   9.100
30574WAT     H191964   7.496   6.507   9.095
30574WAT     H291965   7.370   6.549   9.190
30575WAT      O91966   0.816   0.883   0.084
30575WAT     H191967   0.878   0.957   0.060
30575WAT     H291968   0.732   0.891   0.032
30576WAT      O91969   3.537   7.218   2.988
30576WAT     H191970   3.513   7.310   3.019
30576WAT     H291971   3.467   7.184   2.924
30577WAT      O91972   4.280   0.200   7.010
30577WAT     H191973   4.282   0.217   7.108
30577WAT     H291974   4.323   0.112   6.991
30578WAT      O91975   8.270   3.745   1.297
30578WAT     H191976   8.257   3.836   1.259
30578WAT     H291977   8.189   3.689   1.279
30579WAT      O91978   2.458   8.723   7.688
30579WAT     H191979   2.395   8.645   7.689
30579WAT     H291980   2.541   8.699   7.639
30580WAT      O91981   3.375   7.544   1.370
30580WAT     H191982   3.365   7.457   1.418
30580WAT     H291983   3.285   7.573   1.335
30581WAT      O91984   3.708   4.848   4.600
30581WAT     H191985   3.741   4.753   4.606
30581WAT     H291986   3.769   4.900   4.541
30582WAT      O91987   1.344   0.128   4.576
30582WAT     H191988   1.371   0.098   4.667
30582WAT     H291989   1.415   0.189   4.539
30583WAT      O91990   6.580   1.691   7.676
30583WAT     H191991   6.660   1.744   7.703
30583WAT     H291992   6.576   1.685   7.576
30584WAT      O91993   1.593   6.378   7.263
30584WAT     H191994   1.516   6.315   7.255
30584WAT     H291995   1.604   6.430   7.179
30585WAT      O91996   8.311   8.030   3.325
30585WAT     H191997   8.291   7.937   3.355
30585WAT     H291998   8.296   8.038   3.227
30586WAT      O91999   0.958   6.219   3.144
30586WAT     H192000   0.895   6.144   3.163
30586WAT     H292001   1.052   6.188   3.159
30587WAT      O92002   2.894   9.340   4.093
30587WAT     H192003   2.889   9.240   4.097
30587WAT     H292004   2.858   9.378   4.178
30588WAT      O92005   0.528   5.126   4.412
30588WAT     H192006   0.600   5.064   4.444
30588WAT     H292007   0.481   5.166   4.491
30589WAT      O92008   7.308   5.662   0.582
30589WAT     H192009   7.214   5.663   0.546
30589WAT     H292010   7.363   5.730   0.534
30590WAT      O92011   0.301   7.779   1.914
30590WAT     H192012   0.303   7.680   1.910
30590WAT     H292013   0.380   7.816   1.864
30591WAT      O92014   7.394   9.226   3.604
30591WAT     H192015   7.447   9.182   3.531
30591WAT     H292016   7.310   9.265   3.566
30592WAT      O92017   2.684   1.583   3.815
30592WAT     H192018   2.710   1.544   3.727
30592WAT     H292019   2.741   1.663   3.834
30593WAT      O92020   1.789   0.816   8.090
30593WAT     H192021   1.885   0.788   8.078
30593WAT     H292022   1.774   0.848   8.183
30594WAT      O92023   8.528   4.967   3.727
30594WAT     H192024   8.554   5.029   3.802
30594WAT     H292025   8.517   4.875   3.763
30595WAT      O92026   5.788   1.587   1.035
30595WAT     H192027   5.792   1.676   1.080
30595WAT     H292028   5.796   1.515   1.104
30596WAT      O92029   7.718   6.693   3.921
30596WAT     H192030   7.686   6.771   3.976
30596WAT     H292031   7.704   6.608   3.973
30597WAT      O92032   9.032   8.642   6.559
30597WAT     H192033   9.016   8.544   6.547
30597WAT     H292034   9.115   8.656   6.614
30598WAT      O92035   0.046   6.125   7.422
30598WAT     H192036   0.007   6.208   7.463
30598WAT     H292037   0.145   6.123   7.437
30599WAT      O92038   4.243   2.882   7.505
30599WAT     H192039   4.218   2.810   7.570
30599WAT     H292040   4.337   2.911   7.523
30600WAT      O92041   5.130   7.867   9.139
30600WAT     H192042   5.038   7.829   9.140
30600WAT     H292043   5.197   7.793   9.150
30601WAT      O92044   3.533   4.322   4.416
30601WAT     H192045   3.596   4.357   4.485
30601WAT     H292046   3.491   4.237   4.447
30602WAT      O92047   6.165   0.868   7.992
30602WAT     H192048   6.187   0.859   7.895
30602WAT     H292049   6.245   0.903   8.041
30603WAT      O92050   2.115   9.243   8.429
30603WAT     H192051   2.016   9.254   8.417
30603WAT     H292052   2.132   9.167   8.491
30604WAT      O92053   3.391   3.820   1.685
30604WAT     H192054   3.351   3.900   1.639
30604WAT     H292055   3.336   3.739   1.665
30605WAT      O92056   7.917   4.910   3.502
30605WAT     H192057   8.008   4.951   3.495
30605WAT     H292058   7.852   4.963   3.448
30606WAT      O92059   4.463   7.465   7.937
30606WAT     H192060   4.468   7.564   7.949
30606WAT     H292061   4.371   7.433   7.958
30607WAT      O92062   5.185   7.509   1.860
30607WAT     H192063   5.259   7.458   1.906
30607WAT     H292064   5.097   7.475   1.892
30608WAT      O92065   7.335   5.941   6.639
30608WAT     H192066   7.292   6.028   6.615
30608WAT     H292067   7.395   5.954   6.718
30609WAT      O92068   1.317   5.971   1.181
30609WAT     H192069   1.234   5.967   1.125
30609WAT     H292070   1.296   6.014   1.269
30610WAT      O92071   6.406   8.907   1.140
30610WAT     H192072   6.414   8.847   1.060
30610WAT     H292073   6.497   8.926   1.176
30611WAT      O92074   4.915   6.728   8.764
30611WAT     H192075   4.977   6.780   8.822
30611WAT     H292076   4.961   6.704   8.678
30612WAT      O92077   3.301   1.416   5.551
30612WAT     H192078   3.212   1.423   5.596
30612WAT     H292079   3.293   1.355   5.472
30613WAT      O92080   5.789   6.160   1.018
30613WAT     H192081   5.858   6.136   0.949
30613WAT     H292082   5.823   6.235   1.074
30614WAT      O92083   7.075   1.163   2.124
30614WAT     H192084   7.116   1.199   2.041
30614WAT     H292085   7.111   1.072   2.144
30615WAT      O92086   5.673   1.835   8.260
30615WAT     H192087   5.736   1.808   8.187
30615WAT     H292088   5.644   1.930   8.247
30616WAT      O92089   0.547   2.617   2.770
30616WAT     H192090   0.618   2.569   2.719
30616WAT     H292091   0.588   2.665   2.848
30617WAT      O92092   0.589   3.187   1.556
30617WAT     H192093   0.531   3.248   1.611
30617WAT     H292094   0.684   3.217   1.562
30618WAT      O92095   3.361   6.005   5.958
30618WAT     H192096   3.278   5.953   5.936
30618WAT     H292097   3.403   6.037   5.873
30619WAT      O92098   6.778   5.934   1.274
30619WAT     H192099   6.851   5.888   1.324
30619WAT     H292100   6.786   5.913   1.177
30620WAT      O92101   2.040   1.773   4.496
30620WAT     H192102   1.976   1.713   4.544
30620WAT     H292103   2.125   1.725   4.478
30621WAT      O92104   0.360   9.437   1.722
30621WAT     H192105   0.345   9.513   1.660
30621WAT     H292106   0.278   9.421   1.776
30622WAT      O92107   0.533   5.021   2.247
30622WAT     H192108   0.596   5.099   2.240
30622WAT     H292109   0.439   5.055   2.253
30623WAT      O92110   1.349   8.673   8.799
30623WAT     H192111   1.329   8.769   8.820
30623WAT     H292112   1.275   8.616   8.834
30624WAT      O92113   2.175   9.282   1.007
30624WAT     H192114   2.207   9.237   0.923
30624WAT     H292115   2.246   9.345   1.039
30625WAT      O92116   7.266   8.968   8.686
30625WAT     H192117   7.291   8.930   8.775
30625WAT     H292118   7.242   9.064   8.696
30626WAT      O92119   9.783   8.296   5.469
30626WAT     H192120   9.770   8.380   5.522
30626WAT     H292121   9.730   8.301   5.385
30627WAT      O92122   1.527   1.933   1.993
30627WAT     H192123   1.432   1.924   2.022
30627WAT     H292124   1.534   2.003   1.922
30628WAT      O92125   2.091   7.404   4.816
30628WAT     H192126   2.186   7.422   4.840
30628WAT     H292127   2.087   7.360   4.726
30629WAT      O92128   3.471   5.484   7.764
30629WAT     H192129   3.521   5.570   7.768
30629WAT     H292130   3.412   5.476   7.844
30630WAT      O92131   3.072   4.136   7.395
30630WAT     H192132   2.983   4.102   7.364
30630WAT     H292133   3.098   4.214   7.338
30631WAT      O92134   7.615   1.507   6.844
30631WAT     H192135   7.524   1.493   6.883
30631WAT     H292136   7.621   1.460   6.756
30632WAT      O92137   4.647   8.191   0.371
30632WAT     H192138   4.573   8.139   0.329
30632WAT     H292139   4.675   8.146   0.456
30633WAT      O92140   0.728   5.497   9.101
30633WAT     H192141   0.815   5.542   9.081
30633WAT     H292142   0.657   5.566   9.114
30634WAT      O92143   5.913   8.382   3.829
30634WAT     H192144   5.914   8.418   3.923
30634WAT     H292145   5.999   8.406   3.783
30635WAT      O92146   6.993   6.418   8.384
30635WAT     H192147   7.044   6.372   8.457
30635WAT     H292148   6.975   6.513   8.410
30636WAT      O92149   5.161   5.903   1.578
30636WAT     H192150   5.245   5.851   1.594
30636WAT     H292151   5.082   5.848   1.607
30637WAT      O92152   3.210   9.662   3.541
30637WAT     H192153   3.219   9.762   3.539
30637WAT     H292154   3.179   9.634   3.632
30638WAT      O92155   6.838   3.283   7.929
30638WAT     H192156   6.776   3.351   7.969
30638WAT     H292157   6.813   3.267   7.833
30639WAT      O92158   4.421   8.615   0.669
30639WAT     H192159   4.463   8.557   0.598
30639WAT     H292160   4.434   8.572   0.758
30640WAT      O92161   0.678   4.583   1.325
30640WAT     H192162   0.652   4.655   1.260
30640WAT     H292163   0.775   4.592   1.346
30641WAT      O92164   3.120   6.399   2.355
30641WAT     H192165   3.040   6.347   2.385
30641WAT     H292166   3.097   6.497   2.351
30642WAT      O92167   8.048   0.453   6.209
30642WAT     H192168   8.004   0.368   6.181
30642WAT     H292169   8.016   0.478   6.301
30643WAT      O92170   7.219   1.089   5.585
30643WAT     H192171   7.192   1.171   5.535
30643WAT     H292172   7.138   1.037   5.611
30644WAT      O92173   6.884   7.610   9.464
30644WAT     H192174   6.870   7.609   9.563
30644WAT     H292175   6.818   7.672   9.422
30645WAT      O92176   2.895   8.748   0.200
30645WAT     H192177   2.822   8.804   0.240
30645WAT     H292178   2.966   8.808   0.164
30646WAT      O92179   6.267   5.249   7.230
30646WAT     H192180   6.213   5.329   7.207
30646WAT     H292181   6.299   5.256   7.325
30647WAT      O92182   7.835   2.056   6.486
30647WAT     H192183   7.909   2.013   6.434
30647WAT     H292184   7.870   2.137   6.532
30648WAT      O92185   0.852   6.436   1.759
30648WAT     H192186   0.901   6.500   1.699
30648WAT     H292187   0.918   6.384   1.813
30649WAT      O92188   5.502   9.424   4.284
30649WAT     H192189   5.575   9.406   4.218
30649WAT     H292190   5.437   9.489   4.244
30650WAT      O92191   3.109   4.979   1.274
30650WAT     H192192   3.028   4.935   1.235
30650WAT     H292193   3.183   4.912   1.283
30651WAT      O92194   4.406   2.639   0.390
30651WAT     H192195   4.351   2.687   0.322
30651WAT     H292196   4.493   2.612   0.351
30652WAT      O92197   7.352   6.360   9.568
30652WAT     H192198   7.394   6.431   9.511
30652WAT     H292199   7.255   6.379   9.578
30653WAT      O92200   9.728   5.699   0.172
30653WAT     H192201   9.714   5.798   0.171
30653WAT     H292202   9.643   5.653   0.196
30654WAT      O92203   9.127   9.312   2.446
30654WAT     H192204   9.028   9.316   2.454
30654WAT     H292205   9.167   9.398   2.476
30655WAT      O92206   8.801   6.222   6.106
30655WAT     H192207   8.879   6.197   6.163
30655WAT     H292208   8.726   6.159   6.123
30656WAT      O92209   2.600   1.120   7.971
30656WAT     H192210   2.540   1.117   7.892
30656WAT     H292211   2.602   1.029   8.014
30657WAT      O92212   5.731   3.387   4.264
30657WAT     H192213   5.685   3.431   4.341
30657WAT     H292214   5.687   3.413   4.179
30658WAT      O92215   5.095   2.720   5.184
30658WAT     H192216   5.187   2.724   5.145
30658WAT     H292217   5.033   2.778   5.130
30659WAT      O92218   0.437   6.411   4.269
30659WAT     H192219   0.469   6.316   4.271
30659WAT     H292220   0.427   6.445   4.362
30660WAT      O92221   3.611   2.814   5.074
30660WAT     H192222   3.705   2.781   5.086
30660WAT     H292223   3.549   2.753   5.124
30661WAT      O92224   0.464   1.151   7.546
30661WAT     H192225   0.523   1.190   7.616
30661WAT     H292226   0.516   1.137   7.462
30662WAT      O92227   3.502   8.779   3.787
30662WAT     H192228   3.457   8.800   3.701
30662WAT     H292229   3.438   8.794   3.863
30663WAT      O92230   1.877   6.840   7.712
30663WAT     H192231   1.814   6.777   7.666
30663WAT     H292232   1.963   6.842   7.661
30664WAT      O92233   7.854   4.495   8.115
30664WAT     H192234   7.841   4.442   8.032
30664WAT     H292235   7.948   4.529   8.118
30665WAT      O92236   3.847   6.468   5.636
30665WAT     H192237   3.868   6.390   5.577
30665WAT     H292238   3.921   6.535   5.631
30666WAT      O92239   8.185   9.762   7.554
30666WAT     H192240   8.110   9.741   7.491
30666WAT     H292241   8.254   9.816   7.506
30667WAT      O92242   0.296   2.647   6.990
30667WAT     H192243   0.335   2.738   6.978
30667WAT     H292244   0.364   2.587   7.032
30668WAT      O92245   6.797   7.797   6.280
30668WAT     H192246   6.889   7.764   6.300
30668WAT     H292247   6.793   7.896   6.295
30669WAT      O92248   5.039   1.091   3.348
30669WAT     H192249   5.057   1.189   3.356
30669WAT     H292250   5.006   1.055   3.436
30670WAT      O92251   0.884   1.170   1.888
30670WAT     H192252   0.899   1.096   1.822
30670WAT     H292253   0.971   1.215   1.908
30671WAT      O92254   2.054   0.794   0.580
30671WAT     H192255   2.048   0.831   0.488
30671WAT     H292256   2.114   0.851   0.636
30672WAT      O92257   8.611   4.418   0.571
30672WAT     H192258   8.702   4.381   0.591
30672WAT     H292259   8.611   4.517   0.589
30673WAT      O92260   3.950   3.485   9.204
30673WAT     H192261   3.892   3.415   9.162
30673WAT     H292262   3.920   3.576   9.174
30674WAT      O92263   0.949   0.109   0.429
30674WAT     H192264   0.964   0.141   0.335
30674WAT     H292265   1.032   0.127   0.483
30675WAT      O92266   5.053   8.469   3.377
30675WAT     H192267   5.090   8.548   3.424
30675WAT     H292268   5.099   8.386   3.409
30676WAT      O92269   0.026   7.836   5.266
30676WAT     H192270   0.076   7.780   5.332
30676WAT     H292271   0.091   7.875   5.200
30677WAT      O92272   2.177   8.363   2.443
30677WAT     H192273   2.220   8.441   2.398
30677WAT     H292274   2.231   8.339   2.524
30678WAT      O92275   7.484   6.852   7.678
30678WAT     H192276   7.459   6.823   7.586
30678WAT     H292277   7.401   6.874   7.730
30679WAT      O92278   5.414   4.828   7.362
30679WAT     H192279   5.337   4.766   7.348
30679WAT     H292280   5.489   4.778   7.408
30680WAT      O92281   8.808   7.600   2.046
30680WAT     H192282   8.780   7.582   1.952
30680WAT     H292283   8.733   7.576   2.108
30681WAT      O92284   8.673   4.049   8.541
30681WAT     H192285   8.691   4.132   8.488
30681WAT     H292286   8.576   4.025   8.534
30682WAT      O92287   0.916   0.518   4.414
30682WAT     H192288   0.907   0.617   4.409
30682WAT     H292289   0.836   0.480   4.460
30683WAT      O92290   5.478   1.092   3.586
30683WAT     H192291   5.500   1.153   3.662
30683WAT     H292292   5.406   1.133   3.530
30684WAT      O92293   9.297   2.994   5.821
30684WAT     H192294   9.205   3.001   5.859
30684WAT     H292295   9.305   3.054   5.742
30685WAT      O92296   5.122   6.303   9.621
30685WAT     H192297   5.063   6.368   9.573
30685WAT     H292298   5.066   6.234   9.667
30686WAT      O92299   9.530   0.448   1.665
30686WAT     H192300   9.433   0.469   1.678
30686WAT     H292301   9.556   0.467   1.571
30687WAT      O92302   1.399   3.118   3.359
30687WAT     H192303   1.410   3.201   3.414
30687WAT     H292304   1.489   3.079   3.339
30688WAT      O92305   4.444   4.349   9.848
30688WAT     H192306   4.463   4.270   9.790
30688WAT     H292307   4.515   4.356   9.919
30689WAT      O92308   9.424   9.380   4.320
30689WAT     H192309   9.449   9.295   4.366
30689WAT     H292310   9.325   9.388   4.316
30690WAT      O92311   5.924   7.007   4.717
30690WAT     H192312   5.888   7.069   4.648
30690WAT     H292313   5.853   6.943   4.746
30691WAT      O92314   2.197   7.370   2.564
30691WAT     H192315   2.211   7.310   2.643
30691WAT     H292316   2.282   7.420   2.544
30692WAT      O92317   3.534   3.987   9.424
30692WAT     H192318   3.438   3.989   9.450
30692WAT     H292319   3.555   3.900   9.379
30693WAT      O92320   7.463   1.929   0.491
30693WAT     H192321   7.402   1.925   0.413
30693WAT     H292322   7.526   2.006   0.481
30694WAT      O92323   1.118   4.145   8.862
30694WAT     H192324   1.211   4.130   8.827
30694WAT     H292325   1.095   4.074   8.929
30695WAT      O92326   1.554   6.054   1.097
30695WAT     H192327   1.459   6.028   1.111
30695WAT     H292328   1.614   5.979   1.127
30696WAT      O92329   4.117   4.141   6.554
30696WAT     H192330   4.116   4.042   6.567
30696WAT     H292331   4.027   4.172   6.523
30697WAT      O92332   8.772   4.969   5.300
30697WAT     H192333   8.732   4.941   5.387
30697WAT     H292334   8.867   4.937   5.295
30698WAT      O92335   1.646   5.376   1.028
30698WAT     H192336   1.599   5.399   0.943
30698WAT     H292337   1.716   5.307   1.010
30699WAT      O92338   5.121   6.717   3.204
30699WAT     H192339   5.142   6.814   3.203
30699WAT     H292340   5.204   6.664   3.219
30700WAT      O92341   0.105   6.736   8.880
30700WAT     H192342   0.079   6.704   8.971
30700WAT     H292343   0.176   6.676   8.843
30701WAT      O92344   9.866   7.904   6.196
30701WAT     H192345   9.962   7.917   6.220
30701WAT     H292346   9.808   7.958   6.257
30702WAT      O92347   3.500   2.095   6.000
30702WAT     H192348   3.502   2.109   5.901
30702WAT     H292349   3.571   2.029   6.026
30703WAT      O92350   2.973   4.686   1.704
30703WAT     H192351   2.986   4.587   1.693
30703WAT     H292352   2.876   4.709   1.691
30704WAT      O92353   2.846   5.091   3.366
30704WAT     H192354   2.780   5.164   3.384
30704WAT     H292355   2.859   5.081   3.267
30705WAT      O92356   8.383   9.742   0.161
30705WAT     H192357   8.471   9.695   0.169
30705WAT     H292358   8.399   9.838   0.136
30706WAT      O92359   2.186   6.621   2.965
30706WAT     H192360   2.167   6.523   2.961
30706WAT     H292361   2.109   6.669   3.007
30707WAT      O92362   7.681   0.008   9.749
30707WAT     H192363   7.684   0.108   9.747
30707WAT     H292364   7.741  -0.029   9.678
30708WAT      O92365   7.433   0.164   2.176
30708WAT     H192366   7.390   0.228   2.112
30708WAT     H292367   7.522   0.138   2.141
30709WAT      O92368   2.654   3.163   3.827
30709WAT     H192369   2.633   3.190   3.733
30709WAT     H292370   2.742   3.115   3.828
30710WAT      O92371   5.244   9.548   0.065
30710WAT     H192372   5.153   9.590   0.064
30710WAT     H292373   5.300   9.592   0.135
30711WAT      O92374   2.103   0.721   1.865
30711WAT     H192375   2.188   0.683   1.901
30711WAT     H292376   2.039   0.647   1.845
30712WAT      O92377   3.751   7.616   8.035
30712WAT     H192378   3.703   7.565   7.963
30712WAT     H292379   3.731   7.713   8.025
30713WAT      O92380   2.082   0.212   1.905
30713WAT     H192381   2.113   0.245   1.816
30713WAT     H292382   2.082   0.112   1.905
30714WAT      O92383   2.968   6.534   8.888
30714WAT     H192384   2.912   6.453   8.910
30714WAT     H292385   3.031   6.551   8.963
30715WAT      O92386   9.458   8.948   1.550
30715WAT     H192387   9.485   8.866   1.600
30715WAT     H292388   9.510   9.027   1.585
30716WAT      O92389   8.950   8.199   3.715
30716WAT     H192390   8.927   8.295   3.704
30716WAT     H292391   8.996   8.165   3.633
30717WAT      O92392   0.858   4.905   9.609
30717WAT     H192393   0.824   4.860   9.526
30717WAT     H292394   0.942   4.954   9.588
30718WAT      O92395   4.440   6.402   4.910
30718WAT     H192396   4.370   6.331   4.903
30718WAT     H292397   4.495   6.387   4.992
30719WAT      O92398   8.921   2.806   7.624
30719WAT     H192399   8.935   2.722   7.572
30719WAT     H292400   8.920   2.786   7.722
30720WAT      O92401   8.368   3.094   5.878
30720WAT     H192402   8.406   3.179   5.913
30720WAT     H292403   8.295   3.062   5.938
30721WAT      O92404   3.375   9.281   0.210
30721WAT     H192405   3.434   9.219   0.160
30721WAT     H292406   3.295   9.231   0.245
30722WAT      O92407   2.090   6.557   1.210
30722WAT     H192408   1.993   6.536   1.220
30722WAT     H292409   2.108   6.590   1.117
30723WAT      O92410   6.252   2.746   6.146
30723WAT     H192411   6.321   2.680   6.115
30723WAT     H292412   6.226   2.806   6.070
30724WAT      O92413   0.482   7.232   1.361
30724WAT     H192414   0.453   7.293   1.434
30724WAT     H292415   0.460   7.272   1.272
30725WAT      O92416   0.492   9.430   6.879
30725WAT     H192417   0.513   9.339   6.845
30725WAT     H292418   0.445   9.423   6.968
30726WAT      O92419   8.632   9.552   7.177
30726WAT     H192420   8.602   9.609   7.253
30726WAT     H292421   8.556   9.497   7.144
30727WAT      O92422   8.820   0.205   0.780
30727WAT     H192423   8.822   0.278   0.849
30727WAT     H292424   8.847   0.243   0.692
30728WAT      O92425   4.328   1.382   3.482
30728WAT     H192426   4.321   1.431   3.396
30728WAT     H292427   4.309   1.444   3.558
30729WAT      O92428   9.371   0.725   6.264
30729WAT     H192429   9.420   0.665   6.327
30729WAT     H292430   9.380   0.691   6.171
30730WAT      O92431   7.635   5.916   0.810
30730WAT     H192432   7.634   5.905   0.909
30730WAT     H292433   7.629   6.014   0.787
30731WAT      O92434   8.504   8.839   2.555
30731WAT     H192435   8.517   8.779   2.633
30731WAT     H292436   8.467   8.927   2.586
30732WAT      O92437   6.943   0.489   4.379
30732WAT     H192438   7.031   0.457   4.413
30732WAT     H292439   6.956   0.539   4.293
30733WAT      O92440   7.206   6.506   8.928
30733WAT     H192441   7.278   6.532   8.992
30733WAT     H292442   7.126   6.565   8.942
30734WAT      O92443   3.419   6.148   7.779
30734WAT     H192444   3.423   6.230   7.836
30734WAT     H292445   3.332   6.145   7.730
30735WAT      O92446   0.237   3.644   7.509
30735WAT     H192447   0.295   3.562   7.506
30735WAT     H292448   0.285   3.716   7.559
30736WAT      O92449   4.196   8.736   4.539
30736WAT     H192450   4.276   8.703   4.589
30736WAT     H292451   4.117   8.736   4.600
30737WAT      O92452   6.886   6.499   6.427
30737WAT     H192453   6.912   6.464   6.517
30737WAT     H292454   6.868   6.597   6.434
30738WAT      O92455   1.240   2.872   3.376
30738WAT     H192456   1.298   2.953   3.368
30738WAT     H292457   1.219   2.837   3.285
30739WAT      O92458   9.054   3.885   0.064
30739WAT     H192459   9.075   3.911  -0.031
30739WAT     H292460   8.962   3.848   0.068
30740WAT      O92461   5.425   8.149   8.942
30740WAT     H192462   5.521   8.129   8.960
30740WAT     H292463   5.398   8.230   8.995
30741WAT      O92464   6.206   4.473   4.781
30741WAT     H192465   6.294   4.427   4.776
30741WAT     H292466   6.217   4.561   4.829
30742WAT      O92467   3.048   8.653   7.017
30742WAT     H192468   3.139   8.694   7.008
30742WAT     H292469   3.009   8.676   7.105
30743WAT      O92470   2.492   4.061   5.257
30743WAT     H192471   2.590   4.060   5.277
30743WAT     H292472   2.478   4.078   5.160
30744WAT      O92473   7.059   0.224   7.263
30744WAT     H192474   7.065   0.163   7.343
30744WAT     H292475   6.964   0.234   7.236
30745WAT      O92476   4.065   4.285   9.836
30745WAT     H192477   3.972   4.248   9.830
30745WAT     H292478   4.125   4.219   9.881
30746WAT      O92479   7.121   5.099   7.734
30746WAT     H192480   7.104   5.100   7.636
30746WAT     H292481   7.161   5.012   7.761
30747WAT      O92482   6.884   7.504   4.577
30747WAT     H192483   6.897   7.573   4.648
30747WAT     H292484   6.960   7.508   4.512
30748WAT      O92485   8.784   5.379   2.825
30748WAT     H192486   8.875   5.419   2.827
30748WAT     H292487   8.766   5.335   2.913
30749WAT      O92488   8.028   1.203   7.317
30749WAT     H192489   7.947   1.153   7.285
30749WAT     H292490   8.036   1.194   7.417
30750WAT      O92491   2.931   3.736   7.026
30750WAT     H192492   2.943   3.695   6.935
30750WAT     H292493   2.844   3.705   7.065
30751WAT      O92494   7.373   6.750   5.180
30751WAT     H192495   7.387   6.813   5.104
30751WAT     H292496   7.275   6.730   5.189
30752WAT      O92497   9.166   7.323   3.193
30752WAT     H192498   9.217   7.340   3.109
30752WAT     H292499   9.130   7.229   3.191
30753WAT      O92500   6.717   0.522   5.600
30753WAT     H192501   6.759   0.439   5.638
30753WAT     H292502   6.684   0.503   5.508
30754WAT      O92503   2.199   7.252   9.123
30754WAT     H192504   2.195   7.321   9.051
30754WAT     H292505   2.294   7.227   9.139
30755WAT      O92506   2.875   3.220   0.189
30755WAT     H192507   2.892   3.314   0.219
30755WAT     H292508   2.941   3.159   0.232
30756WAT      O92509   9.597   0.122   7.810
30756WAT     H192510   9.590   0.087   7.717
30756WAT     H292511   9.686   0.165   7.823
30757WAT      O92512   4.625   5.478   4.592
30757WAT     H192513   4.587   5.406   4.534
30757WAT     H292514   4.724   5.478   4.585
30758WAT      O92515   1.231   9.016   2.581
30758WAT     H192516   1.316   9.067   2.567
30758WAT     H292517   1.248   8.918   2.571
30759WAT      O92518   5.813   1.806   3.813
30759WAT     H192519   5.839   1.857   3.730
30759WAT     H292520   5.714   1.813   3.826
30760WAT      O92521   5.532   7.290   9.346
30760WAT     H192522   5.569   7.215   9.401
30760WAT     H292523   5.436   7.304   9.370
30761WAT      O92524   5.897   3.104   4.923
30761WAT     H192525   5.889   3.111   4.824
30761WAT     H292526   5.906   3.196   4.962
30762WAT      O92527   4.322   1.457   2.610
30762WAT     H192528   4.350   1.401   2.531
30762WAT     H292529   4.327   1.554   2.586
30763WAT      O92530   6.888   6.286   5.112
30763WAT     H192531   6.818   6.260   5.045
30763WAT     H292532   6.958   6.343   5.067
30764WAT      O92533   3.744   1.836   8.080
30764WAT     H192534   3.758   1.791   7.991
30764WAT     H292535   3.656   1.885   8.079
30765WAT      O92536   0.868   1.075   4.565
30765WAT     H192537   0.913   1.003   4.619
30765WAT     H292538   0.902   1.164   4.594
30766WAT      O92539   4.162   5.553   1.996
30766WAT     H192540   4.162   5.457   1.968
30766WAT     H292541   4.101   5.564   2.074
30767WAT      O92542   4.296   8.993   1.843
30767WAT     H192543   4.199   8.983   1.861
30767WAT     H292544   4.348   8.978   1.927
30768WAT      O92545   5.927   0.540   6.977
30768WAT     H192546   5.915   0.465   6.912
30768WAT     H292547   5.900   0.510   7.068
30769WAT      O92548   5.786   5.199   7.637
30769WAT     H192549   5.723   5.121   7.637
30769WAT     H292550   5.774   5.252   7.720
30770WAT      O92551   0.715   3.143   3.855
30770WAT     H192552   0.663   3.214   3.807
30770WAT     H292553   0.757   3.082   3.789
30771WAT      O92554   5.241   5.507   3.093
30771WAT     H192555   5.156   5.529   3.046
30771WAT     H292556   5.279   5.590   3.134
30772WAT      O92557   2.463   5.875   8.176
30772WAT     H192558   2.426   5.931   8.250
30772WAT     H292559   2.563   5.873   8.182
30773WAT      O92560   3.878   9.739   9.446
30773WAT     H192561   3.955   9.720   9.507
30773WAT     H292562   3.815   9.802   9.490
30774WAT      O92563   6.231   5.676   0.289
30774WAT     H192564   6.140   5.641   0.268
30774WAT     H292565   6.225   5.773   0.314
30775WAT      O92566   5.863   9.474   6.942
30775WAT     H192567   5.892   9.562   6.906
30775WAT     H292568   5.838   9.413   6.866
30776WAT      O92569   1.535   3.405   1.760
30776WAT     H192570   1.617   3.460   1.773
30776WAT     H292571   1.559   3.319   1.715
30777WAT      O92572   4.883   1.968   5.649
30777WAT     H192573   4.843   1.879   5.673
30777WAT     H292574   4.912   2.014   5.732
30778WAT      O92575   8.736   5.811   2.179
30778WAT     H192576   8.757   5.909   2.177
30778WAT     H292577   8.765   5.769   2.093
30779WAT      O92578   0.922   1.535   7.796
30779WAT     H192579   0.901   1.440   7.816
30779WAT     H292580   1.021   1.547   7.789
30780WAT      O92581   6.222   9.760   3.508
30780WAT     H192582   6.192   9.696   3.579
30780WAT     H292583   6.228   9.852   3.547
30781WAT      O92584   0.955   3.963   0.214
30781WAT     H192585   0.968   4.005   0.124
30781WAT     H292586   1.005   3.876   0.218
30782WAT      O92587   4.988   1.144   3.616
30782WAT     H192588   5.069   1.195   3.644
30782WAT     H292589   4.934   1.121   3.697
30783WAT      O92590   2.394   2.316   0.450
30783WAT     H192591   2.371   2.400   0.400
30783WAT     H292592   2.493   2.310   0.461
30784WAT      O92593   5.418   8.903   4.929
30784WAT     H192594   5.360   8.824   4.952
30784WAT     H292595   5.502   8.871   4.886
30785WAT      O92596   8.168   5.819   8.806
30785WAT     H192597   8.084   5.801   8.754
30785WAT     H292598   8.228   5.879   8.754
30786WAT      O92599   7.092   0.616   1.405
30786WAT     H192600   7.008   0.561   1.405
30786WAT     H292601   7.118   0.636   1.310
30787WAT      O92602   5.326   4.928   2.256
30787WAT     H192603   5.256   4.978   2.205
30787WAT     H292604   5.413   4.977   2.248
30788WAT      O92605   1.449   1.000   3.789
30788WAT     H192606   1.539   0.956   3.788
30788WAT     H292607   1.378   0.930   3.780
30789WAT      O92608   3.779   0.787   9.520
30789WAT     H192609   3.776   0.861   9.453
30789WAT     H292610   3.874   0.764   9.541
30790WAT      O92611   7.854   6.581   3.412
30790WAT     H192612   7.810   6.499   3.449
30790WAT     H292613   7.947   6.587   3.448
30791WAT      O92614   2.046   3.057   7.982
30791WAT     H192615   2.032   3.151   8.011
30791WAT     H292616   2.007   2.995   8.051
30792WAT      O92617   0.435   0.989   7.922
30792WAT     H192618   0.439   1.078   7.966
30792WAT     H292619   0.524   0.944   7.929
30793WAT      O92620   8.164   5.020   3.496
30793WAT     H192621   8.228   4.997   3.569
30793WAT     H292622   8.213   5.025   3.409
30794WAT      O92623   3.654   3.732   8.924
30794WAT     H192624   3.678   3.767   8.833
30794WAT     H292625   3.555   3.718   8.929
30795WAT      O92626   1.354   6.452   6.223
30795WAT     H192627   1.285   6.513   6.184
30795WAT     H292628   1.312   6.363   6.244
30796WAT      O92629   9.470   5.038   5.176
30796WAT     H192630   9.530   5.050   5.256
30796WAT     H292631   9.517   5.070   5.094
30797WAT      O92632   3.841   4.893   5.182
30797WAT     H192633   3.797   4.917   5.096
30797WAT     H292634   3.937   4.922   5.179
30798WAT      O92635   2.762   9.808   7.502
30798WAT     H192636   2.674   9.832   7.542
30798WAT     H292637   2.757   9.819   7.402
30799WAT      O92638   2.472   5.587   3.221
30799WAT     H192639   2.553   5.640   3.244
30799WAT     H292640   2.478   5.556   3.126
30800WAT      O92641   5.055   8.031   5.059
30800WAT     H192642   5.083   8.002   5.151
30800WAT     H292643   5.037   7.950   5.003
30801WAT      O92644   6.853   4.515   3.818
30801WAT     H192645   6.788   4.592   3.815
30801WAT     H292646   6.877   4.487   3.726
30802WAT      O92647   8.921   4.162   0.922
30802WAT     H192648   8.843   4.218   0.951
30802WAT     H292649   8.981   4.216   0.864
30803WAT      O92650   7.801   1.175   4.719
30803WAT     H192651   7.868   1.102   4.707
30803WAT     H292652   7.828   1.253   4.662
30804WAT      O92653   1.120   8.253   9.511
30804WAT     H192654   1.116   8.219   9.605
30804WAT     H292655   1.144   8.350   9.513
30805WAT      O92656   5.072   7.008   0.805
30805WAT     H192657   4.991   7.056   0.838
30805WAT     H292658   5.061   6.910   0.819
30806WAT      O92659   8.276   1.615   4.151
30806WAT     H192660   8.344   1.685   4.130
30806WAT     H292661   8.188   1.642   4.111
30807WAT      O92662   3.908   1.267   6.036
30807WAT     H192663   3.930   1.191   5.975
30807WAT     H292664   3.816   1.255   6.072
30808WAT      O92665   2.286   8.742   0.006
30808WAT     H192666   2.225   8.759   0.083
30808WAT     H292667   2.250   8.786  -0.076
30809WAT      O92668   6.853   5.064   1.647
30809WAT     H192669   6.808   5.025   1.727
30809WAT     H292670   6.858   4.995   1.574
30810WAT      O92671   9.158   8.060   0.683
30810WAT     H192672   9.134   8.100   0.594
30810WAT     H292673   9.257   8.060   0.694
30811WAT      O92674   7.709   7.389   2.335
30811WAT     H192675   7.782   7.441   2.379
30811WAT     H292676   7.660   7.447   2.270
30812WAT      O92677   7.201   7.121   2.997
30812WAT     H192678   7.110   7.080   2.991
30812WAT     H292679   7.234   7.113   3.091
30813WAT      O92680   5.095   8.178   3.434
30813WAT     H192681   5.019   8.187   3.369
30813WAT     H292682   5.084   8.093   3.486
30814WAT      O92683   4.111   8.500   5.529
30814WAT     H192684   4.197   8.500   5.580
30814WAT     H292685   4.070   8.591   5.532
30815WAT      O92686   4.680   4.345   0.152
30815WAT     H192687   4.733   4.271   0.111
30815WAT     H292688   4.664   4.325   0.249
30816WAT      O92689   6.584   2.025   7.027
30816WAT     H192690   6.654   2.041   7.097
30816WAT     H292691   6.512   1.966   7.066
30817WAT      O92692   9.488   8.291   5.324
30817WAT     H192693   9.480   8.250   5.415
30817WAT     H292694   9.472   8.221   5.255
30818WAT      O92695   8.963   7.212   9.842
30818WAT     H192696   9.049   7.168   9.868
30818WAT     H292697   8.900   7.142   9.806
30819WAT      O92698   1.190   1.534   8.066
30819WAT     H192699   1.282   1.536   8.103
30819WAT     H292700   1.192   1.557   7.969
30820WAT      O92701   4.512   3.844   6.508
30820WAT     H192702   4.481   3.935   6.480
30820WAT     H292703   4.610   3.848   6.530
30821WAT      O92704   3.294   0.337   0.018
30821WAT     H192705   3.215   0.276   0.009
30821WAT     H292706   3.378   0.284   0.012
30822WAT      O92707   0.365   9.261   8.544
30822WAT     H192708   0.401   9.183   8.492
30822WAT     H292709   0.426   9.281   8.621
30823WAT      O92710   3.007   5.447   6.426
30823WAT     H192711   2.972   5.441   6.520
30823WAT     H292712   3.053   5.534   6.412
30824WAT      O92713   4.472   0.963   6.995
30824WAT     H192714   4.415   0.989   7.073
30824WAT     H292715   4.568   0.984   7.014
30825WAT      O92716   1.491   8.298   1.321
30825WAT     H192717   1.512   8.388   1.359
30825WAT     H292718   1.575   8.253   1.293
30826WAT      O92719   1.056   1.873   9.833
30826WAT     H192720   1.043   1.970   9.855
30826WAT     H292721   1.011   1.853   9.746
30827WAT      O92722   0.483   9.792   7.307
30827WAT     H192723   0.394   9.804   7.262
30827WAT     H292724   0.471   9.798   7.406
30828WAT      O92725   8.728   1.232   6.116
30828WAT     H192726   8.674   1.310   6.085
30828WAT     H292727   8.778   1.256   6.200
30829WAT      O92728   6.765   4.825   2.328
30829WAT     H192729   6.820   4.843   2.247
30829WAT     H292730   6.675   4.792   2.301
30830WAT      O92731   6.514   9.707   8.670
30830WAT     H192732   6.550   9.660   8.750
30830WAT     H292733   6.450   9.778   8.698
30831WAT      O92734   5.954   0.274   2.969
30831WAT     H192735   6.036   0.321   2.937
30831WAT     H292736   5.955   0.179   2.935
30832WAT      O92737   0.192   0.849   0.915
30832WAT     H192738   0.202   0.884   0.822
30832WAT     H292739   0.183   0.925   0.979
30833WAT      O92740   3.166   2.950   1.450
30833WAT     H192741   3.131   2.955   1.357
30833WAT     H292742   3.234   2.877   1.456
30834WAT      O92743   6.307   7.209   0.200
30834WAT     H192744   6.311   7.121   0.153
30834WAT     H292745   6.223   7.258   0.174
30835WAT      O92746   8.592   6.034   8.375
30835WAT     H192747   8.510   5.991   8.336
30835WAT     H292748   8.659   5.963   8.397
30836WAT      O92749   5.263   1.826   9.736
30836WAT     H192750   5.169   1.843   9.763
30836WAT     H292751   5.323   1.831   9.816
30837WAT      O92752   6.251   8.772   3.866
30837WAT     H192753   6.170   8.771   3.808
30837WAT     H292754   6.233   8.827   3.948
30838WAT      O92755   3.145   5.970   4.587
30838WAT     H192756   3.232   5.985   4.540
30838WAT     H292757   3.087   6.051   4.575
30839WAT      O92758   2.619   2.499   3.958
30839WAT     H192759   2.691   2.493   4.027
30839WAT     H292760   2.604   2.408   3.919
30840WAT      O92761   7.361   9.038   7.310
30840WAT     H192762   7.422   8.960   7.294
30840WAT     H292763   7.385   9.112   7.247
30841WAT      O92764   1.598   6.328   9.792
30841WAT     H192765   1.624   6.278   9.874
30841WAT     H292766   1.568   6.262   9.722
30842WAT      O92767   0.600   1.119   8.764
30842WAT     H192768   0.514   1.079   8.794
30842WAT     H292769   0.588   1.161   8.674
30843WAT      O92770   4.485   8.128   4.693
30843WAT     H192771   4.445   8.107   4.783
30843WAT     H292772   4.574   8.170   4.705
30844WAT      O92773   4.502   7.780   3.346
30844WAT     H192774   4.580   7.817   3.397
30844WAT     H292775   4.528   7.767   3.251
30845WAT      O92776   6.397   2.725   1.896
30845WAT     H192777   6.351   2.647   1.853
30845WAT     H292778   6.372   2.809   1.849
30846WAT      O92779   1.041   5.664   3.407
30846WAT     H192780   1.041   5.565   3.422
30846WAT     H292781   1.002   5.684   3.317
30847WAT      O92782   6.660   7.666   1.298
30847WAT     H192783   6.626   7.601   1.231
30847WAT     H292784   6.738   7.627   1.347
30848WAT      O92785   2.842   1.537   1.296
30848WAT     H192786   2.880   1.561   1.207
30848WAT     H292787   2.905   1.568   1.368
30849WAT      O92788   2.994   1.406   8.784
30849WAT     H192789   2.965   1.471   8.714
30849WAT     H292790   2.984   1.313   8.751
30850WAT      O92791   2.926   8.401   5.537
30850WAT     H192792   2.832   8.436   5.529
30850WAT     H292793   2.925   8.313   5.583
30851WAT      O92794   2.042   0.251   4.867
30851WAT     H192795   2.028   0.350   4.861
30851WAT     H292796   2.033   0.210   4.776
30852WAT      O92797   5.393   9.647   8.288
30852WAT     H192798   5.393   9.548   8.269
30852WAT     H292799   5.482   9.685   8.263
30853WAT      O92800   2.314   3.470   3.280
30853WAT     H192801   2.304   3.563   3.245
30853WAT     H292802   2.270   3.406   3.217
30854WAT      O92803   0.919   2.722   6.843
30854WAT     H192804   0.875   2.769   6.920
30854WAT     H292805   0.917   2.623   6.860
30855WAT      O92806   0.404   4.115   6.493
30855WAT     H192807   0.354   4.033   6.520
30855WAT     H292808   0.399   4.127   6.394
30856WAT      O92809   1.036   7.500   3.704
30856WAT     H192810   1.083   7.566   3.764
30856WAT     H292811   0.941   7.528   3.693
30857WAT      O92812   5.267   9.523   6.084
30857WAT     H192813   5.289   9.434   6.122
30857WAT     H292814   5.350   9.568   6.052
30858WAT      O92815   1.674   4.484   1.447
30858WAT     H192816   1.663   4.556   1.378
30858WAT     H292817   1.589   4.432   1.452
30859WAT      O92818   0.442   8.298   5.211
30859WAT     H192819   0.519   8.311   5.149
30859WAT     H292820   0.473   8.249   5.292
30860WAT      O92821   4.118   5.994   4.888
30860WAT     H192822   4.163   5.925   4.831
30860WAT     H292823   4.049   5.950   4.945
30861WAT      O92824   2.577   7.783   0.062
30861WAT     H192825   2.653   7.783   0.127
30861WAT     H292826   2.518   7.704   0.078
30862WAT      O92827   4.473   8.635   2.642
30862WAT     H192828   4.526   8.661   2.722
30862WAT     H292829   4.402   8.703   2.625
30863WAT      O92830   3.792   7.019   2.849
30863WAT     H192831   3.825   6.944   2.790
30863WAT     H292832   3.729   6.982   2.917
30864WAT      O92833   2.872   0.317   2.972
30864WAT     H192834   2.931   0.244   3.008
30864WAT     H292835   2.920   0.366   2.899
30865WAT      O92836   3.643   3.430   6.475
30865WAT     H192837   3.733   3.473   6.465
30865WAT     H292838   3.655   3.338   6.513
30866WAT      O92839   5.804   2.018   1.485
30866WAT     H192840   5.845   2.023   1.576
30866WAT     H292841   5.816   2.105   1.439
30867WAT      O92842   8.379   2.864   6.273
30867WAT     H192843   8.363   2.766   6.273
30867WAT     H292844   8.330   2.906   6.197
30868WAT      O92845   5.540   8.549   1.135
30868WAT     H192846   5.516   8.523   1.041
30868WAT     H292847   5.626   8.506   1.160
30869WAT      O92848   4.881   9.746   5.192
30869WAT     H192849   4.866   9.737   5.094
30869WAT     H292850   4.876   9.842   5.218
30870WAT      O92851   5.498   4.129   3.913
30870WAT     H192852   5.498   4.126   3.813
30870WAT     H292853   5.432   4.197   3.945
30871WAT      O92854   5.335   2.361   4.528
30871WAT     H192855   5.407   2.341   4.462
30871WAT     H292856   5.317   2.278   4.582
30872WAT      O92857   1.345   5.746   1.802
30872WAT     H192858   1.371   5.772   1.895
30872WAT     H292859   1.427   5.718   1.752
30873WAT      O92860   8.287   5.271   9.528
30873WAT     H192861   8.269   5.320   9.613
30873WAT     H292862   8.201   5.258   9.478
30874WAT      O92863   5.738   3.321   3.864
30874WAT     H192864   5.649   3.322   3.817
30874WAT     H292865   5.811   3.313   3.796
30875WAT      O92866   7.930   4.343   3.409
30875WAT     H192867   7.834   4.316   3.416
30875WAT     H292868   7.987   4.262   3.395
30876WAT      O92869   6.169   7.550   5.084
30876WAT     H192870   6.173   7.555   4.985
30876WAT     H292871   6.101   7.616   5.118
30877WAT      O92872   8.751   4.252   4.975
30877WAT     H192873   8.668   4.298   4.944
30877WAT     H292874   8.727   4.183   5.043
30878WAT      O92875   1.643   2.254   7.777
30878WAT     H192876   1.741   2.262   7.761
30878WAT     H292877   1.605   2.183   7.717
30879WAT      O92878   5.519   1.277   4.266
30879WAT     H192879   5.423   1.297   4.243
30879WAT     H292880   5.540   1.314   4.356
30880WAT      O92881   3.038   2.292   0.728
30880WAT     H192882   3.072   2.222   0.791
30880WAT     H292883   3.002   2.249   0.646
30881WAT      O92884   1.854   4.300   9.077
30881WAT     H192885   1.903   4.277   8.993
30881WAT     H292886   1.820   4.394   9.071
30882WAT      O92887   4.663   0.846   3.919
30882WAT     H192888   4.621   0.927   3.878
30882WAT     H292889   4.757   0.837   3.888
30883WAT      O92890   3.618   5.541   2.896
30883WAT     H192891   3.600   5.453   2.940
30883WAT     H292892   3.554   5.553   2.819
30884WAT      O92893   0.132   5.135   1.939
30884WAT     H192894   0.149   5.042   1.972
30884WAT     H292895   0.094   5.190   2.014
30885WAT      O92896   1.246   0.195   9.597
30885WAT     H192897   1.206   0.104   9.591
30885WAT     H292898   1.235   0.231   9.690
30886WAT      O92899   6.977   3.952   7.199
30886WAT     H192900   7.040   3.978   7.271
30886WAT     H292901   7.015   3.875   7.147
30887WAT      O92902   4.357   3.519   5.735
30887WAT     H192903   4.407   3.571   5.804
30887WAT     H292904   4.317   3.438   5.777
30888WAT      O92905   4.513   3.381   8.198
30888WAT     H192906   4.608   3.350   8.191
30888WAT     H292907   4.482   3.373   8.292
30889WAT      O92908   4.839   6.640   4.312
30889WAT     H192909   4.839   6.605   4.406
30889WAT     H292910   4.776   6.587   4.256
30890WAT      O92911   6.074   4.442   0.222
30890WAT     H192912   6.016   4.377   0.173
30890WAT     H292913   6.020   4.491   0.290
30891WAT      O92914   6.172   8.448   8.071
30891WAT     H192915   6.263   8.474   8.038
30891WAT     H292916   6.155   8.491   8.160
30892WAT      O92917   0.719   1.557   6.480
30892WAT     H192918   0.750   1.571   6.574
30892WAT     H292919   0.747   1.636   6.424
30893WAT      O92920   5.196   8.307   4.298
30893WAT     H192921   5.118   8.263   4.255
30893WAT     H292922   5.192   8.406   4.284
30894WAT      O92923   4.224   5.827   7.621
30894WAT     H192924   4.231   5.751   7.557
30894WAT     H292925   4.235   5.913   7.572
30895WAT      O92926   8.638   4.136   9.523
30895WAT     H192927   8.679   4.047   9.504
30895WAT     H292928   8.550   4.123   9.570
30896WAT      O92929   2.171   8.310   6.891
30896WAT     H192930   2.109   8.354   6.955
30896WAT     H292931   2.210   8.378   6.830
30897WAT      O92932   3.541   7.684   5.502
30897WAT     H192933   3.568   7.657   5.594
30897WAT     H292934   3.508   7.604   5.452
30898WAT      O92935   0.292   5.486   4.357
30898WAT     H192936   0.366   5.538   4.315
30898WAT     H292937   0.300   5.389   4.332
30899WAT      O92938   1.751   3.402   8.935
30899WAT     H192939   1.828   3.346   8.906
30899WAT     H292940   1.673   3.344   8.958
30900WAT      O92941   6.485   5.585   1.179
30900WAT     H192942   6.555   5.588   1.108
30900WAT     H292943   6.515   5.639   1.258
30901WAT      O92944   7.110   2.124   1.568
30901WAT     H192945   7.207   2.144   1.576
30901WAT     H292946   7.086   2.114   1.471
30902WAT      O92947   4.843   7.697   1.887
30902WAT     H192948   4.905   7.741   1.823
30902WAT     H292949   4.803   7.766   1.948
30903WAT      O92950   6.081   3.245   5.773
30903WAT     H192951   6.164   3.194   5.796
30903WAT     H292952   6.056   3.228   5.678
30904WAT      O92953   5.947   0.149   5.687
30904WAT     H192954   5.893   0.068   5.707
30904WAT     H292955   5.942   0.170   5.589
30905WAT      O92956   9.505   8.562   6.795
30905WAT     H192957   9.433   8.560   6.864
30905WAT     H292958   9.577   8.625   6.823
30906WAT      O92959   1.018   1.338   8.473
30906WAT     H192960   1.066   1.425   8.461
30906WAT     H292961   0.932   1.340   8.423
30907WAT      O92962   9.473   8.020   2.420
30907WAT     H192963   9.505   7.975   2.336
30907WAT     H292964   9.414   7.957   2.471
30908WAT      O92965   5.480   6.939   6.578
30908WAT     H192966   5.501   6.908   6.671
30908WAT     H292967   5.455   7.035   6.580
30909WAT      O92968   0.282   8.417   0.514
30909WAT     H192969   0.213   8.405   0.444
30909WAT     H292970   0.264   8.500   0.566
30910WAT      O92971   1.400   2.711   8.904
30910WAT     H192972   1.500   2.715   8.911
30910WAT     H292973   1.371   2.749   8.816
30911WAT      O92974   6.707   2.507   7.933
30911WAT     H192975   6.694   2.408   7.932
30911WAT     H292976   6.662   2.546   8.013
30912WAT      O92977   3.348   2.189   0.803
30912WAT     H192978   3.389   2.249   0.873
30912WAT     H292979   3.283   2.128   0.847
30913WAT      O92980   1.380   4.601   6.726
30913WAT     H192981   1.469   4.631   6.758
30913WAT     H292982   1.326   4.567   6.803
30914WAT      O92983   9.065   7.372   2.356
30914WAT     H192984   9.037   7.351   2.263
30914WAT     H292985   9.126   7.300   2.389
30915WAT      O92986   6.692   6.049   2.706
30915WAT     H192987   6.743   6.103   2.773
30915WAT     H292988   6.600   6.087   2.697
30916WAT      O92989   3.684   4.263   3.497
30916WAT     H192990   3.602   4.270   3.440
30916WAT     H292991   3.701   4.351   3.542
30917WAT      O92992   8.946   4.160   7.938
30917WAT     H192993   8.896   4.104   7.872
30917WAT     H292994   8.923   4.131   8.030
30918WAT      O92995   8.378   0.757   7.939
30918WAT     H192996   8.422   0.730   8.024
30918WAT     H292997   8.447   0.782   7.872
30919WAT      O92998   8.395   9.541   5.881
30919WAT     H192999   8.482   9.499   5.909
30919WAT     H293000   8.349   9.481   5.815
30920WAT      O93001   8.749   5.722   6.453
30920WAT     H193002   8.788   5.632   6.473
30920WAT     H293003   8.653   5.723   6.481
30921WAT      O93004   9.098   3.859   9.375
30921WAT     H193005   9.090   3.783   9.311
30921WAT     H293006   9.052   3.939   9.338
30922WAT      O93007   5.412   3.844   6.582
30922WAT     H193008   5.488   3.840   6.517
30922WAT     H293009   5.347   3.770   6.562
30923WAT      O93010   6.515   7.785   4.378
30923WAT     H193011   6.461   7.778   4.294
30923WAT     H293012   6.609   7.810   4.355
30924WAT      O93013   7.794   6.530   2.104
30924WAT     H193014   7.872   6.468   2.095
30924WAT     H293015   7.827   6.619   2.138
30925WAT      O93016   4.749   8.763   8.189
30925WAT     H193017   4.742   8.695   8.261
30925WAT     H293018   4.660   8.808   8.178
30926WAT      O93019   6.355   1.585   9.313
30926WAT     H193020   6.393   1.675   9.294
30926WAT     H293021   6.327   1.580   9.409
30927WAT      O93022   6.721   9.197   2.944
30927WAT     H193023   6.754   9.131   2.878
30927WAT     H293024   6.624   9.216   2.927
30928WAT      O93025   8.564   2.445   8.067
30928WAT     H193026   8.663   2.445   8.083
30928WAT     H293027   8.537   2.359   8.024
30929WAT      O93028   7.086   1.671   2.923
30929WAT     H193029   7.180   1.668   2.890
30929WAT     H293030   7.082   1.716   3.012
30930WAT      O93031   3.828   4.374   1.631
30930WAT     H193032   3.872   4.427   1.704
30930WAT     H293033   3.868   4.282   1.630
30931WAT      O93034   2.706   6.709   5.138
30931WAT     H193035   2.760   6.738   5.217
30931WAT     H293036   2.697   6.786   5.074
30932WAT      O93037   6.940   7.225   7.793
30932WAT     H193038   6.871   7.235   7.864
30932WAT     H293039   6.965   7.129   7.785
30933WAT      O93040   1.507   6.031   8.704
30933WAT     H193041   1.531   5.970   8.628
30933WAT     H293042   1.408   6.028   8.718
30934WAT      O93043   0.861   3.431   8.686
30934WAT     H193044   0.795   3.505   8.693
30934WAT     H293045   0.880   3.411   8.590
30935WAT      O93046   6.577   0.617   2.690
30935WAT     H193047   6.580   0.629   2.789
30935WAT     H293048   6.553   0.704   2.647
30936WAT      O93049   0.683   8.139   6.594
30936WAT     H193050   0.645   8.182   6.675
30936WAT     H293051   0.621   8.154   6.516
30937WAT      O93052   0.660   8.882   4.417
30937WAT     H193053   0.577   8.900   4.365
30937WAT     H293054   0.711   8.967   4.431
30938WAT      O93055   2.932   1.464   9.040
30938WAT     H193056   2.973   1.446   8.950
30938WAT     H293057   2.997   1.512   9.098
30939WAT      O93058   2.519   8.830   1.701
30939WAT     H193059   2.555   8.913   1.659
30939WAT     H293060   2.434   8.804   1.654
30940WAT      O93061   6.857   9.305   6.042
30940WAT     H193062   6.944   9.259   6.028
30940WAT     H293063   6.783   9.250   6.002
30941WAT      O93064   9.620   3.277   5.274
30941WAT     H193065   9.588   3.300   5.183
30941WAT     H293066   9.674   3.352   5.311
30942WAT      O93067   1.516   4.008   2.170
30942WAT     H193068   1.445   4.077   2.181
30942WAT     H293069   1.498   3.931   2.231
30943WAT      O93070   6.023   3.493   2.006
30943WAT     H193071   6.087   3.539   1.945
30943WAT     H293072   5.941   3.466   1.955
30944WAT      O93073   9.525   7.961   2.816
30944WAT     H193074   9.556   8.040   2.869
30944WAT     H293075   9.495   7.889   2.879
30945WAT      O93076   9.238   2.453   8.474
30945WAT     H193077   9.268   2.487   8.385
30945WAT     H293078   9.141   2.473   8.486
30946WAT      O93079   0.806   1.492   5.693
30946WAT     H193080   0.853   1.571   5.653
30946WAT     H293081   0.716   1.483   5.650
30947WAT      O93082   9.661   0.456   7.148
30947WAT     H193083   9.683   0.359   7.137
30947WAT     H293084   9.568   0.473   7.116
30948WAT      O93085   8.859   9.238   3.231
30948WAT     H193086   8.831   9.307   3.297
30948WAT     H293087   8.802   9.156   3.242
30949WAT      O93088   0.193   8.304   9.456
30949WAT     H193089   0.187   8.224   9.516
30949WAT     H293090   0.201   8.273   9.361
30950WAT      O93091   2.419   1.976   4.806
30950WAT     H193092   2.517   1.957   4.798
30950WAT     H293093   2.403   2.035   4.885
30951WAT      O93094   2.334   3.357   6.902
30951WAT     H193095   2.370   3.336   6.811
30951WAT     H293096   2.403   3.335   6.971
30952WAT      O93097   0.544   5.723   2.355
30952WAT     H193098   0.614   5.660   2.322
30952WAT     H293099   0.553   5.734   2.454
30953WAT      O93100   7.053   8.192   4.331
30953WAT     H193101   7.010   8.249   4.261
30953WAT     H293102   7.072   8.246   4.412
30954WAT      O93103   1.293   5.091   5.172
30954WAT     H193104   1.377   5.145   5.175
30954WAT     H293105   1.294   5.024   5.246
30955WAT      O93106   8.907   9.298   1.823
30955WAT     H193107   8.809   9.308   1.809
30955WAT     H293108   8.942   9.375   1.876
30956WAT      O93109   4.771   4.599   7.102
30956WAT     H193110   4.785   4.578   7.005
30956WAT     H293111   4.717   4.683   7.111
30957WAT      O93112   9.840   0.645   1.286
30957WAT     H193113   9.879   0.582   1.219
30957WAT     H293114   9.914   0.693   1.333
30958WAT      O93115   1.383   0.889   8.793
30958WAT     H193116   1.399   0.981   8.757
30958WAT     H293117   1.284   0.873   8.802
30959WAT      O93118   8.192   3.927   0.442
30959WAT     H193119   8.108   3.898   0.397
30959WAT     H293120   8.268   3.925   0.376
30960WAT      O93121   8.655   0.085   5.957
30960WAT     H193122   8.716   0.135   5.896
30960WAT     H293123   8.584   0.147   5.992
30961WAT      O93124   3.453   4.075   0.104
30961WAT     H193125   3.542   4.033   0.089
30961WAT     H293126   3.415   4.043   0.191
30962WAT      O93127   8.737   7.691   5.752
30962WAT     H193128   8.702   7.637   5.675
30962WAT     H293129   8.806   7.755   5.718
30963WAT      O93130   3.191   2.154   6.794
30963WAT     H193131   3.250   2.205   6.731
30963WAT     H293132   3.134   2.218   6.845
30964WAT      O93133   3.739   7.533   2.813
30964WAT     H193134   3.783   7.516   2.901
30964WAT     H293135   3.736   7.449   2.759
30965WAT      O93136   3.713   5.016   1.255
30965WAT     H193137   3.712   4.940   1.320
30965WAT     H293138   3.743   4.984   1.166
30966WAT      O93139   5.096   7.387   4.500
30966WAT     H193140   5.121   7.483   4.482
30966WAT     H293141   5.073   7.342   4.414
30967WAT      O93142   2.760   3.034   0.461
30967WAT     H193143   2.691   3.064   0.395
30967WAT     H293144   2.801   3.114   0.505
30968WAT      O93145   6.899   8.017   0.126
30968WAT     H193146   6.826   7.953   0.102
30968WAT     H293147   6.895   8.036   0.224
30969WAT      O93148   9.163   2.038   1.251
30969WAT     H193149   9.122   1.957   1.208
30969WAT     H293150   9.260   2.021   1.270
30970WAT      O93151   2.929   9.596   4.598
30970WAT     H193152   2.836   9.574   4.627
30970WAT     H293153   2.974   9.513   4.566
30971WAT      O93154   6.240   7.912   7.602
30971WAT     H193155   6.200   7.877   7.517
30971WAT     H293156   6.209   8.006   7.617
30972WAT      O93157   3.520   9.736   0.649
30972WAT     H193158   3.421   9.742   0.664
30972WAT     H293159   3.548   9.807   0.585
30973WAT      O93160   0.481   1.382   0.877
30973WAT     H193161   0.534   1.323   0.816
30973WAT     H293162   0.385   1.355   0.873
30974WAT      O93163   1.336   8.624   0.389
30974WAT     H193164   1.292   8.634   0.300
30974WAT     H293165   1.392   8.541   0.389
30975WAT      O93166   7.776   5.608   8.148
30975WAT     H193167   7.677   5.621   8.155
30975WAT     H293168   7.796   5.511   8.135
30976WAT      O93169   3.772   2.276   9.429
30976WAT     H193170   3.810   2.189   9.396
30976WAT     H293171   3.688   2.296   9.379
30977WAT      O93172   3.888   3.652   2.510
30977WAT     H193173   3.805   3.663   2.566
30977WAT     H293174   3.874   3.699   2.423
30978WAT      O93175   8.539   6.463   3.288
30978WAT     H193176   8.568   6.377   3.329
30978WAT     H293177   8.492   6.444   3.202
30979WAT      O93178   9.627   6.848   6.647
30979WAT     H193179   9.620   6.823   6.551
30979WAT     H293180   9.566   6.791   6.702
30980WAT      O93181   5.229   8.383   8.441
30980WAT     H193182   5.201   8.465   8.390
30980WAT     H293183   5.174   8.305   8.411
30981WAT      O93184   4.964   9.456   2.495
30981WAT     H193185   4.915   9.402   2.564
30981WAT     H293186   5.061   9.429   2.495
30982WAT      O93187   4.431   3.366   5.441
30982WAT     H193188   4.360   3.309   5.482
30982WAT     H293189   4.417   3.461   5.469
30983WAT      O93190   0.054   8.839   6.371
30983WAT     H193191   0.056   8.800   6.279
30983WAT     H293192  -0.033   8.887   6.385
30984WAT      O93193   9.306   3.892   2.020
30984WAT     H193194   9.255   3.853   1.944
30984WAT     H293195   9.404   3.875   2.007
30985WAT      O93196   3.994   5.477   4.628
30985WAT     H193197   4.071   5.475   4.693
30985WAT     H293198   3.914   5.517   4.673
30986WAT      O93199   3.482   2.264   0.055
30986WAT     H193200   3.408   2.321   0.091
30986WAT     H293201   3.516   2.303  -0.030
30987WAT      O93202   2.877   8.606   1.736
30987WAT     H193203   2.877   8.688   1.793
30987WAT     H293204   2.788   8.562   1.739
30988WAT      O93205   7.228   8.589   8.032
30988WAT     H193206   7.233   8.595   8.131
30988WAT     H293207   7.165   8.516   8.006
30989WAT      O93208   6.225   8.167   3.561
30989WAT     H193209   6.313   8.130   3.531
30989WAT     H293210   6.176   8.097   3.613
30990WAT      O93211   4.519   9.155   8.415
30990WAT     H193212   4.592   9.092   8.389
30990WAT     H293213   4.544   9.200   8.501
30991WAT      O93214   4.896   6.465   7.955
30991WAT     H193215   4.990   6.496   7.942
30991WAT     H293216   4.893   6.399   8.029
30992WAT      O93217   5.720   6.702   5.193
30992WAT     H193218   5.797   6.695   5.257
30992WAT     H293219   5.706   6.615   5.147
30993WAT      O93220   3.733   4.977   8.089
30993WAT     H193221   3.665   4.997   8.018
30993WAT     H293222   3.687   4.972   8.178
30994WAT      O93223   0.440   6.098   4.410
30994WAT     H193224   0.430   6.005   4.372
30994WAT     H293225   0.534   6.128   4.398
30995WAT      O93226   7.212   2.438   0.889
30995WAT     H193227   7.165   2.475   0.969
30995WAT     H293228   7.241   2.344   0.908
30996WAT      O93229   7.042   4.722   1.068
30996WAT     H193230   7.017   4.662   1.144
30996WAT     H293231   6.995   4.693   0.985
30997WAT      O93232   8.050   4.516   1.486
30997WAT     H193233   8.063   4.593   1.549
30997WAT     H293234   8.028   4.551   1.395
30998WAT      O93235   9.551   8.639   8.735
30998WAT     H193236   9.454   8.653   8.718
30998WAT     H293237   9.564   8.556   8.788
30999WAT      O93238   5.845   4.311   6.851
30999WAT     H193239   5.774   4.292   6.918
30999WAT     H293240   5.810   4.373   6.781
31000WAT      O93241   1.066   1.016   5.443
31000WAT     H193242   1.063   0.949   5.518
31000WAT     H293243   0.981   1.069   5.443
31001WAT      O93244   5.353   8.895   0.568
31001WAT     H193245   5.443   8.909   0.608
31001WAT     H293246   5.329   8.973   0.510
31002WAT      O93247   4.743   7.248   8.559
31002WAT     H193248   4.757   7.201   8.646
31002WAT     H293249   4.707   7.340   8.576
31003WAT      O93250   3.214   2.771   7.857
31003WAT     H193251   3.161   2.792   7.939
31003WAT     H293252   3.190   2.680   7.824
31004WAT      O93253   3.239   9.706   0.635
31004WAT     H193254   3.223   9.613   0.601
31004WAT     H293255   3.196   9.772   0.573
31005WAT      O93256   5.835   3.122   4.275
31005WAT     H193257   5.799   3.210   4.305
31005WAT     H293258   5.831   3.116   4.175
31006WAT      O93259   6.585   5.908   6.014
31006WAT     H193260   6.640   5.983   5.980
31006WAT     H293261   6.512   5.944   6.073
31007WAT      O93262   0.819   1.409   8.316
31007WAT     H193263   0.874   1.478   8.269
31007WAT     H293264   0.722   1.427   8.300
31008WAT      O93265   4.605   2.604   4.248
31008WAT     H193266   4.563   2.674   4.191
31008WAT     H293267   4.695   2.580   4.211
31009WAT      O93268   8.150   1.433   9.238
31009WAT     H193269   8.181   1.397   9.150
31009WAT     H293270   8.052   1.416   9.249
31010WAT      O93271   6.467   3.140   8.014
31010WAT     H193272   6.462   3.132   8.114
31010WAT     H293273   6.506   3.057   7.976
31011WAT      O93274   4.523   1.519   6.992
31011WAT     H193275   4.561   1.609   6.970
31011WAT     H293276   4.426   1.529   7.015
31012WAT      O93277   3.451   1.542   0.265
31012WAT     H193278   3.539   1.556   0.219
31012WAT     H293279   3.381   1.597   0.221
31013WAT      O93280   2.187   1.278   0.706
31013WAT     H193281   2.161   1.375   0.702
31013WAT     H293282   2.108   1.221   0.682
31014WAT      O93283   0.602   8.140   9.853
31014WAT     H193284   0.572   8.208   9.920
31014WAT     H293285   0.624   8.185   9.767
31015WAT      O93286   8.773   8.260   7.000
31015WAT     H193287   8.816   8.310   6.924
31015WAT     H293288   8.776   8.317   7.083
31016WAT      O93289   9.291   8.276   1.618
31016WAT     H193290   9.224   8.343   1.651
31016WAT     H293291   9.328   8.307   1.530
31017WAT      O93292   2.559   1.332   4.238
31017WAT     H193293   2.544   1.310   4.142
31017WAT     H293294   2.635   1.397   4.246
31018WAT      O93295   9.882   8.713   0.249
31018WAT     H193296   9.930   8.677   0.170
31018WAT     H293297   9.944   8.771   0.302
31019WAT      O93298   9.634   3.561   3.736
31019WAT     H193299   9.684   3.475   3.744
31019WAT     H293300   9.537   3.545   3.756
31020WAT      O93301   3.058   3.466   9.195
31020WAT     H193302   2.985   3.531   9.176
31020WAT     H293303   3.104   3.441   9.110
31021WAT      O93304   2.125   4.792   3.554
31021WAT     H193305   2.220   4.814   3.533
31021WAT     H293306   2.112   4.787   3.653
31022WAT      O93307   5.333   4.929   5.627
31022WAT     H193308   5.289   5.017   5.608
31022WAT     H293309   5.314   4.902   5.722
31023WAT      O93310   9.506   0.653   5.568
31023WAT     H193311   9.445   0.575   5.581
31023WAT     H293312   9.581   0.648   5.634
31024WAT      O93313   4.086   7.258   1.980
31024WAT     H193314   4.148   7.273   2.058
31024WAT     H293315   4.135   7.212   1.906
31025WAT      O93316   6.239   3.276   4.653
31025WAT     H193317   6.279   3.361   4.690
31025WAT     H293318   6.235   3.282   4.554
31026WAT      O93319   1.337   3.977   8.281
31026WAT     H193320   1.293   4.002   8.367
31026WAT     H293321   1.356   3.879   8.281
31027WAT      O93322   2.411   9.626   1.603
31027WAT     H193323   2.329   9.681   1.589
31027WAT     H293324   2.386   9.529   1.601
31028WAT      O93325   9.105   0.523   7.824
31028WAT     H193326   9.091   0.569   7.737
31028WAT     H293327   9.083   0.585   7.899
31029WAT      O93328   7.388   6.487   7.135
31029WAT     H193329   7.322   6.489   7.211
31029WAT     H293330   7.383   6.573   7.084
31030WAT      O93331   9.263   0.944   9.355
31030WAT     H193332   9.265   0.851   9.320
31030WAT     H293333   9.227   0.944   9.448
31031WAT      O93334   4.564   7.906   0.357
31031WAT     H193335   4.562   7.939   0.452
31031WAT     H293336   4.495   7.835   0.345
31032WAT      O93337   5.815   4.443   4.202
31032WAT     H193338   5.890   4.506   4.218
31032WAT     H293339   5.731   4.494   4.186
31033WAT      O93340   9.431   5.866   6.236
31033WAT     H193341   9.450   5.770   6.215
31033WAT     H293342   9.333   5.883   6.232
31034WAT      O93343   7.709   4.752   0.764
31034WAT     H193344   7.738   4.729   0.857
31034WAT     H293345   7.747   4.841   0.738
31035WAT      O93346   5.666   6.839   1.424
31035WAT     H193347   5.691   6.755   1.472
31035WAT     H293348   5.675   6.825   1.325
31036WAT      O93349   8.820   9.803   0.072
31036WAT     H193350   8.743   9.758   0.118
31036WAT     H293351   8.788   9.846  -0.012
31037WAT      O93352   4.496   7.573   6.398
31037WAT     H193353   4.569   7.530   6.450
31037WAT     H293354   4.535   7.629   6.326
31038WAT      O93355   5.503   4.812   4.861
31038WAT     H193356   5.579   4.760   4.822
31038WAT     H293357   5.525   4.838   4.955
31039WAT      O93358   0.250   8.292   4.760
31039WAT     H193359   0.299   8.206   4.776
31039WAT     H293360   0.165   8.273   4.711
31040WAT      O93361   1.161   2.047   7.171
31040WAT     H193362   1.230   2.115   7.144
31040WAT     H293363   1.070   2.088   7.163
31041WAT      O93364   5.017   2.844   4.547
31041WAT     H193365   5.028   2.931   4.596
31041WAT     H293366   5.089   2.780   4.577
31042WAT      O93367   0.977   3.407   8.192
31042WAT     H193368   0.921   3.400   8.109
31042WAT     H293369   1.054   3.343   8.185
31043WAT      O93370   5.918   4.093   6.615
31043WAT     H193371   5.850   4.144   6.562
31043WAT     H293372   5.997   4.152   6.634
31044WAT      O93373   2.147   9.141   7.013
31044WAT     H193374   2.051   9.168   7.005
31044WAT     H293375   2.194   9.205   7.074
31045WAT      O93376   1.018   2.791   3.471
31045WAT     H193377   1.035   2.738   3.554
31045WAT     H293378   1.105   2.828   3.438
31046WAT      O93379   9.323   0.656   1.908
31046WAT     H193380   9.282   0.657   1.999
31046WAT     H293381   9.317   0.747   1.867
31047WAT      O93382   7.699   8.347   2.780
31047WAT     H193383   7.680   8.440   2.811
31047WAT     H293384   7.751   8.350   2.695
31048WAT      O93385   8.886   4.850   4.381
31048WAT     H193386   8.873   4.949   4.387
31048WAT     H293387   8.809   4.809   4.333
31049WAT      O93388   2.750   0.735   7.832
31049WAT     H193389   2.691   0.707   7.757
31049WAT     H293390   2.789   0.653   7.875
31050WAT      O93391   6.928   1.843   4.742
31050WAT     H193392   6.922   1.824   4.644
31050WAT     H293393   6.860   1.787   4.791
31051WAT      O93394   2.692   1.271   0.764
31051WAT     H193395   2.672   1.314   0.853
31051WAT     H293396   2.620   1.295   0.699
31052WAT      O93397   4.163   5.590   5.618
31052WAT     H193398   4.152   5.650   5.539
31052WAT     H293399   4.199   5.501   5.588
31053WAT      O93400   3.296   5.899   7.395
31053WAT     H193401   3.346   5.844   7.461
31053WAT     H293402   3.317   5.868   7.303
31054WAT      O93403   7.744   8.034   8.095
31054WAT     H193404   7.783   8.089   8.169
31054WAT     H293405   7.687   7.962   8.133
31055WAT      O93406   6.042   4.383   0.625
31055WAT     H193407   6.079   4.443   0.696
31055WAT     H293408   6.016   4.296   0.665
31056WAT      O93409   7.179   8.132   1.289
31056WAT     H193410   7.200   8.104   1.383
31056WAT     H293411   7.080   8.129   1.274
31057WAT      O93412   0.533   1.628   0.560
31057WAT     H193413   0.601   1.701   0.551
31057WAT     H293414   0.489   1.634   0.649
31058WAT      O93415   7.418   6.636   2.781
31058WAT     H193416   7.356   6.706   2.815
31058WAT     H293417   7.511   6.656   2.813
31059WAT      O93418   3.045   8.863   5.669
31059WAT     H193419   2.971   8.878   5.603
31059WAT     H293420   3.071   8.767   5.668
31060WAT      O93421   8.566   3.597   2.221
31060WAT     H193422   8.662   3.626   2.212
31060WAT     H293423   8.562   3.512   2.274
31061WAT      O93424   4.167   8.195   0.896
31061WAT     H193425   4.145   8.132   0.971
31061WAT     H293426   4.156   8.148   0.809
31062WAT      O93427   9.741   0.343   2.928
31062WAT     H193428   9.728   0.442   2.936
31062WAT     H293429   9.838   0.322   2.920
31063WAT      O93430   1.891   8.927   8.992
31063WAT     H193431   1.989   8.933   8.974
31063WAT     H293432   1.851   9.019   8.995
31064WAT      O93433   7.144   6.075   0.430
31064WAT     H193434   7.166   6.158   0.378
31064WAT     H293435   7.062   6.033   0.392
31065WAT      O93436   5.248   1.549   3.022
31065WAT     H193437   5.277   1.522   2.930
31065WAT     H293438   5.155   1.516   3.038
31066WAT      O93439   5.323   1.046   8.719
31066WAT     H193440   5.239   1.051   8.666
31066WAT     H293441   5.401   1.067   8.660
31067WAT      O93442   7.999   6.455   7.940
31067WAT     H193443   8.008   6.555   7.946
31067WAT     H293444   7.918   6.432   7.886
31068WAT      O93445   1.403   7.558   7.018
31068WAT     H193446   1.325   7.619   7.006
31068WAT     H293447   1.481   7.609   7.052
31069WAT      O93448   4.804   5.173   6.043
31069WAT     H193449   4.875   5.115   6.083
31069WAT     H293450   4.714   5.134   6.062
31070WAT      O93451   0.882   1.944   0.668
31070WAT     H193452   0.942   1.954   0.589
31070WAT     H293453   0.937   1.946   0.752
31071WAT      O93454   3.727   6.904   2.481
31071WAT     H193455   3.685   6.837   2.421
31071WAT     H293456   3.744   6.989   2.431
31072WAT      O93457   7.230   4.672   8.062
31072WAT     H193458   7.220   4.598   7.995
31072WAT     H293459   7.232   4.634   8.154
31073WAT      O93460   0.262   6.280   6.018
31073WAT     H193461   0.230   6.265   6.112
31073WAT     H293462   0.354   6.320   6.020
31074WAT      O93463   4.210   7.768   2.113
31074WAT     H193464   4.145   7.839   2.140
31074WAT     H293465   4.166   7.706   2.047
31075WAT      O93466   9.887   0.775   7.905
31075WAT     H193467   9.845   0.756   7.994
31075WAT     H293468   9.953   0.849   7.914
31076WAT      O93469   3.272   8.890   0.500
31076WAT     H193470   3.285   8.891   0.401
31076WAT     H293471   3.355   8.858   0.545
31077WAT      O93472   0.136   7.861   4.362
31077WAT     H193473   0.113   7.845   4.457
31077WAT     H293474   0.088   7.942   4.329
31078WAT      O93475   7.881   2.734   8.344
31078WAT     H193476   7.915   2.762   8.255
31078WAT     H293477   7.807   2.668   8.333
31079WAT      O93478   5.350   7.415   3.637
31079WAT     H193479   5.374   7.420   3.734
31079WAT     H293480   5.377   7.326   3.600
31080WAT      O93481   1.524   3.448   6.440
31080WAT     H193482   1.584   3.387   6.388
31080WAT     H293483   1.532   3.541   6.405
31081WAT      O93484   0.830   1.804   0.979
31081WAT     H193485   0.904   1.871   0.982
31081WAT     H293486   0.861   1.722   0.930
31082WAT      O93487   3.702   4.935   4.953
31082WAT     H193488   3.670   4.840   4.951
31082WAT     H293489   3.624   4.996   4.938
31083WAT      O93490   3.714   0.771   9.083
31083WAT     H193491   3.812   0.755   9.070
31083WAT     H293492   3.696   0.789   9.180
31084WAT      O93493   7.276   1.059   9.597
31084WAT     H193494   7.214   1.076   9.521
31084WAT     H293495   7.364   1.027   9.563
31085WAT      O93496   5.475   9.323   1.372
31085WAT     H193497   5.528   9.319   1.287
31085WAT     H293498   5.428   9.411   1.378
31086WAT      O93499   2.580   4.620   9.002
31086WAT     H193500   2.561   4.718   8.991
31086WAT     H293501   2.540   4.588   9.088
31087WAT      O93502   6.218   8.016   0.529
31087WAT     H193503   6.207   8.087   0.459
31087WAT     H293504   6.202   7.927   0.488
31088WAT      O93505   4.782   6.167   9.357
31088WAT     H193506   4.698   6.133   9.316
31088WAT     H293507   4.817   6.100   9.423
31089WAT      O93508   1.927   1.105   3.784
31089WAT     H193509   2.012   1.068   3.822
31089WAT     H293510   1.942   1.199   3.753
31090WAT      O93511   8.955   4.389   3.571
31090WAT     H193512   8.889   4.459   3.597
31090WAT     H293513   9.001   4.416   3.486
31091WAT      O93514   8.833   8.214   0.999
31091WAT     H193515   8.918   8.233   1.049
31091WAT     H293516   8.854   8.155   0.920
31092WAT      O93517   7.624   6.958   3.752
31092WAT     H193518   7.576   6.875   3.721
31092WAT     H293519   7.561   7.036   3.749
31093WAT      O93520   5.909   2.478   9.838
31093WAT     H193521   5.945   2.388   9.861
31093WAT     H293522   5.984   2.539   9.815
31094WAT      O93523   9.288   6.712   8.127
31094WAT     H193524   9.254   6.676   8.041
31094WAT     H293525   9.241   6.797   8.150
31095WAT      O93526   1.214   6.221   6.002
31095WAT     H193527   1.209   6.218   6.102
31095WAT     H293528   1.145   6.285   5.968
31096WAT      O93529   4.289   0.946   4.647
31096WAT     H193530   4.262   0.888   4.571
31096WAT     H293531   4.292   0.892   4.731
31097WAT      O93532   1.244   4.325   6.782
31097WAT     H193533   1.293   4.249   6.740
31097WAT     H293534   1.178   4.363   6.718
31098WAT      O93535   3.739   2.198   8.148
31098WAT     H193536   3.706   2.283   8.109
31098WAT     H293537   3.664   2.132   8.152
31099WAT      O93538   5.960   0.487   6.333
31099WAT     H193539   5.975   0.444   6.422
31099WAT     H293540   5.910   0.424   6.273
31100WAT      O93541   3.196   3.919   4.496
31100WAT     H193542   3.208   3.841   4.558
31100WAT     H293543   3.099   3.929   4.474
31101WAT      O93544   6.834   7.272   5.473
31101WAT     H193545   6.773   7.265   5.552
31101WAT     H293546   6.815   7.357   5.424
31102WAT      O93547   7.909   5.494   5.502
31102WAT     H193548   7.964   5.567   5.461
31102WAT     H293549   7.813   5.521   5.503
31103WAT      O93550   7.180   6.348   3.511
31103WAT     H193551   7.221   6.272   3.461
31103WAT     H293552   7.080   6.336   3.513
31104WAT      O93553   3.747   3.905   1.917
31104WAT     H193554   3.704   3.917   1.828
31104WAT     H293555   3.694   3.840   1.971
31105WAT      O93556   2.738   2.208   4.428
31105WAT     H193557   2.728   2.112   4.454
31105WAT     H293558   2.649   2.252   4.427
31106WAT      O93559   0.036   9.737   9.786
31106WAT     H193560  -0.001   9.685   9.709
31106WAT     H293561   0.079   9.821   9.753
31107WAT      O93562   1.094   8.234   2.724
31107WAT     H193563   0.997   8.252   2.737
31107WAT     H293564   1.118   8.245   2.628
31108WAT      O93565   9.173   6.462   4.891
31108WAT     H193566   9.263   6.425   4.867
31108WAT     H293567   9.181   6.560   4.907
31109WAT      O93568   7.825   3.021   7.056
31109WAT     H193569   7.841   2.933   7.101
31109WAT     H293570   7.913   3.061   7.029
31110WAT      O93571   6.216   2.228   2.173
31110WAT     H193572   6.221   2.312   2.119
31110WAT     H293573   6.294   2.170   2.152
31111WAT      O93574   1.601   2.464   7.535
31111WAT     H193575   1.505   2.436   7.541
31111WAT     H293576   1.653   2.421   7.610
31112WAT      O93577   7.284   6.013   5.736
31112WAT     H193578   7.214   6.018   5.664
31112WAT     H293579   7.291   5.919   5.768
31113WAT      O93580   0.916   0.471   7.455
31113WAT     H193581   0.856   0.412   7.509
31113WAT     H293582   0.906   0.447   7.358
31114WAT      O93583   2.327   4.999   2.509
31114WAT     H193584   2.353   4.903   2.519
31114WAT     H293585   2.397   5.057   2.550
31115WAT      O93586   3.220   9.823   7.055
31115WAT     H193587   3.193   9.746   7.113
31115WAT     H293588   3.320   9.831   7.056
31116WAT      O93589   4.048   5.409   8.595
31116WAT     H193590   4.027   5.371   8.505
31116WAT     H293591   4.146   5.428   8.601
31117WAT      O93592   7.641   9.531   9.729
31117WAT     H193593   7.621   9.624   9.698
31117WAT     H293594   7.740   9.518   9.733
31118WAT      O93595   0.614   7.472   4.405
31118WAT     H193596   0.655   7.386   4.436
31118WAT     H293597   0.668   7.549   4.441
31119WAT      O93598   5.184   6.692   5.444
31119WAT     H193599   5.126   6.761   5.400
31119WAT     H293600   5.246   6.653   5.376
31120WAT      O93601   0.016   3.059   4.028
31120WAT     H193602   0.027   3.157   4.009
31120WAT     H293603   0.103   3.012   4.015
31121WAT      O93604   7.650   7.920   3.420
31121WAT     H193605   7.730   7.867   3.449
31121WAT     H293606   7.600   7.951   3.500
31122WAT      O93607   6.823   2.462   6.210
31122WAT     H193608   6.911   2.470   6.257
31122WAT     H293609   6.799   2.365   6.201
31123WAT      O93610   0.038   7.835   7.926
31123WAT     H193611   0.024   7.916   7.983
31123WAT     H293612   0.111   7.854   7.860
31124WAT      O93613   1.367   4.661   7.851
31124WAT     H193614   1.294   4.722   7.823
31124WAT     H293615   1.331   4.568   7.859
31125WAT      O93616   0.374   0.582   8.366
31125WAT     H193617   0.364   0.615   8.460
31125WAT     H293618   0.470   0.558   8.350
31126WAT      O93619   1.561   7.290   1.519
31126WAT     H193620   1.544   7.213   1.457
31126WAT     H293621   1.603   7.256   1.603
31127WAT      O93622   8.266   2.342   4.438
31127WAT     H193623   8.359   2.377   4.429
31127WAT     H293624   8.258   2.289   4.522
31128WAT      O93625   0.918   4.313   1.365
31128WAT     H193626   0.897   4.220   1.337
31128WAT     H293627   0.843   4.349   1.420
31129WAT      O93628   2.266   1.885   7.280
31129WAT     H193629   2.255   1.794   7.240
31129WAT     H293630   2.362   1.913   7.272
31130WAT      O93631   5.410   1.937   0.079
31130WAT     H193632   5.509   1.945   0.084
31130WAT     H293633   5.380   1.858   0.132
31131WAT      O93634   3.855   1.955   7.517
31131WAT     H193635   3.926   1.975   7.450
31131WAT     H293636   3.798   2.035   7.531
31132WAT      O93637   4.293   9.367   0.851
31132WAT     H193638   4.230   9.338   0.923
31132WAT     H293639   4.256   9.448   0.805
31133WAT      O93640   3.220   2.787   4.127
31133WAT     H193641   3.137   2.805   4.180
31133WAT     H293642   3.279   2.869   4.130
31134WAT      O93643   8.412   2.720   9.790
31134WAT     H193644   8.479   2.793   9.801
31134WAT     H293645   8.458   2.631   9.800
31135WAT      O93646   4.817   9.577   8.686
31135WAT     H193647   4.751   9.572   8.611
31135WAT     H293648   4.907   9.602   8.650
31136WAT      O93649   9.388   4.607   2.222
31136WAT     H193650   9.443   4.626   2.303
31136WAT     H293651   9.445   4.613   2.140
31137WAT      O93652   0.339   5.692   7.165
31137WAT     H193653   0.386   5.633   7.099
31137WAT     H293654   0.241   5.672   7.164
31138WAT      O93655   8.295   0.503   3.307
31138WAT     H193656   8.393   0.482   3.307
31138WAT     H293657   8.257   0.483   3.216
31139WAT      O93658   7.415   3.920   9.827
31139WAT     H193659   7.386   3.945   9.734
31139WAT     H293660   7.421   4.003   9.883
31140WAT      O93661   0.761   4.673   4.350
31140WAT     H193662   0.768   4.680   4.450
31140WAT     H293663   0.698   4.743   4.317
31141WAT      O93664   1.288   5.636   4.713
31141WAT     H193665   1.310   5.545   4.745
31141WAT     H293666   1.208   5.632   4.652
31142WAT      O93667   2.490   0.089   0.604
31142WAT     H193668   2.442   0.058   0.686
31142WAT     H293669   2.433   0.157   0.556
31143WAT      O93670   5.406   3.840   4.935
31143WAT     H193671   5.397   3.744   4.962
31143WAT     H293672   5.355   3.856   4.850
31144WAT      O93673   5.236   0.591   1.191
31144WAT     H193674   5.311   0.549   1.141
31144WAT     H293675   5.220   0.684   1.156
31145WAT      O93676   9.237   9.074   7.512
31145WAT     H193677   9.304   9.068   7.586
31145WAT     H293678   9.281   9.051   7.425
31146WAT      O93679   9.713   2.554   0.620
31146WAT     H193680   9.745   2.607   0.699
31146WAT     H293681   9.698   2.616   0.543
31147WAT      O93682   9.005   7.080   6.823
31147WAT     H193683   8.915   7.075   6.866
31147WAT     H293684   9.009   7.161   6.764
31148WAT      O93685   8.187   4.702   3.286
31148WAT     H193686   8.153   4.665   3.373
31148WAT     H293687   8.221   4.628   3.229
31149WAT      O93688   2.398   5.846   4.988
31149WAT     H193689   2.478   5.832   5.046
31149WAT     H293690   2.317   5.808   5.033
31150WAT      O93691   1.948   9.509   7.694
31150WAT     H193692   1.940   9.537   7.598
31150WAT     H293693   1.859   9.518   7.739
31151WAT      O93694   8.627   1.836   1.780
31151WAT     H193695   8.686   1.839   1.860
31151WAT     H293696   8.682   1.843   1.697
31152WAT      O93697   4.363   3.128   4.700
31152WAT     H193698   4.442   3.188   4.700
31152WAT     H293699   4.381   3.048   4.758
31153WAT      O93700   8.420   6.993   5.832
31153WAT     H193701   8.354   7.047   5.885
31153WAT     H293702   8.383   6.977   5.741
31154WAT      O93703   8.624   8.731   5.453
31154WAT     H193704   8.606   8.802   5.384
31154WAT     H293705   8.689   8.766   5.520
31155WAT      O93706   1.926   4.102   5.272
31155WAT     H193707   1.978   4.185   5.292
31155WAT     H293708   1.828   4.121   5.275
31156WAT      O93709   4.104   8.013   7.139
31156WAT     H193710   4.167   8.088   7.119
31156WAT     H293711   4.017   8.030   7.093
31157WAT      O93712   3.585   7.688   4.953
31157WAT     H193713   3.570   7.781   4.919
31157WAT     H293714   3.574   7.623   4.877
31158WAT      O93715   7.608   7.852   1.621
31158WAT     H193716   7.659   7.780   1.574
31158WAT     H293717   7.539   7.890   1.560
31159WAT      O93718   5.793   7.513   1.232
31159WAT     H193719   5.769   7.514   1.329
31159WAT     H293720   5.719   7.553   1.178
31160WAT      O93721   5.072   8.933   5.265
31160WAT     H193722   5.150   8.932   5.201
31160WAT     H293723   4.989   8.959   5.215
31161WAT      O93724   9.717   3.445   8.944
31161WAT     H193725   9.678   3.394   9.021
31161WAT     H293726   9.813   3.464   8.961
31162WAT      O93727   2.751   5.382   5.556
31162WAT     H193728   2.803   5.353   5.636
31162WAT     H293729   2.676   5.318   5.540
31163WAT      O93730   1.035   7.332   4.568
31163WAT     H193731   1.080   7.420   4.551
31163WAT     H293732   1.089   7.259   4.528
31164WAT      O93733   1.656   0.144   7.696
31164WAT     H193734   1.699   0.201   7.626
31164WAT     H293735   1.726   0.105   7.755
31165WAT      O93736   5.622   1.302   4.022
31165WAT     H193737   5.566   1.291   4.104
31165WAT     H293738   5.703   1.243   4.028
31166WAT      O93739   0.172   2.325   5.271
31166WAT     H193740   0.202   2.390   5.341
31166WAT     H293741   0.220   2.238   5.284
31167WAT      O93742   2.043   6.761   6.782
31167WAT     H193743   2.018   6.818   6.859
31167WAT     H293744   1.965   6.750   6.721
31168WAT      O93745   9.092   0.794   5.495
31168WAT     H193746   9.142   0.769   5.412
31168WAT     H293747   9.143   0.864   5.545
31169WAT      O93748   6.480   6.366   4.477
31169WAT     H193749   6.456   6.381   4.381
31169WAT     H293750   6.580   6.369   4.487
31170WAT      O93751   1.710   8.020   8.761
31170WAT     H193752   1.805   8.022   8.794
31170WAT     H293753   1.693   8.101   8.704
31171WAT      O93754   1.650   5.807   5.818
31171WAT     H193755   1.742   5.846   5.823
31171WAT     H293756   1.637   5.764   5.729
31172WAT      O93757   0.300   7.619   9.277
31172WAT     H193758   0.329   7.684   9.207
31172WAT     H293759   0.378   7.563   9.305
31173WAT      O93760   2.917   7.225   0.742
31173WAT     H193761   2.995   7.259   0.794
31173WAT     H293762   2.914   7.125   0.748
31174WAT      O93763   1.492   8.813   2.761
31174WAT     H193764   1.463   8.868   2.682
31174WAT     H293765   1.436   8.730   2.766
31175WAT      O93766   5.569   7.692   1.151
31175WAT     H193767   5.578   7.738   1.239
31175WAT     H293768   5.485   7.637   1.150
31176WAT      O93769   7.247   5.924   4.821
31176WAT     H193770   7.238   5.826   4.841
31176WAT     H293771   7.157   5.967   4.822
31177WAT      O93772   2.489   2.364   8.134
31177WAT     H193773   2.530   2.363   8.225
31177WAT     H293774   2.552   2.407   8.069
31178WAT      O93775   1.838   2.302   6.140
31178WAT     H193776   1.750   2.297   6.187
31178WAT     H293777   1.870   2.210   6.118
31179WAT      O93778   4.173   1.229   1.244
31179WAT     H193779   4.086   1.268   1.214
31179WAT     H293780   4.156   1.153   1.306
31180WAT      O93781   7.622   5.990   1.920
31180WAT     H193782   7.646   5.923   1.850
31180WAT     H293783   7.668   6.077   1.900
31181WAT      O93784   2.429   5.097   4.141
31181WAT     H193785   2.403   5.080   4.236
31181WAT     H293786   2.511   5.154   4.139
31182WAT      O93787   1.776   9.571   4.760
31182WAT     H193788   1.869   9.536   4.747
31182WAT     H293789   1.780   9.663   4.800
31183WAT      O93790   7.101   0.519   3.741
31183WAT     H193791   7.131   0.557   3.653
31183WAT     H293792   7.146   0.568   3.815
31184WAT      O93793   0.389   9.630   5.540
31184WAT     H193794   0.381   9.648   5.442
31184WAT     H293795   0.353   9.539   5.561
31185WAT      O93796   7.389   2.206   6.024
31185WAT     H193797   7.479   2.226   5.986
31185WAT     H293798   7.400   2.158   6.111
31186WAT      O93799   1.762   1.152   1.530
31186WAT     H193800   1.786   1.250   1.525
31186WAT     H293801   1.842   1.098   1.505
31187WAT      O93802   9.109   6.495   6.326
31187WAT     H193803   9.081   6.462   6.416
31187WAT     H293804   9.177   6.432   6.287
31188WAT      O93805   8.490   9.704   6.564
31188WAT     H193806   8.451   9.795   6.553
31188WAT     H293807   8.582   9.710   6.601
31189WAT      O93808   0.203   2.256   7.665
31189WAT     H193809   0.201   2.320   7.588
31189WAT     H293810   0.298   2.238   7.690
31190WAT      O93811   0.367   6.096   8.027
31190WAT     H193812   0.333   6.143   8.108
31190WAT     H293813   0.291   6.076   7.965
31191WAT      O93814   2.271   0.125   3.741
31191WAT     H193815   2.217   0.044   3.719
31191WAT     H293816   2.228   0.174   3.817
31192WAT      O93817   0.104   4.550   5.669
31192WAT     H193818   0.146   4.520   5.583
31192WAT     H293819   0.098   4.472   5.732
31193WAT      O93820   3.761   8.549   8.560
31193WAT     H193821   3.744   8.540   8.462
31193WAT     H293822   3.693   8.495   8.610
31194WAT      O93823   0.252   0.705   9.203
31194WAT     H193824   0.314   0.635   9.168
31194WAT     H293825   0.180   0.662   9.257
31195WAT      O93826   4.311   8.612   3.853
31195WAT     H193827   4.293   8.687   3.789
31195WAT     H293828   4.409   8.593   3.856
31196WAT      O93829   3.429   2.325   1.425
31196WAT     H193830   3.388   2.270   1.351
31196WAT     H293831   3.507   2.375   1.389
31197WAT      O93832   3.739   9.460   4.618
31197WAT     H193833   3.724   9.520   4.540
31197WAT     H293834   3.738   9.513   4.702
31198WAT      O93835   0.005   9.311   7.106
31198WAT     H193836   0.037   9.333   7.198
31198WAT     H293837   0.008   9.393   7.049
31199WAT      O93838   5.936   6.349   1.179
31199WAT     H193839   5.976   6.431   1.139
31199WAT     H293840   5.998   6.311   1.247
31200WAT      O93841   9.247   5.180   8.678
31200WAT     H193842   9.238   5.177   8.579
31200WAT     H293843   9.192   5.255   8.714
31201WAT      O93844   7.198   8.216   3.222
31201WAT     H193845   7.245   8.293   3.180
31201WAT     H293846   7.126   8.183   3.160
31202WAT      O93847   3.730   7.312   9.690
31202WAT     H193848   3.681   7.225   9.685
31202WAT     H293849   3.684   7.373   9.753
31203WAT      O93850   8.735   6.792   6.994
31203WAT     H193851   8.723   6.704   7.041
31203WAT     H293852   8.661   6.804   6.928
31204WAT      O93853   7.570   0.577   1.012
31204WAT     H193854   7.562   0.579   0.913
31204WAT     H293855   7.581   0.671   1.046
31205WAT      O93856   5.873   6.874   4.017
31205WAT     H193857   5.915   6.940   3.955
31205WAT     H293858   5.853   6.918   4.104
31206WAT      O93859   5.135   1.348   6.467
31206WAT     H193860   5.143   1.446   6.483
31206WAT     H293861   5.050   1.329   6.417
31207WAT      O93862   3.681   1.347   5.449
31207WAT     H193863   3.642   1.288   5.378
31207WAT     H293864   3.632   1.334   5.535
31208WAT      O93865   5.301   1.374   4.814
31208WAT     H193866   5.296   1.360   4.715
31208WAT     H293867   5.382   1.428   4.836
31209WAT      O93868   1.428   7.507   5.407
31209WAT     H193869   1.389   7.456   5.330
31209WAT     H293870   1.418   7.605   5.391
31210WAT      O93871   9.546   4.028   6.170
31210WAT     H193872   9.627   4.085   6.180
31210WAT     H293873   9.541   3.965   6.248
31211WAT      O93874   7.565   6.776   1.772
31211WAT     H193875   7.490   6.710   1.770
31211WAT     H293876   7.531   6.864   1.805
31212WAT      O93877   3.180   4.562   1.986
31212WAT     H193878   3.188   4.527   1.893
31212WAT     H293879   3.084   4.565   2.013
31213WAT      O93880   3.465   0.770   3.979
31213WAT     H193881   3.476   0.853   3.924
31213WAT     H293882   3.483   0.791   4.075
31214WAT      O93883   8.337   1.350   4.191
31214WAT     H193884   8.370   1.348   4.286
31214WAT     H293885   8.312   1.444   4.167
31215WAT      O93886   4.841   6.818   9.277
31215WAT     H193887   4.915   6.796   9.214
31215WAT     H293888   4.817   6.915   9.268
31216WAT      O93889   2.601   8.024   7.221
31216WAT     H193890   2.684   8.050   7.270
31216WAT     H293891   2.535   8.099   7.225
31217WAT      O93892   7.066   7.019   1.770
31217WAT     H193893   7.112   7.057   1.690
31217WAT     H293894   6.972   7.053   1.775
31218WAT      O93895   5.221   3.685   8.553
31218WAT     H193896   5.307   3.732   8.575
31218WAT     H293897   5.218   3.597   8.600
31219WAT      O93898   0.671   4.542   5.741
31219WAT     H193899   0.677   4.507   5.648
31219WAT     H293900   0.702   4.637   5.742
31220WAT      O93901   5.285   2.214   7.686
31220WAT     H193902   5.278   2.274   7.766
31220WAT     H293903   5.198   2.168   7.671
31221WAT      O93904   5.492   8.042   0.559
31221WAT     H193905   5.558   8.024   0.485
31221WAT     H293906   5.531   8.014   0.646
31222WAT      O93907   1.171   5.796   0.217
31222WAT     H193908   1.138   5.774   0.309
31222WAT     H293909   1.195   5.712   0.169
31223WAT      O93910   1.428   6.457   4.704
31223WAT     H193911   1.439   6.367   4.745
31223WAT     H293912   1.513   6.484   4.659
31224WAT      O93913   2.243   7.114   3.527
31224WAT     H193914   2.160   7.069   3.495
31224WAT     H293915   2.322   7.078   3.477
31225WAT      O93916   6.621   7.001   1.830
31225WAT     H193917   6.638   6.935   1.757
31225WAT     H293918   6.522   7.011   1.844
31226WAT      O93919   6.824   5.842   6.476
31226WAT     H193920   6.765   5.897   6.417
31226WAT     H293921   6.783   5.752   6.490
31227WAT      O93922   6.299   1.143   6.759
31227WAT     H193923   6.207   1.163   6.723
31227WAT     H293924   6.346   1.079   6.699
31228WAT      O93925   0.561   5.414   3.204
31228WAT     H193926   0.524   5.497   3.162
31228WAT     H293927   0.509   5.393   3.287
31229WAT      O93928   1.719   3.949   1.828
31229WAT     H193929   1.762   3.972   1.915
31229WAT     H293930   1.710   4.031   1.772
31230WAT      O93931   6.868   5.303   0.224
31230WAT     H193932   6.834   5.327   0.315
31230WAT     H293933   6.857   5.205   0.209
31231WAT      O93934   4.698   3.615   7.596
31231WAT     H193935   4.613   3.636   7.548
31231WAT     H293936   4.681   3.549   7.668
31232WAT      O93937   8.117   9.559   8.858
31232WAT     H193938   8.141   9.592   8.766
31232WAT     H293939   8.115   9.636   8.921
31233WAT      O93940   4.241   1.912   4.231
31233WAT     H193941   4.164   1.974   4.224
31233WAT     H293942   4.216   1.823   4.193
31234WAT      O93943   5.085   3.871   9.624
31234WAT     H193944   4.995   3.884   9.666
31234WAT     H293945   5.116   3.777   9.639
31235WAT      O93946   6.077   0.820   4.477
31235WAT     H193947   6.127   0.773   4.404
31235WAT     H293948   6.058   0.756   4.551
31236WAT      O93949   3.014   7.359   1.840
31236WAT     H193950   3.088   7.301   1.876
31236WAT     H293951   3.052   7.428   1.779
31237WAT      O93952   4.911   2.782   9.856
31237WAT     H193953   4.978   2.840   9.811
31237WAT     H293954   4.957   2.710   9.907
31238WAT      O93955   2.905   7.900   1.766
31238WAT     H193956   2.808   7.894   1.791
31238WAT     H293957   2.956   7.831   1.818
31239WAT      O93958   2.342   2.200   2.273
31239WAT     H193959   2.316   2.155   2.358
31239WAT     H293960   2.264   2.251   2.236
31240WAT      O93961   0.281   6.889   4.068
31240WAT     H193962   0.363   6.943   4.083
31240WAT     H293963   0.305   6.792   4.066
31241WAT      O93964   5.717   5.758   8.830
31241WAT     H193965   5.805   5.784   8.869
31241WAT     H293966   5.657   5.838   8.823
31242WAT      O93967   4.487   2.885   9.105
31242WAT     H193968   4.479   2.984   9.117
31242WAT     H293969   4.396   2.844   9.099
31243WAT      O93970   6.388   0.481   5.256
31243WAT     H193971   6.371   0.410   5.325
31243WAT     H293972   6.482   0.514   5.265
31244WAT      O93973   5.520   1.010   7.795
31244WAT     H193974   5.573   1.076   7.742
31244WAT     H293975   5.425   1.011   7.766
31245WAT      O93976   0.968   4.613   6.745
31245WAT     H193977   0.917   4.694   6.715
31245WAT     H293978   0.924   4.531   6.709
31246WAT      O93979   3.301   7.901   2.224
31246WAT     H193980   3.297   7.975   2.291
31246WAT     H293981   3.372   7.920   2.157
31247WAT      O93982   0.217   8.246   8.369
31247WAT     H193983   0.225   8.180   8.295
31247WAT     H293984   0.301   8.245   8.424
31248WAT      O93985   3.442   4.805   6.847
31248WAT     H193986   3.381   4.739   6.891
31248WAT     H293987   3.498   4.759   6.779
31249WAT      O93988   7.282   4.852   6.676
31249WAT     H193989   7.300   4.773   6.735
31249WAT     H293990   7.200   4.834   6.621
31250WAT      O93991   7.276   3.738   6.276
31250WAT     H193992   7.332   3.819   6.292
31250WAT     H293993   7.186   3.751   6.317
31251WAT      O93994   9.785   8.671   1.491
31251WAT     H193995   9.885   8.660   1.488
31251WAT     H293996   9.745   8.634   1.407
31252WAT      O93997   5.610   0.159   0.152
31252WAT     H193998   5.612   0.166   0.252
31252WAT     H293999   5.695   0.198   0.115
31253WAT      O94000   0.695   1.937   9.465
31253WAT     H194001   0.651   1.878   9.397
31253WAT     H294002   0.638   2.017   9.483
31254WAT      O94003   5.436   9.759   4.486
31254WAT     H194004   5.448   9.671   4.533
31254WAT     H294005   5.511   9.820   4.509
31255WAT      O94006   6.881   4.429   0.500
31255WAT     H194007   6.841   4.444   0.590
31255WAT     H294008   6.940   4.506   0.476
31256WAT      O94009   1.780   1.995   0.251
31256WAT     H194010   1.847   2.063   0.221
31256WAT     H294011   1.795   1.910   0.200
31257WAT      O94012   2.381   0.107   5.656
31257WAT     H194013   2.471   0.139   5.624
31257WAT     H294014   2.378   0.110   5.756
31258WAT      O94015   8.010   7.903   3.730
31258WAT     H194016   8.025   7.819   3.781
31258WAT     H294017   7.927   7.948   3.763
31259WAT      O94018   9.184   1.056   1.507
31259WAT     H194019   9.241   1.059   1.424
31259WAT     H294020   9.166   1.149   1.538
31260WAT      O94021   4.818   1.926   2.622
31260WAT     H194022   4.822   1.870   2.705
31260WAT     H294023   4.791   1.868   2.545
31261WAT      O94024   9.834   8.823   9.100
31261WAT     H194025   9.812   8.773   9.016
31261WAT     H294026   9.933   8.837   9.105
31262WAT      O94027   4.746   7.942   7.051
31262WAT     H194028   4.777   7.893   6.969
31262WAT     H294029   4.781   8.035   7.049
31263WAT      O94030   7.229   4.698   7.063
31263WAT     H194031   7.176   4.776   7.094
31263WAT     H294032   7.168   4.624   7.035
31264WAT      O94033   3.978   0.688   9.069
31264WAT     H194034   3.998   0.591   9.053
31264WAT     H294035   4.058   0.732   9.109
31265WAT      O94036   2.415   5.884   3.947
31265WAT     H194037   2.508   5.879   3.983
31265WAT     H294038   2.349   5.866   4.020
31266WAT      O94039   9.324   0.181   3.634
31266WAT     H194040   9.405   0.153   3.685
31266WAT     H294041   9.286   0.265   3.674
31267WAT      O94042   7.405   1.308   4.123
31267WAT     H194043   7.357   1.322   4.210
31267WAT     H294044   7.389   1.387   4.063
31268WAT      O94045   2.216   1.534   9.392
31268WAT     H194046   2.246   1.547   9.297
31268WAT     H294047   2.147   1.462   9.395
31269WAT      O94048   7.770   5.641   2.839
31269WAT     H194049   7.699   5.662   2.906
31269WAT     H294050   7.804   5.548   2.855
31270WAT      O94051   4.929   9.569   1.409
31270WAT     H194052   4.836   9.533   1.398
31270WAT     H294053   4.955   9.619   1.326
31271WAT      O94054   0.727   0.475   2.746
31271WAT     H194055   0.712   0.394   2.689
31271WAT     H294056   0.802   0.458   2.810
31272WAT      O94057   9.720   8.455   8.439
31272WAT     H194058   9.695   8.546   8.471
31272WAT     H294059   9.810   8.459   8.395
31273WAT      O94060   3.053   6.243   3.184
31273WAT     H194061   3.091   6.191   3.108
31273WAT     H294062   3.124   6.301   3.224
31274WAT      O94063   4.790   7.797   2.697
31274WAT     H194064   4.808   7.700   2.679
31274WAT     H294065   4.715   7.829   2.640
31275WAT      O94066   6.416   8.255   6.508
31275WAT     H194067   6.440   8.275   6.603
31275WAT     H294068   6.404   8.340   6.458
31276WAT      O94069   3.970   0.958   7.947
31276WAT     H194070   3.932   0.926   7.860
31276WAT     H294071   4.070   0.955   7.944
31277WAT      O94072   2.937   4.529   6.217
31277WAT     H194073   2.886   4.555   6.135
31277WAT     H294074   2.909   4.438   6.247
31278WAT      O94075   2.329   8.771   4.800
31278WAT     H194076   2.402   8.780   4.867
31278WAT     H294077   2.329   8.850   4.739
31279WAT      O94078   4.972   2.197   7.257
31279WAT     H194079   4.996   2.227   7.164
31279WAT     H294080   5.043   2.136   7.291
31280WAT      O94081   6.095   2.688   4.593
31280WAT     H194082   6.156   2.758   4.629
31280WAT     H294083   6.009   2.731   4.563
31281WAT      O94084   5.948   1.074   4.533
31281WAT     H194085   6.005   1.001   4.495
31281WAT     H294086   5.851   1.049   4.523
31282WAT      O94087   7.080   8.688   9.822
31282WAT     H194088   7.065   8.599   9.779
31282WAT     H294089   7.108   8.675   9.917
31283WAT      O94090   5.526   2.968   8.731
31283WAT     H194091   5.596   2.966   8.802
31283WAT     H294092   5.562   3.013   8.649
31284WAT      O94093   3.016   3.864   1.221
31284WAT     H194094   2.988   3.787   1.279
31284WAT     H294095   2.948   3.878   1.149
31285WAT      O94096   4.839   3.328   6.202
31285WAT     H194097   4.933   3.301   6.181
31285WAT     H294098   4.781   3.247   6.208
31286WAT      O94099   9.026   3.960   0.319
31286WAT     H194100   9.060   3.881   0.371
31286WAT     H294101   9.033   3.940   0.221
31287WAT      O94102   1.785   7.735   2.439
31287WAT     H194103   1.781   7.835   2.432
31287WAT     H294104   1.815   7.709   2.531
31288WAT      O94105   3.855   1.024   0.332
31288WAT     H194106   3.763   0.992   0.307
31288WAT     H294107   3.917   1.009   0.254
31289WAT      O94108   6.299   7.326   6.136
31289WAT     H194109   6.243   7.306   6.216
31289WAT     H294110   6.283   7.420   6.107
31290WAT      O94111   8.894   3.203   8.257
31290WAT     H194112   8.936   3.121   8.219
31290WAT     H294113   8.900   3.278   8.191
31291WAT      O94114   0.976   2.498   7.099
31291WAT     H194115   1.061   2.537   7.065
31291WAT     H294116   0.934   2.442   7.027
31292WAT      O94117   3.808   7.788   2.016
31292WAT     H194118   3.733   7.824   1.959
31292WAT     H294119   3.784   7.696   2.047
31293WAT      O94120   2.754   2.816   4.110
31293WAT     H194121   2.802   2.758   4.044
31293WAT     H294122   2.660   2.782   4.122
31294WAT      O94123   4.228   2.934   8.659
31294WAT     H194124   4.324   2.912   8.642
31294WAT     H294125   4.170   2.874   8.605
31295WAT      O94126   2.258   4.767   0.589
31295WAT     H194127   2.334   4.720   0.545
31295WAT     H294128   2.173   4.718   0.570
31296WAT      O94129   8.634   2.693   0.498
31296WAT     H194130   8.643   2.594   0.506
31296WAT     H294131   8.638   2.734   0.589
31297WAT      O94132   2.566   6.595   7.416
31297WAT     H194133   2.482   6.554   7.450
31297WAT     H294134   2.554   6.694   7.407
31298WAT      O94135   9.495   1.822   6.881
31298WAT     H194136   9.534   1.876   6.806
31298WAT     H294137   9.554   1.744   6.900
31299WAT      O94138   6.824   6.002   7.217
31299WAT     H194139   6.811   6.013   7.119
31299WAT     H294140   6.748   5.949   7.255
31300WAT      O94141   9.383   2.309   8.637
31300WAT     H194142   9.460   2.272   8.586
31300WAT     H294143   9.312   2.339   8.574
31301WAT      O94144   6.570   1.069   4.365
31301WAT     H194145   6.669   1.063   4.368
31301WAT     H294146   6.531   1.016   4.441
31302WAT      O94147   6.148   4.117   7.708
31302WAT     H194148   6.199   4.106   7.794
31302WAT     H294149   6.213   4.128   7.633
31303WAT      O94150   4.862   9.203   1.230
31303WAT     H194151   4.857   9.107   1.204
31303WAT     H294152   4.953   9.239   1.209
31304WAT      O94153   8.579   5.589   3.335
31304WAT     H194154   8.587   5.685   3.308
31304WAT     H294155   8.627   5.532   3.268
31305WAT      O94156   0.239   4.587   7.091
31305WAT     H194157   0.210   4.495   7.119
31305WAT     H294158   0.166   4.630   7.038
31306WAT      O94159   8.598   0.296   8.385
31306WAT     H194160   8.515   0.241   8.380
31306WAT     H294161   8.586   0.370   8.451
31307WAT      O94162   0.292   2.650   8.657
31307WAT     H194163   0.325   2.744   8.670
31307WAT     H294164   0.223   2.649   8.584
31308WAT      O94165   4.476   6.177   9.601
31308WAT     H194166   4.450   6.178   9.697
31308WAT     H294167   4.469   6.083   9.566
31309WAT      O94168   9.072   5.843   5.391
31309WAT     H194169   9.148   5.909   5.393
31309WAT     H294170   8.987   5.892   5.376
31310WAT      O94171   1.065   2.937   2.113
31310WAT     H194172   1.136   2.902   2.173
31310WAT     H294173   0.998   2.988   2.166
31311WAT      O94174   6.538   3.001   2.996
31311WAT     H194175   6.523   3.100   2.995
31311WAT     H294176   6.614   2.978   2.936
31312WAT      O94177   8.031   0.004   5.631
31312WAT     H194178   8.053   0.002   5.729
31312WAT     H294179   8.034   0.098   5.598
31313WAT      O94180   5.589   6.235   7.953
31313WAT     H194181   5.580   6.257   7.856
31313WAT     H294182   5.517   6.280   8.004
31314WAT      O94183   6.599   7.915   1.173
31314WAT     H194184   6.512   7.955   1.202
31314WAT     H294185   6.611   7.826   1.217
31315WAT      O94186   8.439   2.454   0.924
31315WAT     H194187   8.480   2.450   1.015
31315WAT     H294188   8.480   2.385   0.866
31316WAT      O94189   6.975   2.679   7.217
31316WAT     H194190   6.970   2.690   7.316
31316WAT     H294191   6.970   2.582   7.194
31317WAT      O94192   9.815   6.168   3.041
31317WAT     H194193   9.914   6.161   3.031
31317WAT     H294194   9.793   6.208   3.130
31318WAT      O94195   3.995   8.766   5.438
31318WAT     H194196   3.895   8.764   5.428
31318WAT     H294197   4.037   8.757   5.348
31319WAT      O94198   8.128   1.651   2.266
31319WAT     H194199   8.063   1.711   2.312
31319WAT     H294200   8.214   1.648   2.318
31320WAT      O94201   1.332   7.298   3.350
31320WAT     H194202   1.408   7.362   3.363
31320WAT     H294203   1.259   7.319   3.415
31321WAT      O94204   4.007   0.369   8.040
31321WAT     H194205   4.024   0.271   8.032
31321WAT     H294206   4.069   0.408   8.109
31322WAT      O94207   6.084   3.008   0.099
31322WAT     H194208   6.072   3.098   0.056
31322WAT     H294209   6.164   2.963   0.059
31323WAT      O94210   2.688   0.618   6.763
31323WAT     H194211   2.662   0.662   6.849
31323WAT     H294212   2.730   0.686   6.703
31324WAT      O94213   0.455   7.927   9.313
31324WAT     H194214   0.458   8.027   9.311
31324WAT     H294215   0.506   7.894   9.392
31325WAT      O94216   7.103   4.443   9.104
31325WAT     H194217   7.021   4.434   9.160
31325WAT     H294218   7.185   4.430   9.161
31326WAT      O94219   6.233   4.265   5.765
31326WAT     H194220   6.331   4.272   5.747
31326WAT     H294221   6.182   4.320   5.698
31327WAT      O94222   4.487   9.441   9.119
31327WAT     H194223   4.569   9.497   9.103
31327WAT     H294224   4.440   9.474   9.202
31328WAT      O94225   3.753   6.019   4.512
31328WAT     H194226   3.692   6.098   4.506
31328WAT     H294227   3.725   5.950   4.445
31329WAT      O94228   6.447   0.279   1.516
31329WAT     H194229   6.474   0.223   1.438
31329WAT     H294230   6.410   0.220   1.588
31330WAT      O94231   5.688   6.755   4.268
31330WAT     H194232   5.724   6.701   4.192
31330WAT     H294233   5.760   6.813   4.305
31331WAT      O94234   7.161   5.435   1.165
31331WAT     H194235   7.246   5.447   1.115
31331WAT     H294236   7.114   5.523   1.172
31332WAT      O94237   1.849   2.668   9.400
31332WAT     H194238   1.827   2.766   9.396
31332WAT     H294239   1.913   2.651   9.475
31333WAT      O94240   5.126   4.001   7.927
31333WAT     H194241   5.144   3.902   7.921
31333WAT     H294242   5.204   4.046   7.970
31334WAT      O94243   1.390   7.038   2.388
31334WAT     H194244   1.334   6.963   2.353
31334WAT     H294245   1.339   7.089   2.457
31335WAT      O94246   4.926   7.500   6.135
31335WAT     H194247   4.892   7.455   6.217
31335WAT     H294248   4.849   7.533   6.080
31336WAT      O94249   4.522   2.874   1.884
31336WAT     H194250   4.456   2.943   1.852
31336WAT     H294251   4.600   2.920   1.927
31337WAT      O94252   0.557   1.834   0.884
31337WAT     H194253   0.575   1.870   0.792
31337WAT     H294254   0.643   1.807   0.927
31338WAT      O94255   9.636   6.425   9.319
31338WAT     H194256   9.719   6.376   9.345
31338WAT     H294257   9.628   6.509   9.373
31339WAT      O94258   7.241   2.846   2.674
31339WAT     H194259   7.158   2.888   2.710
31339WAT     H294260   7.320   2.903   2.698
31340WAT      O94261   0.808   0.761   3.605
31340WAT     H194262   0.734   0.702   3.574
31340WAT     H294263   0.828   0.742   3.702
31341WAT      O94264   8.277   6.229   8.526
31341WAT     H194265   8.192   6.206   8.574
31341WAT     H294266   8.264   6.218   8.427
31342WAT      O94267   1.648   0.193   4.918
31342WAT     H194268   1.629   0.272   4.976
31342WAT     H294269   1.562   0.155   4.884
31343WAT      O94270   8.141   4.242   6.537
31343WAT     H194271   8.130   4.252   6.636
31343WAT     H294272   8.117   4.149   6.510
31344WAT      O94273   9.391   5.590   8.443
31344WAT     H194274   9.451   5.656   8.398
31344WAT     H294275   9.360   5.627   8.530
31345WAT      O94276   6.978   4.656   4.621
31345WAT     H194277   6.962   4.695   4.712
31345WAT     H294278   6.918   4.578   4.607
31346WAT      O94279   8.583   3.218   4.472
31346WAT     H194280   8.590   3.139   4.411
31346WAT     H294281   8.674   3.254   4.491
31347WAT      O94282   1.359   5.978   0.658
31347WAT     H194283   1.321   6.065   0.626
31347WAT     H294284   1.447   5.996   0.703
31348WAT      O94285   4.370   9.294   8.765
31348WAT     H194286   4.464   9.296   8.733
31348WAT     H294287   4.350   9.376   8.818
31349WAT      O94288   3.928   2.126   2.978
31349WAT     H194289   3.879   2.099   2.895
31349WAT     H294290   3.994   2.197   2.955
31350WAT      O94291   9.382   2.955   4.892
31350WAT     H194292   9.343   2.996   4.809
31350WAT     H294293   9.453   2.889   4.866
31351WAT      O94294   4.917   3.933   0.966
31351WAT     H194295   4.831   3.917   0.918
31351WAT     H294296   4.980   3.857   0.949
31352WAT      O94297   8.705   7.219   1.673
31352WAT     H194298   8.788   7.273   1.686
31352WAT     H294299   8.636   7.275   1.626
31353WAT      O94300   0.419   2.119   3.306
31353WAT     H194301   0.323   2.133   3.284
31353WAT     H294302   0.432   2.026   3.342
31354WAT      O94303   6.283   2.890   7.723
31354WAT     H194304   6.188   2.909   7.696
31354WAT     H294305   6.284   2.851   7.815
31355WAT      O94306   4.186   3.798   4.911
31355WAT     H194307   4.283   3.788   4.892
31355WAT     H294308   4.170   3.882   4.963
31356WAT      O94309   5.825   7.542   2.692
31356WAT     H194310   5.905   7.593   2.660
31356WAT     H294311   5.833   7.446   2.665
31357WAT      O94312   1.647   7.075   3.028
31357WAT     H194313   1.709   7.021   2.970
31357WAT     H294314   1.579   7.121   2.971
31358WAT      O94315   1.727   7.726   8.153
31358WAT     H194316   1.631   7.754   8.157
31358WAT     H294317   1.785   7.806   8.166
31359WAT      O94318   7.637   0.463   2.546
31359WAT     H194319   7.705   0.468   2.619
31359WAT     H294320   7.566   0.531   2.563
31360WAT      O94321   8.717   9.161   5.665
31360WAT     H194322   8.764   9.185   5.750
31360WAT     H294323   8.773   9.189   5.587
31361WAT      O94324   6.993   1.892   7.104
31361WAT     H194325   6.951   1.940   7.027
31361WAT     H294326   7.082   1.932   7.124
31362WAT      O94327   8.117   4.069   1.464
31362WAT     H194328   8.179   4.004   1.419
31362WAT     H294329   8.159   4.160   1.465
31363WAT      O94330   2.064   0.328   2.160
31363WAT     H194331   2.045   0.273   2.079
31363WAT     H294332   2.104   0.270   2.231
31364WAT      O94333   3.540   9.135   8.227
31364WAT     H194334   3.548   9.118   8.129
31364WAT     H294335   3.632   9.137   8.268
31365WAT      O94336   3.354   3.880   6.519
31365WAT     H194337   3.372   3.816   6.444
31365WAT     H294338   3.320   3.830   6.598
31366WAT      O94339   0.741   0.587   6.350
31366WAT     H194340   0.756   0.660   6.416
31366WAT     H294341   0.700   0.508   6.395
31367WAT      O94342   1.381   0.641   3.809
31367WAT     H194343   1.323   0.582   3.753
31367WAT     H294344   1.473   0.602   3.813
31368WAT      O94345   2.746   9.268   2.952
31368WAT     H194346   2.828   9.211   2.953
31368WAT     H294347   2.769   9.360   2.982
31369WAT      O94348   9.136   0.079   5.540
31369WAT     H194349   9.104   0.006   5.480
31369WAT     H294350   9.090   0.164   5.518
31370WAT      O94351   3.726   1.285   7.165
31370WAT     H194352   3.697   1.376   7.136
31370WAT     H294353   3.776   1.293   7.251
31371WAT      O94354   1.631   1.383   1.890
31371WAT     H194355   1.644   1.294   1.847
31371WAT     H294356   1.710   1.441   1.870
31372WAT      O94357   0.998   0.555   1.527
31372WAT     H194358   1.072   0.561   1.460
31372WAT     H294359   0.913   0.527   1.482
31373WAT      O94360   5.213   5.775   6.079
31373WAT     H194361   5.274   5.696   6.089
31373WAT     H294362   5.226   5.816   5.989
31374WAT      O94363   1.935   8.464   9.159
31374WAT     H194364   1.925   8.411   9.074
31374WAT     H294365   2.032   8.474   9.181
31375WAT      O94366   4.000   2.053   8.653
31375WAT     H194367   3.942   2.075   8.732
31375WAT     H294368   4.085   2.105   8.660
31376WAT      O94369   5.814   5.566   4.365
31376WAT     H194370   5.824   5.471   4.334
31376WAT     H294371   5.722   5.580   4.400
31377WAT      O94372   3.874   2.918   3.627
31377WAT     H194373   3.902   2.992   3.688
31377WAT     H294374   3.946   2.849   3.621
31378WAT      O94375   1.903   3.490   0.113
31378WAT     H194376   1.955   3.484   0.198
31378WAT     H294377   1.962   3.465   0.036
31379WAT      O94378   7.852   4.715   3.004
31379WAT     H194379   7.929   4.757   3.051
31379WAT     H294380   7.885   4.638   2.948
31380WAT      O94381   2.066   7.735   6.239
31380WAT     H194382   2.147   7.717   6.295
31380WAT     H294383   2.004   7.656   6.243
31381WAT      O94384   7.702   0.978   3.423
31381WAT     H194385   7.688   0.879   3.418
31381WAT     H294386   7.615   1.025   3.406
31382WAT      O94387   9.456   2.115   5.740
31382WAT     H194388   9.490   2.185   5.677
31382WAT     H294389   9.464   2.149   5.834
31383WAT      O94390   6.182   8.678   1.392
31383WAT     H194391   6.099   8.659   1.444
31383WAT     H294392   6.195   8.777   1.385
31384WAT      O94393   5.219   0.566   3.853
31384WAT     H194394   5.305   0.515   3.846
31384WAT     H294395   5.183   0.559   3.946
31385WAT      O94396   5.830   0.208   2.124
31385WAT     H194397   5.876   0.277   2.068
31385WAT     H294398   5.742   0.243   2.155
31386WAT      O94399   1.586   3.347   9.321
31386WAT     H194400   1.535   3.262   9.309
31386WAT     H294401   1.533   3.423   9.282
31387WAT      O94402   3.665   1.287   2.880
31387WAT     H194403   3.729   1.263   2.953
31387WAT     H294404   3.686   1.234   2.798
31388WAT      O94405   8.106   2.905   5.489
31388WAT     H194406   8.138   2.951   5.572
31388WAT     H294407   8.066   2.972   5.426
31389WAT      O94408   9.140   5.273   4.021
31389WAT     H194409   9.112   5.317   4.107
31389WAT     H294410   9.194   5.192   4.041
31390WAT      O94411   7.509   4.232   2.201
31390WAT     H194412   7.588   4.270   2.250
31390WAT     H294413   7.533   4.219   2.105
31391WAT      O94414   2.460   4.667   7.320
31391WAT     H194415   2.471   4.734   7.393
31391WAT     H294416   2.476   4.711   7.231
31392WAT      O94417   2.470   8.249   7.261
31392WAT     H194418   2.441   8.284   7.172
31392WAT     H294419   2.471   8.325   7.327
31393WAT      O94420   7.829   0.818   2.666
31393WAT     H194421   7.881   0.902   2.683
31393WAT     H294422   7.893   0.741   2.654
31394WAT      O94423   7.563   0.812   1.145
31394WAT     H194424   7.634   0.831   1.213
31394WAT     H294425   7.541   0.896   1.096
31395WAT      O94426   1.519   5.327   2.398
31395WAT     H194427   1.524   5.299   2.302
31395WAT     H294428   1.470   5.256   2.450
31396WAT      O94429   7.151   1.988   6.231
31396WAT     H194430   7.069   2.016   6.282
31396WAT     H294431   7.150   1.889   6.220
31397WAT      O94432   7.115   5.938   2.470
31397WAT     H194433   7.095   6.036   2.461
31397WAT     H294434   7.177   5.911   2.396
31398WAT      O94435   3.838   6.737   0.411
31398WAT     H194436   3.850   6.824   0.363
31398WAT     H294437   3.814   6.665   0.346
31399WAT      O94438   8.421   0.240   9.518
31399WAT     H194439   8.427   0.273   9.613
31399WAT     H294440   8.324   0.235   9.492
31400WAT      O94441   6.447   3.448   0.076
31400WAT     H194442   6.444   3.348   0.072
31400WAT     H294443   6.381   3.486   0.011
31401WAT      O94444   8.899   6.598   2.381
31401WAT     H194445   8.990   6.599   2.423
31401WAT     H294446   8.907   6.573   2.285
31402WAT      O94447   9.629   5.144   7.472
31402WAT     H194448   9.532   5.144   7.498
31402WAT     H294449   9.669   5.056   7.494
31403WAT      O94450   2.600   9.691   6.076
31403WAT     H194451   2.603   9.777   6.025
31403WAT     H294452   2.691   9.668   6.109
31404WAT      O94453   6.191   3.497   5.916
31404WAT     H194454   6.133   3.421   5.888
31404WAT     H294455   6.241   3.472   5.999
31405WAT      O94456   1.321   6.200   7.880
31405WAT     H194457   1.372   6.118   7.907
31405WAT     H294458   1.252   6.220   7.950
31406WAT      O94459   6.430   0.832   6.034
31406WAT     H194460   6.463   0.740   6.058
31406WAT     H294461   6.490   0.900   6.075
31407WAT      O94462   8.316   8.294   4.319
31407WAT     H194463   8.241   8.351   4.352
31407WAT     H294464   8.278   8.212   4.275
31408WAT      O94465   6.883   0.745   5.555
31408WAT     H194466   6.836   0.674   5.608
31408WAT     H294467   6.924   0.705   5.473
31409WAT      O94468   6.619   1.990   3.675
31409WAT     H194469   6.546   2.015   3.739
31409WAT     H294470   6.696   2.054   3.685
31410WAT      O94471   0.268   3.478   0.894
31410WAT     H194472   0.306   3.390   0.919
31410WAT     H294473   0.338   3.534   0.850
31411WAT      O94474   6.517   3.281   0.660
31411WAT     H194475   6.553   3.367   0.623
31411WAT     H294476   6.474   3.229   0.586
31412WAT      O94477   9.239   8.757   1.984
31412WAT     H194478   9.243   8.661   1.956
31412WAT     H294479   9.195   8.765   2.073
31413WAT      O94480   4.715   3.158   3.631
31413WAT     H194481   4.707   3.188   3.727
31413WAT     H294482   4.681   3.230   3.571
31414WAT      O94483   9.348   1.166   6.893
31414WAT     H194484   9.431   1.220   6.879
31414WAT     H294485   9.270   1.212   6.850
31415WAT      O94486   7.811   2.425   4.395
31415WAT     H194487   7.822   2.524   4.406
31415WAT     H294488   7.893   2.387   4.354
31416WAT      O94489   4.487   3.160   2.156
31416WAT     H194490   4.516   3.080   2.103
31416WAT     H294491   4.389   3.174   2.144
31417WAT      O94492   9.349   7.861   2.613
31417WAT     H194493   9.419   7.898   2.674
31417WAT     H294494   9.286   7.804   2.665
31418WAT      O94495   6.014   7.049   9.385
31418WAT     H194496   6.068   6.994   9.449
31418WAT     H294497   5.971   7.124   9.435
31419WAT      O94498   5.865   2.299   9.308
31419WAT     H194499   5.772   2.335   9.315
31419WAT     H294500   5.861   2.199   9.303
31420WAT      O94501   7.421   1.458   6.478
31420WAT     H194502   7.342   1.475   6.418
31420WAT     H294503   7.393   1.471   6.574
31421WAT      O94504   7.582   3.214   8.163
31421WAT     H194505   7.664   3.164   8.138
31421WAT     H294506   7.574   3.297   8.106
31422WAT      O94507   9.020   7.932   1.736
31422WAT     H194508   8.947   7.984   1.781
31422WAT     H294509   9.100   7.991   1.725
31423WAT      O94510   7.699   6.252   5.251
31423WAT     H194511   7.647   6.313   5.311
31423WAT     H294512   7.797   6.266   5.265
31424WAT      O94513   7.309   2.634   3.770
31424WAT     H194514   7.281   2.542   3.741
31424WAT     H294515   7.288   2.699   3.697
31425WAT      O94516   3.584   1.504   5.024
31425WAT     H194517   3.637   1.425   5.054
31425WAT     H294518   3.645   1.569   4.978
31426WAT      O94519   3.673   8.650   5.435
31426WAT     H194520   3.625   8.651   5.522
31426WAT     H294521   3.727   8.566   5.427
31427WAT      O94522   4.403   7.789   1.913
31427WAT     H194523   4.354   7.770   1.829
31427WAT     H294524   4.339   7.791   1.990
31428WAT      O94525   3.755   9.019   6.579
31428WAT     H194526   3.706   8.933   6.594
31428WAT     H294527   3.689   9.094   6.568
31429WAT      O94528   2.162   0.958   0.886
31429WAT     H194529   2.193   0.990   0.975
31429WAT     H294530   2.063   0.945   0.888
31430WAT      O94531   4.599   4.224   0.785
31430WAT     H194532   4.545   4.166   0.846
31430WAT     H294533   4.664   4.277   0.838
31431WAT      O94534   5.001   7.265   4.264
31431WAT     H194535   4.983   7.212   4.181
31431WAT     H294536   5.021   7.360   4.239
31432WAT      O94537   0.056   9.591   7.669
31432WAT     H194538  -0.035   9.601   7.629
31432WAT     H294539   0.071   9.665   7.735
31433WAT      O94540   2.099   3.206   1.561
31433WAT     H194541   2.169   3.245   1.502
31433WAT     H294542   2.010   3.246   1.538
31434WAT      O94543   4.472   3.704   1.975
31434WAT     H194544   4.482   3.655   1.889
31434WAT     H294545   4.438   3.641   2.045
31435WAT      O94546   7.952   8.476   7.856
31435WAT     H194547   7.972   8.567   7.891
31435WAT     H294548   7.883   8.482   7.784
31436WAT      O94549   2.235   6.897   9.028
31436WAT     H194550   2.268   6.919   9.119
31436WAT     H294551   2.232   6.979   8.972
31437WAT      O94552   3.642   4.829   8.702
31437WAT     H194553   3.701   4.809   8.624
31437WAT     H294554   3.684   4.794   8.786
31438WAT      O94555   0.709   0.271   3.696
31438WAT     H194556   0.765   0.354   3.694
31438WAT     H294557   0.754   0.202   3.753
31439WAT      O94558   8.056   9.404   7.383
31439WAT     H194559   8.109   9.367   7.459
31439WAT     H294560   8.022   9.495   7.407
31440WAT      O94561   5.469   6.862   8.948
31440WAT     H194562   5.483   6.767   8.976
31440WAT     H294563   5.411   6.865   8.866
31441WAT      O94564   2.615   2.488   0.815
31441WAT     H194565   2.563   2.442   0.887
31441WAT     H294566   2.679   2.424   0.774
31442WAT      O94567   2.793   3.265   8.977
31442WAT     H194568   2.862   3.207   8.934
31442WAT     H294569   2.787   3.243   9.074
31443WAT      O94570   3.839   9.429   0.683
31443WAT     H194571   3.865   9.524   0.664
31443WAT     H294572   3.743   9.427   0.712
31444WAT      O94573   0.853   7.211   5.494
31444WAT     H194574   0.788   7.234   5.422
31444WAT     H294575   0.887   7.294   5.538
31445WAT      O94576   5.067   4.735   1.161
31445WAT     H194577   5.017   4.779   1.236
31445WAT     H294578   5.002   4.712   1.088
31446WAT      O94579   4.547   2.061   1.487
31446WAT     H194580   4.495   1.983   1.523
31446WAT     H294581   4.645   2.045   1.503
31447WAT      O94582   1.687   8.870   7.007
31447WAT     H194583   1.760   8.832   6.949
31447WAT     H294584   1.641   8.944   6.958
31448WAT      O94585   8.725   8.202   8.140
31448WAT     H194586   8.730   8.134   8.214
31448WAT     H294587   8.757   8.161   8.055
31449WAT      O94588   3.722   7.672   0.560
31449WAT     H194589   3.739   7.716   0.472
31449WAT     H294590   3.798   7.690   0.622
31450WAT      O94591   8.699   4.307   3.163
31450WAT     H194592   8.739   4.397   3.184
31450WAT     H294593   8.743   4.269   3.083
31451WAT      O94594   3.792   6.843   5.831
31451WAT     H194595   3.722   6.888   5.776
31451WAT     H294596   3.867   6.908   5.849
31452WAT      O94597   7.156   7.288   6.309
31452WAT     H194598   7.242   7.335   6.327
31452WAT     H294599   7.082   7.335   6.357
31453WAT      O94600   4.948   5.873   6.951
31453WAT     H194601   5.000   5.792   6.978
31453WAT     H294602   4.955   5.943   7.021
31454WAT      O94603   3.299   3.498   3.727
31454WAT     H194604   3.318   3.456   3.815
31454WAT     H294605   3.228   3.568   3.738
31455WAT      O94606   7.979   3.246   1.885
31455WAT     H194607   8.041   3.170   1.901
31455WAT     H294608   8.031   3.329   1.866
31456WAT      O94609   2.686   5.009   1.457
31456WAT     H194610   2.615   5.020   1.388
31456WAT     H294611   2.774   5.039   1.420
31457WAT      O94612   8.973   8.425   0.571
31457WAT     H194613   9.031   8.507   0.568
31457WAT     H294614   8.881   8.451   0.600
31458WAT      O94615   4.646   4.711   3.440
31458WAT     H194616   4.569   4.704   3.504
31458WAT     H294617   4.719   4.649   3.469
31459WAT      O94618   8.751   4.602   5.694
31459WAT     H194619   8.744   4.512   5.651
31459WAT     H294620   8.753   4.591   5.794
31460WAT      O94621   0.064   7.433   8.280
31460WAT     H194622   0.030   7.394   8.194
31460WAT     H294623   0.144   7.380   8.311
31461WAT      O94624   0.853   8.458   7.252
31461WAT     H194625   0.857   8.527   7.180
31461WAT     H294626   0.911   8.486   7.328
31462WAT      O94627   2.218   6.371   8.685
31462WAT     H194628   2.243   6.374   8.782
31462WAT     H294629   2.204   6.465   8.652
31463WAT      O94630   8.893   6.692   5.697
31463WAT     H194631   8.823   6.620   5.703
31463WAT     H294632   8.944   6.681   5.612
31464WAT      O94633   6.324   3.120   6.480
31464WAT     H194634   6.358   3.083   6.566
31464WAT     H294635   6.355   3.062   6.404
31465WAT      O94636   6.202   4.981   7.205
31465WAT     H194637   6.209   5.080   7.217
31465WAT     H294638   6.294   4.942   7.192
31466WAT      O94639   6.680   2.502   8.415
31466WAT     H194640   6.728   2.417   8.435
31466WAT     H294641   6.647   2.543   8.500
31467WAT      O94642   2.933   0.088   5.940
31467WAT     H194643   2.858   0.125   5.995
31467WAT     H294644   2.896   0.023   5.873
31468WAT      O94645   8.811   2.221   4.974
31468WAT     H194646   8.746   2.223   5.050
31468WAT     H294647   8.804   2.133   4.927
31469WAT      O94648   4.800   6.671   7.142
31469WAT     H194649   4.815   6.765   7.110
31469WAT     H294650   4.714   6.636   7.106
31470WAT      O94651   9.063   6.053   5.849
31470WAT     H194652   9.132   6.122   5.870
31470WAT     H294653   9.089   5.966   5.891
31471WAT      O94654   2.111   1.283   4.592
31471WAT     H194655   2.145   1.367   4.634
31471WAT     H294656   2.029   1.303   4.538
31472WAT      O94657   5.897   1.918   4.687
31472WAT     H194658   5.803   1.887   4.697
31472WAT     H294659   5.953   1.843   4.652
31473WAT      O94660   5.362   7.732   1.448
31473WAT     H194661   5.381   7.682   1.532
31473WAT     H294662   5.430   7.805   1.437
31474WAT      O94663   1.368   0.429   9.878
31474WAT     H194664   1.366   0.359   9.949
31474WAT     H294665   1.324   0.512   9.911
31475WAT      O94666   7.232   3.363   2.313
31475WAT     H194667   7.325   3.374   2.279
31475WAT     H294668   7.208   3.440   2.372
31476WAT      O94669   8.238   6.727   3.673
31476WAT     H194670   8.275   6.746   3.581
31476WAT     H294671   8.175   6.801   3.699
31477WAT      O94672   0.254   7.574   9.890
31477WAT     H194673   0.166   7.533   9.865
31477WAT     H294674   0.263   7.662   9.845
31478WAT      O94675   6.515   0.934   7.582
31478WAT     H194676   6.470   1.018   7.552
31478WAT     H294677   6.533   0.940   7.681
31479WAT      O94678   2.243   2.458   3.400
31479WAT     H194679   2.272   2.526   3.467
31479WAT     H294680   2.172   2.496   3.341
31480WAT      O94681   4.973   1.466   3.010
31480WAT     H194682   4.947   1.379   2.968
31480WAT     H294683   4.892   1.518   3.034
31481WAT      O94684   4.383   7.954   7.389
31481WAT     H194685   4.450   7.994   7.327
31481WAT     H294686   4.310   7.911   7.335
31482WAT      O94687   3.174   9.097   3.754
31482WAT     H194688   3.255   9.070   3.702
31482WAT     H294689   3.134   9.016   3.798
31483WAT      O94690   1.291   8.303   1.769
31483WAT     H194691   1.388   8.281   1.772
31483WAT     H294692   1.263   8.345   1.856
31484WAT      O94693   9.566   7.111   7.666
31484WAT     H194694   9.523   7.043   7.725
31484WAT     H294695   9.547   7.202   7.700
31485WAT      O94696   1.164   6.311   4.630
31485WAT     H194697   1.204   6.363   4.555
31485WAT     H294698   1.105   6.370   4.685
31486WAT      O94699   6.295   2.794   8.383
31486WAT     H194700   6.361   2.859   8.419
31486WAT     H294701   6.248   2.749   8.459
31487WAT      O94702   8.701   9.041   2.189
31487WAT     H194703   8.703   8.986   2.273
31487WAT     H294704   8.616   9.094   2.185
31488WAT      O94705   1.988   5.268   7.149
31488WAT     H194706   1.918   5.335   7.125
31488WAT     H294707   1.986   5.193   7.083
31489WAT      O94708   6.627   7.275   7.099
31489WAT     H194709   6.557   7.306   7.163
31489WAT     H294710   6.583   7.241   7.016
31490WAT      O94711   4.757   6.245   5.386
31490WAT     H194712   4.772   6.215   5.292
31490WAT     H294713   4.770   6.344   5.392
31491WAT      O94714   9.018   2.163   6.980
31491WAT     H194715   9.059   2.236   7.036
31491WAT     H294716   9.078   2.143   6.902
31492WAT      O94717   9.766   1.325   5.258
31492WAT     H194718   9.746   1.245   5.202
31492WAT     H294719   9.750   1.303   5.354
31493WAT      O94720   3.659   6.242   4.970
31493WAT     H194721   3.596   6.320   4.976
31493WAT     H294722   3.706   6.231   5.057
31494WAT      O94723   5.628   8.218   5.981
31494WAT     H194724   5.711   8.168   5.957
31494WAT     H294725   5.630   8.308   5.937
31495WAT      O94726   9.718   5.281   6.574
31495WAT     H194727   9.763   5.193   6.589
31495WAT     H294728   9.745   5.346   6.645
31496WAT      O94729   4.983   3.543   2.463
31496WAT     H194730   5.074   3.570   2.432
31496WAT     H294731   4.992   3.473   2.535
31497WAT      O94732   8.659   5.989   3.865
31497WAT     H194733   8.725   6.016   3.936
31497WAT     H294734   8.633   6.069   3.811
31498WAT      O94735   0.819   5.286   4.389
31498WAT     H194736   0.764   5.208   4.417
31498WAT     H294737   0.769   5.371   4.409
31499WAT      O94738   9.696   1.988   2.114
31499WAT     H194739   9.624   2.052   2.142
31499WAT     H294740   9.783   2.016   2.153
31500WAT      O94741   7.567   2.369   2.209
31500WAT     H194742   7.601   2.456   2.246
31500WAT     H294743   7.549   2.380   2.111
31501WAT      O94744   7.832   3.241   9.345
31501WAT     H194745   7.917   3.286   9.319
31501WAT     H294746   7.811   3.263   9.441
31502WAT      O94747   0.951   2.309   3.828
31502WAT     H194748   0.963   2.210   3.821
31502WAT     H294749   0.924   2.346   3.739
31503WAT      O94750   0.369   2.735   9.712
31503WAT     H194751   0.444   2.792   9.745
31503WAT     H294752   0.378   2.642   9.748
31504WAT      O94753   9.153   5.195   0.612
31504WAT     H194754   9.128   5.132   0.686
31504WAT     H294755   9.230   5.156   0.561
31505WAT      O94756   5.450   3.064   4.464
31505WAT     H194757   5.402   3.076   4.551
31505WAT     H294758   5.537   3.018   4.479
31506WAT      O94759   8.509   8.079   3.902
31506WAT     H194760   8.429   8.102   3.956
31506WAT     H294761   8.520   7.979   3.899
31507WAT      O94762   2.160   6.754   1.963
31507WAT     H194763   2.211   6.831   2.000
31507WAT     H294764   2.134   6.693   2.038
31508WAT      O94765   3.178   8.254   5.752
31508WAT     H194766   3.274   8.226   5.752
31508WAT     H294767   3.165   8.330   5.816
31509WAT      O94768   3.804   2.695   6.836
31509WAT     H194769   3.904   2.699   6.835
31509WAT     H294770   3.770   2.686   6.742
31510WAT      O94771   3.938   6.022   2.319
31510WAT     H194772   3.925   5.980   2.409
31510WAT     H294773   3.878   5.977   2.253
31511WAT      O94774   5.646   7.547   5.266
31511WAT     H194775   5.658   7.622   5.331
31511WAT     H294776   5.551   7.514   5.270
31512WAT      O94777   5.606   8.363   1.607
31512WAT     H194778   5.671   8.288   1.592
31512WAT     H294779   5.592   8.376   1.705
31513WAT      O94780   7.186   8.574   0.183
31513WAT     H194781   7.140   8.496   0.226
31513WAT     H294782   7.264   8.601   0.240
31514WAT      O94783   6.413   8.690   6.431
31514WAT     H194784   6.355   8.737   6.497
31514WAT     H294785   6.489   8.646   6.479
31515WAT      O94786   3.880   2.895   6.496
31515WAT     H194787   3.941   2.817   6.507
31515WAT     H294788   3.848   2.899   6.401
31516WAT      O94789   6.032   1.239   9.637
31516WAT     H194790   5.978   1.182   9.576
31516WAT     H294791   6.106   1.185   9.677
31517WAT      O94792   9.310   7.513   9.706
31517WAT     H194793   9.212   7.504   9.723
31517WAT     H294794   9.340   7.441   9.643
31518WAT      O94795   3.768   3.233   1.047
31518WAT     H194796   3.731   3.201   1.134
31518WAT     H294797   3.709   3.201   0.972
31519WAT      O94798   0.266   9.164   9.233
31519WAT     H194799   0.336   9.204   9.292
31519WAT     H294800   0.239   9.075   9.268
31520WAT      O94801   9.534   5.488   6.492
31520WAT     H194802   9.603   5.437   6.543
31520WAT     H294803   9.476   5.424   6.441
31521WAT      O94804   1.599   5.735   0.087
31521WAT     H194805   1.517   5.790   0.101
31521WAT     H294806   1.658   5.779   0.020
31522WAT      O94807   7.738   5.545   6.215
31522WAT     H194808   7.680   5.601   6.156
31522WAT     H294809   7.717   5.563   6.311
31523WAT      O94810   0.102   1.877   2.694
31523WAT     H194811   0.052   1.928   2.624
31523WAT     H294812   0.178   1.931   2.728
31524WAT      O94813   7.057   6.556   1.193
31524WAT     H194814   7.049   6.520   1.286
31524WAT     H294815   7.008   6.643   1.187
31525WAT      O94816   0.930   0.054   3.766
31525WAT     H194817   0.945  -0.034   3.721
31525WAT     H294818   0.876   0.040   3.850
31526WAT      O94819   9.735   1.736   8.272
31526WAT     H194820   9.832   1.760   8.280
31526WAT     H294821   9.707   1.686   8.354
31527WAT      O94822   1.129   0.558   4.160
31527WAT     H194823   1.039   0.517   4.153
31527WAT     H294824   1.196   0.500   4.115
31528WAT      O94825   4.178   1.092   2.431
31528WAT     H194826   4.121   1.083   2.512
31528WAT     H294827   4.236   1.173   2.439
31529WAT      O94828   6.227   4.035   0.030
31529WAT     H194829   6.277   4.109  -0.016
31529WAT     H294830   6.277   4.008   0.112
31530WAT      O94831   3.729   2.784   8.976
31530WAT     H194832   3.694   2.855   8.915
31530WAT     H294833   3.758   2.826   9.062
31531WAT      O94834   6.824   3.654   7.457
31531WAT     H194835   6.857   3.602   7.378
31531WAT     H294836   6.879   3.737   7.468
31532WAT      O94837   3.306   0.533   1.654
31532WAT     H194838   3.292   0.625   1.618
31532WAT     H294839   3.303   0.535   1.754
31533WAT      O94840   9.882   4.400   7.980
31533WAT     H194841   9.981   4.413   7.985
31533WAT     H294842   9.856   4.320   8.033
31534WAT      O94843   3.676   0.427   5.742
31534WAT     H194844   3.763   0.472   5.721
31534WAT     H294845   3.606   0.497   5.758
31535WAT      O94846   2.402   6.203   7.314
31535WAT     H194847   2.328   6.244   7.368
31535WAT     H294848   2.455   6.142   7.372
31536WAT      O94849   7.731   9.639   8.016
31536WAT     H194850   7.681   9.556   7.991
31536WAT     H294851   7.781   9.623   8.101
31537WAT      O94852   3.172   6.001   1.040
31537WAT     H194853   3.192   6.076   0.977
31537WAT     H294854   3.105   5.940   0.998
31538WAT      O94855   1.873   0.896   9.479
31538WAT     H194856   1.837   0.861   9.392
31538WAT     H294857   1.968   0.869   9.489
31539WAT      O94858   4.301   6.488   0.731
31539WAT     H194859   4.257   6.548   0.798
31539WAT     H294860   4.241   6.410   0.711
31540WAT      O94861   9.785   5.544   3.415
31540WAT     H194862   9.716   5.473   3.401
31540WAT     H294863   9.747   5.632   3.387
31541WAT      O94864   2.448   9.453   4.134
31541WAT     H194865   2.543   9.468   4.107
31541WAT     H294866   2.420   9.525   4.198
31542WAT      O94867   2.882   5.911   5.783
31542WAT     H194868   2.792   5.874   5.803
31542WAT     H294869   2.914   5.874   5.695
31543WAT      O94870   4.062   0.113   7.991
31543WAT     H194871   3.985   0.053   8.008
31543WAT     H294872   4.147   0.067   8.016
31544WAT      O94873   7.135   6.236   6.356
31544WAT     H194874   7.075   6.211   6.433
31544WAT     H294875   7.079   6.267   6.279
31545WAT      O94876   9.213   3.176   3.463
31545WAT     H194877   9.283   3.244   3.443
31545WAT     H294878   9.157   3.206   3.541
31546WAT      O94879   0.468   2.576   7.454
31546WAT     H194880   0.499   2.491   7.497
31546WAT     H294881   0.370   2.589   7.474
31547WAT      O94882   7.740   7.031   5.185
31547WAT     H194883   7.812   7.098   5.204
31547WAT     H294884   7.662   7.048   5.245
31548WAT      O94885   2.953   1.220   8.588
31548WAT     H194886   3.048   1.222   8.555
31548WAT     H294887   2.892   1.250   8.515
31549WAT      O94888   7.374   4.177   0.508
31549WAT     H194889   7.284   4.215   0.528
31549WAT     H294890   7.433   4.248   0.469
31550WAT      O94891   8.599   7.389   1.266
31550WAT     H194892   8.549   7.306   1.243
31550WAT     H294893   8.578   7.461   1.199
31551WAT      O94894   1.710   6.910   9.548
31551WAT     H194895   1.672   6.966   9.475
31551WAT     H294896   1.636   6.861   9.594
31552WAT      O94897   7.305   5.968   7.741
31552WAT     H194898   7.392   6.011   7.719
31552WAT     H294899   7.249   6.032   7.794
31553WAT      O94900   5.892   8.108   5.909
31553WAT     H194901   5.873   8.079   5.815
31553WAT     H294902   5.971   8.170   5.910
31554WAT      O94903   7.163   7.898   5.258
31554WAT     H194904   7.183   7.896   5.356
31554WAT     H294905   7.064   7.893   5.243
31555WAT      O94906   4.837   1.730   2.822
31555WAT     H194907   4.863   1.661   2.754
31555WAT     H294908   4.837   1.688   2.913
31556WAT      O94909   7.533   1.094   0.538
31556WAT     H194910   7.531   1.121   0.442
31556WAT     H294911   7.542   0.994   0.545
31557WAT      O94912   0.245   7.933   0.643
31557WAT     H194913   0.241   7.838   0.675
31557WAT     H294914   0.329   7.975   0.678
31558WAT      O94915   2.587   8.146   1.194
31558WAT     H194916   2.666   8.189   1.237
31558WAT     H294917   2.505   8.200   1.210
31559WAT      O94918   5.411   1.645   1.292
31559WAT     H194919   5.496   1.596   1.306
31559WAT     H294920   5.429   1.730   1.241
31560WAT      O94921   7.897   6.822   6.030
31560WAT     H194922   7.946   6.811   6.117
31560WAT     H294923   7.956   6.869   5.964
31561WAT      O94924   3.075   2.531   7.793
31561WAT     H194925   3.014   2.603   7.758
31561WAT     H294926   3.031   2.486   7.871
31562WAT      O94927   6.378   6.499   5.885
31562WAT     H194928   6.381   6.529   5.789
31562WAT     H294929   6.451   6.431   5.900
31563WAT      O94930   3.857   6.720   5.365
31563WAT     H194931   3.953   6.728   5.393
31563WAT     H294932   3.849   6.649   5.296
31564WAT      O94933   4.221   3.618   8.509
31564WAT     H194934   4.126   3.596   8.533
31564WAT     H294935   4.224   3.657   8.418
31565WAT      O94936   9.835   1.433   4.593
31565WAT     H194937   9.744   1.465   4.567
31565WAT     H294938   9.826   1.363   4.664
31566WAT      O94939   5.638   2.372   8.962
31566WAT     H194940   5.545   2.339   8.947
31566WAT     H294941   5.702   2.295   8.958
31567WAT      O94942   2.602   4.769   8.457
31567WAT     H194943   2.578   4.699   8.390
31567WAT     H294944   2.527   4.780   8.523
31568WAT      O94945   8.951   5.843   8.353
31568WAT     H194946   8.953   5.788   8.437
31568WAT     H294947   8.876   5.812   8.295
31569WAT      O94948   5.238   9.121   9.613
31569WAT     H194949   5.229   9.024   9.636
31569WAT     H294950   5.335   9.147   9.615
31570WAT      O94951   1.224   5.567   8.917
31570WAT     H194952   1.252   5.477   8.953
31570WAT     H294953   1.236   5.568   8.818
31571WAT      O94954   7.573   0.492   7.080
31571WAT     H194955   7.568   0.500   7.180
31571WAT     H294956   7.602   0.399   7.056
31572WAT      O94957   0.608   0.775   6.713
31572WAT     H194958   0.657   0.695   6.679
31572WAT     H294959   0.672   0.840   6.754
31573WAT      O94960   2.110   7.526   7.517
31573WAT     H194961   2.149   7.537   7.608
31573WAT     H294962   2.018   7.490   7.524
31574WAT      O94963   8.339   9.028   1.828
31574WAT     H194964   8.342   8.937   1.869
31574WAT     H294965   8.366   9.023   1.732
31575WAT      O94966   3.754   9.345   5.284
31575WAT     H194967   3.660   9.362   5.255
31575WAT     H294968   3.775   9.399   5.365
31576WAT      O94969   9.744   6.303   5.806
31576WAT     H194970   9.683   6.348   5.741
31576WAT     H294971   9.837   6.304   5.771
31577WAT      O94972   6.179   7.930   8.436
31577WAT     H194973   6.143   7.852   8.488
31577WAT     H294974   6.178   7.907   8.338
31578WAT      O94975   1.521   6.904   5.303
31578WAT     H194976   1.428   6.893   5.269
31578WAT     H294977   1.577   6.949   5.233
31579WAT      O94978   4.980   8.129   8.784
31579WAT     H194979   5.054   8.076   8.827
31579WAT     H294980   4.910   8.149   8.852
31580WAT      O94981   7.102   5.591   2.021
31580WAT     H194982   7.080   5.658   1.951
31580WAT     H294983   7.201   5.577   2.024
31581WAT      O94984   9.634   7.573   8.564
31581WAT     H194985   9.576   7.638   8.614
31581WAT     H294986   9.578   7.523   8.497
31582WAT      O94987   2.939   4.610   8.548
31582WAT     H194988   2.996   4.556   8.609
31582WAT     H294989   2.848   4.568   8.539
31583WAT      O94990   5.239   3.297   0.164
31583WAT     H194991   5.230   3.286   0.065
31583WAT     H294992   5.154   3.270   0.209
31584WAT      O94993   0.589   3.468   8.970
31584WAT     H194994   0.594   3.401   8.896
31584WAT     H294995   0.628   3.429   9.053
31585WAT      O94996   0.105   5.966   5.979
31585WAT     H194997   0.117   5.993   5.884
31585WAT     H294998   0.195   5.953   6.022
31586WAT      O94999   7.579   7.612   6.034
31586WAT     H195000   7.668   7.571   6.011
31586WAT     H295001   7.589   7.667   6.117
31587WAT      O95002   1.356   6.093   3.856
31587WAT     H195003   1.408   6.082   3.772
31587WAT     H295004   1.277   6.152   3.840
31588WAT      O95005   7.163   8.542   2.281
31588WAT     H195006   7.239   8.604   2.264
31588WAT     H295007   7.125   8.560   2.372
31589WAT      O95008   6.983   1.569   8.766
31589WAT     H195009   6.955   1.665   8.775
31589WAT     H295010   7.083   1.563   8.766
31590WAT      O95011   0.418   5.414   6.740
31590WAT     H195012   0.335   5.375   6.780
31590WAT     H295013   0.438   5.367   6.654
31591WAT      O95014   4.156   3.286   9.221
31591WAT     H195015   4.134   3.292   9.318
31591WAT     H295016   4.078   3.319   9.167
31592WAT      O95017   6.582   3.720   7.164
31592WAT     H195018   6.520   3.643   7.149
31592WAT     H295019   6.584   3.743   7.261
31593WAT      O95020   1.004   8.011   5.739
31593WAT     H195021   0.958   8.020   5.827
31593WAT     H295022   0.971   8.082   5.677
31594WAT      O95023   0.568   5.043   4.997
31594WAT     H195024   0.502   4.979   5.038
31594WAT     H295025   0.534   5.072   4.907
31595WAT      O95026   6.492   0.940   1.114
31595WAT     H195027   6.571   0.880   1.102
31595WAT     H295028   6.499   0.986   1.203
31596WAT      O95029   8.186   5.417   9.764
31596WAT     H195030   8.236   5.378   9.841
31596WAT     H295031   8.220   5.509   9.746
31597WAT      O95032   7.172   0.092   6.166
31597WAT     H195033   7.103   0.079   6.095
31597WAT     H295034   7.218   0.180   6.154
31598WAT      O95035   9.394   1.997   1.560
31598WAT     H195036   9.434   2.049   1.636
31598WAT     H295037   9.303   1.965   1.585
31599WAT      O95038   7.800   6.418   7.485
31599WAT     H195039   7.818   6.329   7.443
31599WAT     H295040   7.873   6.483   7.459
31600WAT      O95041   4.568   8.441   4.883
31600WAT     H195042   4.475   8.441   4.920
31600WAT     H295043   4.616   8.523   4.913
31601WAT      O95044   7.772   4.807   6.588
31601WAT     H195045   7.840   4.800   6.515
31601WAT     H295046   7.796   4.743   6.662
31602WAT      O95047   6.461   6.347   5.282
31602WAT     H195048   6.559   6.360   5.264
31602WAT     H295049   6.416   6.437   5.283
31603WAT      O95050   1.821   6.368   9.513
31603WAT     H195051   1.755   6.441   9.532
31603WAT     H295052   1.772   6.284   9.492
31604WAT      O95053   1.612   9.389   5.411
31604WAT     H195054   1.652   9.345   5.331
31604WAT     H295055   1.537   9.448   5.382
31605WAT      O95056   3.209   0.057   6.448
31605WAT     H195057   3.230   0.105   6.363
31605WAT     H295058   3.148   0.114   6.504
31606WAT      O95059   6.062   7.542   4.073
31606WAT     H195060   6.149   7.549   4.121
31606WAT     H295061   6.023   7.450   4.087
31607WAT      O95062   1.241   6.825   9.030
31607WAT     H195063   1.253   6.913   8.984
31607WAT     H295064   1.303   6.820   9.108
31608WAT      O95065   4.572   1.595   4.577
31608WAT     H195066   4.589   1.509   4.530
31608WAT     H295067   4.552   1.667   4.510
31609WAT      O95068   8.742   8.053   9.862
31609WAT     H195069   8.792   7.990   9.803
31609WAT     H295070   8.807   8.111   9.911
31610WAT      O95071   7.320   5.127   4.723
31610WAT     H195072   7.336   5.223   4.745
31610WAT     H295073   7.239   5.095   4.772
31611WAT      O95074   1.646   1.428   7.933
31611WAT     H195075   1.622   1.331   7.923
31611WAT     H295076   1.732   1.436   7.983
31612WAT      O95077   9.655   9.821   5.149
31612WAT     H195078   9.674   9.769   5.231
31612WAT     H295079   9.723   9.800   5.079
31613WAT      O95080   5.530   8.040   1.724
31613WAT     H195081   5.444   8.069   1.683
31613WAT     H295082   5.521   7.947   1.759
31614WAT      O95083   8.476   1.210   6.308
31614WAT     H195084   8.538   1.186   6.233
31614WAT     H295085   8.527   1.214   6.394
31615WAT      O95086   5.088   4.538   7.003
31615WAT     H195087   5.003   4.556   6.954
31615WAT     H295088   5.068   4.500   7.093
31616WAT      O95089   2.052   0.444   3.134
31616WAT     H195090   2.133   0.503   3.122
31616WAT     H295091   2.075   0.368   3.195
31617WAT      O95092   1.939   2.023   3.445
31617WAT     H195093   1.868   2.092   3.426
31617WAT     H295094   1.897   1.932   3.444
31618WAT      O95095   2.186   8.500   3.172
31618WAT     H195096   2.180   8.538   3.264
31618WAT     H295097   2.257   8.430   3.170
31619WAT      O95098   8.847   1.952   7.325
31619WAT     H195099   8.859   1.966   7.424
31619WAT     H295100   8.936   1.954   7.280
31620WAT      O95101   1.794   9.560   8.141
31620WAT     H195102   1.867   9.582   8.076
31620WAT     H295103   1.718   9.518   8.092
31621WAT      O95104   1.740   6.943   4.827
31621WAT     H195105   1.805   6.874   4.858
31621WAT     H295106   1.773   6.983   4.741
31622WAT      O95107   0.562   5.650   3.782
31622WAT     H195108   0.600   5.623   3.871
31622WAT     H295109   0.557   5.571   3.722
31623WAT      O95110   0.105   2.734   3.526
31623WAT     H195111   0.129   2.640   3.550
31623WAT     H295112   0.109   2.745   3.426
31624WAT      O95113   9.718   0.676   5.737
31624WAT     H195114   9.703   0.692   5.834
31624WAT     H295115   9.771   0.592   5.724
31625WAT      O95116   0.371   9.231   7.765
31625WAT     H195117   0.454   9.285   7.748
31625WAT     H295118   0.341   9.245   7.859
31626WAT      O95119   7.255   9.477   8.724
31626WAT     H195120   7.210   9.549   8.672
31626WAT     H295121   7.328   9.516   8.779
31627WAT      O95122   4.438   5.107   0.516
31627WAT     H195123   4.532   5.089   0.486
31627WAT     H295124   4.427   5.076   0.610
31628WAT      O95125   9.723   5.889   5.569
31628WAT     H195126   9.726   5.836   5.655
31628WAT     H295127   9.816   5.910   5.540
31629WAT      O95128   9.070   0.817   4.177
31629WAT     H195129   9.107   0.812   4.084
31629WAT     H295130   9.058   0.724   4.213
31630WAT      O95131   2.787   0.314   2.285
31630WAT     H195132   2.732   0.260   2.348
31630WAT     H295133   2.744   0.315   2.195
31631WAT      O95134   4.499   0.305   8.534
31631WAT     H195135   4.457   0.340   8.617
31631WAT     H295136   4.431   0.257   8.479
31632WAT      O95137   2.840   7.279   8.758
31632WAT     H195138   2.823   7.193   8.806
31632WAT     H295139   2.902   7.264   8.682
31633WAT      O95140   3.984   0.748   5.825
31633WAT     H195141   4.049   0.783   5.758
31633WAT     H295142   3.935   0.670   5.786
31634WAT      O95143   8.061   9.588   6.849
31634WAT     H195144   8.150   9.550   6.825
31634WAT     H295145   8.063   9.688   6.839
31635WAT      O95146   1.057   6.618   9.255
31635WAT     H195147   1.093   6.543   9.311
31635WAT     H295148   1.045   6.699   9.312
31636WAT      O95149   0.760   8.404   3.038
31636WAT     H195150   0.789   8.356   2.956
31636WAT     H295151   0.745   8.338   3.112
31637WAT      O95152   2.421   1.472   5.317
31637WAT     H195153   2.485   1.450   5.391
31637WAT     H295154   2.439   1.565   5.285
31638WAT      O95155   0.661   2.960   0.220
31638WAT     H195156   0.598   3.033   0.246
31638WAT     H295157   0.745   2.967   0.275
31639WAT      O95158   6.363   1.386   1.964
31639WAT     H195159   6.429   1.357   1.895
31639WAT     H295160   6.324   1.306   2.008
31640WAT      O95161   2.948   8.292   4.123
31640WAT     H195162   2.926   8.302   4.220
31640WAT     H295163   3.010   8.366   4.096
31641WAT      O95164   2.876   0.113   5.210
31641WAT     H195165   2.935   0.041   5.174
31641WAT     H295166   2.913   0.202   5.182
31642WAT      O95167   2.180   1.225   8.808
31642WAT     H195168   2.108   1.188   8.866
31642WAT     H295169   2.152   1.314   8.771
31643WAT      O95170   6.400   2.157   0.106
31643WAT     H195171   6.446   2.069   0.090
31643WAT     H295172   6.439   2.226   0.045
31644WAT      O95173   8.142   7.226   4.235
31644WAT     H195174   8.084   7.211   4.315
31644WAT     H295175   8.237   7.235   4.264
31645WAT      O95176   0.181   0.042   9.251
31645WAT     H195177   0.268   0.079   9.284
31645WAT     H295178   0.145  -0.023   9.317
31646WAT      O95179   7.589   4.813   7.058
31646WAT     H195180   7.568   4.841   7.152
31646WAT     H295181   7.632   4.890   7.009
31647WAT      O95182   1.869   2.865   3.009
31647WAT     H195183   1.783   2.916   3.016
31647WAT     H295184   1.884   2.813   3.093
31648WAT      O95185   5.928   0.263   0.303
31648WAT     H195186   5.981   0.205   0.365
31648WAT     H295187   5.978   0.348   0.286
31649WAT      O95188   9.295   4.905   4.538
31649WAT     H195189   9.298   4.835   4.467
31649WAT     H295190   9.292   4.996   4.495
31650WAT      O95191   6.947   2.727   8.572
31650WAT     H195192   6.976   2.707   8.478
31650WAT     H295193   6.859   2.775   8.570
31651WAT      O95194   0.016   4.813   1.683
31651WAT     H195195  -0.008   4.876   1.757
31651WAT     H295196  -0.056   4.816   1.613
31652WAT      O95197   1.633   6.453   2.096
31652WAT     H195198   1.656   6.528   2.034
31652WAT     H295199   1.716   6.401   2.117
31653WAT      O95200   0.363   6.127   9.063
31653WAT     H195201   0.320   6.196   9.005
31653WAT     H295202   0.293   6.075   9.111
31654WAT      O95203   1.291   3.856   3.288
31654WAT     H195204   1.219   3.922   3.311
31654WAT     H295205   1.250   3.775   3.246
31655WAT      O95206   4.407   8.787   1.021
31655WAT     H195207   4.445   8.744   0.939
31655WAT     H295208   4.430   8.731   1.101
31656WAT      O95209   7.464   4.642   0.721
31656WAT     H195210   7.433   4.625   0.628
31656WAT     H295211   7.552   4.690   0.718
31657WAT      O95212   5.738   5.457   3.520
31657WAT     H195213   5.751   5.478   3.616
31657WAT     H295214   5.764   5.362   3.502
31658WAT      O95215   1.332   5.456   7.404
31658WAT     H195216   1.395   5.388   7.442
31658WAT     H295217   1.242   5.416   7.394
31659WAT      O95218   3.267   3.958   0.338
31659WAT     H195219   3.338   3.889   0.352
31659WAT     H295220   3.263   4.017   0.418
31660WAT      O95221   2.859   7.576   8.606
31660WAT     H195222   2.824   7.512   8.538
31660WAT     H295223   2.785   7.601   8.669
31661WAT      O95224   9.598   7.590   5.470
31661WAT     H195225   9.671   7.522   5.475
31661WAT     H295226   9.617   7.654   5.395
31662WAT      O95227   0.165   4.878   2.029
31662WAT     H195228   0.192   4.857   2.123
31662WAT     H295229   0.191   4.802   1.969
31663WAT      O95230   4.216   5.637   8.813
31663WAT     H195231   4.180   5.713   8.758
31663WAT     H295232   4.251   5.565   8.752
31664WAT      O95233   0.605   4.654   9.681
31664WAT     H195234   0.544   4.575   9.684
31664WAT     H295235   0.631   4.680   9.775
31665WAT      O95236   3.575   5.590   0.185
31665WAT     H195237   3.626   5.634   0.258
31665WAT     H295238   3.502   5.650   0.153
31666WAT      O95239   6.628   1.192   9.381
31666WAT     H195240   6.615   1.202   9.479
31666WAT     H295241   6.566   1.254   9.332
31667WAT      O95242   5.013   3.652   9.871
31667WAT     H195243   4.964   3.726   9.827
31667WAT     H295244   5.088   3.621   9.811
31668WAT      O95245   1.147   8.508   8.914
31668WAT     H195246   1.091   8.466   8.985
31668WAT     H295247   1.110   8.486   8.824
31669WAT      O95248   7.926   4.586   2.045
31669WAT     H195249   7.929   4.662   2.110
31669WAT     H295250   7.995   4.601   1.974
31670WAT      O95251   8.777   6.569   3.167
31670WAT     H195252   8.738   6.619   3.090
31670WAT     H295253   8.703   6.521   3.216
31671WAT      O95254   6.285   9.350   8.056
31671WAT     H195255   6.235   9.379   7.975
31671WAT     H295256   6.371   9.401   8.062
31672WAT      O95257   7.859   3.643   8.189
31672WAT     H195258   7.854   3.705   8.267
31672WAT     H295259   7.859   3.548   8.223
31673WAT      O95260   3.957   0.721   7.088
31673WAT     H195261   3.950   0.675   6.999
31673WAT     H295262   4.008   0.663   7.151
31674WAT      O95263   0.015   4.115   8.961
31674WAT     H195264   0.033   4.095   9.058
31674WAT     H295265  -0.003   4.029   8.913
31675WAT      O95266   3.898   4.611   0.569
31675WAT     H195267   3.826   4.618   0.499
31675WAT     H295268   3.931   4.702   0.593
31676WAT      O95269   6.701   1.175   5.691
31676WAT     H195270   6.601   1.167   5.692
31676WAT     H295271   6.741   1.094   5.732
31677WAT      O95272   2.015   7.700   8.524
31677WAT     H195273   2.087   7.734   8.584
31677WAT     H295274   1.937   7.763   8.525
31678WAT      O95275   3.354   6.613   6.904
31678WAT     H195276   3.358   6.539   6.837
31678WAT     H295277   3.290   6.589   6.976
31679WAT      O95278   4.595   7.714   9.456
31679WAT     H195279   4.566   7.753   9.544
31679WAT     H295280   4.664   7.774   9.415
31680WAT      O95281   3.582   5.404   4.602
31680WAT     H195282   3.638   5.321   4.601
31680WAT     H295283   3.500   5.390   4.547
31681WAT      O95284   3.106   6.301   8.624
31681WAT     H195285   3.159   6.221   8.594
31681WAT     H295286   3.120   6.315   8.722
31682WAT      O95287   6.216   0.627   3.445
31682WAT     H195288   6.181   0.541   3.407
31682WAT     H295289   6.294   0.658   3.391
31683WAT      O95290   4.845   1.984   8.565
31683WAT     H195291   4.813   1.916   8.499
31683WAT     H295292   4.801   1.968   8.654
31684WAT      O95293   8.215   7.579   2.414
31684WAT     H195294   8.159   7.652   2.452
31684WAT     H295295   8.225   7.591   2.315
31685WAT      O95296   9.760   7.055   2.525
31685WAT     H195297   9.720   7.011   2.606
31685WAT     H295298   9.691   7.064   2.454
31686WAT      O95299   9.369   4.986   4.866
31686WAT     H195300   9.379   4.983   4.767
31686WAT     H295301   9.459   4.993   4.909
31687WAT      O95302   2.335   5.088   5.973
31687WAT     H195303   2.308   5.170   5.923
31687WAT     H295304   2.402   5.112   6.044
31688WAT      O95305   5.040   2.250   8.718
31688WAT     H195306   5.081   2.326   8.769
31688WAT     H295307   5.097   2.169   8.728
31689WAT      O95308   4.178   8.667   8.724
31689WAT     H195309   4.096   8.666   8.668
31689WAT     H295310   4.255   8.631   8.672
31690WAT      O95311   8.989   4.314   4.570
31690WAT     H195312   9.043   4.395   4.548
31690WAT     H295313   9.003   4.290   4.666
31691WAT      O95314   0.984   6.878   8.918
31691WAT     H195315   0.910   6.812   8.905
31691WAT     H295316   1.053   6.840   8.980
31692WAT      O95317   2.782   4.185   4.752
31692WAT     H195318   2.706   4.126   4.779
31692WAT     H295319   2.847   4.193   4.828
31693WAT      O95320   4.976   2.813   8.340
31693WAT     H195321   4.939   2.872   8.412
31693WAT     H295322   4.915   2.734   8.328
31694WAT      O95323   9.771   9.219   4.505
31694WAT     H195324   9.818   9.209   4.417
31694WAT     H295325   9.821   9.285   4.561
31695WAT      O95326   8.341   8.350   0.950
31695WAT     H195327   8.277   8.277   0.925
31695WAT     H295328   8.312   8.435   0.908
31696WAT      O95329   8.032   2.485   3.395
31696WAT     H195330   8.124   2.461   3.424
31696WAT     H295331   8.038   2.557   3.325
31697WAT      O95332   6.506   4.495   9.563
31697WAT     H195333   6.591   4.467   9.518
31697WAT     H295334   6.514   4.480   9.662
31698WAT      O95335   9.032   4.176   7.533
31698WAT     H195336   9.000   4.099   7.478
31698WAT     H295337   8.954   4.234   7.557
31699WAT      O95338   2.204   0.266   6.968
31699WAT     H195339   2.242   0.296   6.880
31699WAT     H295340   2.200   0.343   7.031
31700WAT      O95341   9.501   2.329   5.589
31700WAT     H195342   9.486   2.394   5.664
31700WAT     H295343   9.483   2.375   5.502
31701WAT      O95344   2.651   4.940   9.192
31701WAT     H195345   2.557   4.914   9.214
31701WAT     H295346   2.670   5.031   9.231
31702WAT      O95347   3.451   0.351   2.929
31702WAT     H195348   3.513   0.386   2.859
31702WAT     H295349   3.487   0.373   3.019
31703WAT      O95350   0.679   7.722   0.847
31703WAT     H195351   0.669   7.623   0.842
31703WAT     H295352   0.602   7.761   0.897
31704WAT      O95353   2.997   7.150   7.811
31704WAT     H195354   3.003   7.061   7.765
31704WAT     H295355   2.975   7.221   7.745
31705WAT      O95356   7.946   7.488   2.489
31705WAT     H195357   7.992   7.577   2.493
31705WAT     H295358   7.899   7.471   2.576
31706WAT      O95359   4.581   6.002   7.125
31706WAT     H195360   4.506   5.942   7.153
31706WAT     H295361   4.550   6.059   7.048
31707WAT      O95362   5.929   2.837   8.872
31707WAT     H195363   5.837   2.873   8.880
31707WAT     H295364   5.979   2.852   8.957
31708WAT      O95365   7.390   6.777   9.336
31708WAT     H195366   7.464   6.823   9.287
31708WAT     H295367   7.308   6.774   9.279
31709WAT      O95368   0.104   4.029   1.332
31709WAT     H195369   0.159   3.947   1.323
31709WAT     H295370   0.151   4.095   1.391
31710WAT      O95371   4.361   3.477   4.722
31710WAT     H195372   4.344   3.574   4.705
31710WAT     H295373   4.426   3.442   4.655
31711WAT      O95374   0.112   0.699   6.649
31711WAT     H195375   0.173   0.700   6.570
31711WAT     H295376   0.164   0.671   6.730
31712WAT      O95377   1.199   6.446   9.050
31712WAT     H195378   1.174   6.472   8.957
31712WAT     H295379   1.140   6.494   9.115
31713WAT      O95380   6.298   0.657   9.767
31713WAT     H195381   6.277   0.594   9.692
31713WAT     H295382   6.393   0.646   9.794
31714WAT      O95383   1.398   1.196   0.118
31714WAT     H195384   1.324   1.145   0.160
31714WAT     H295385   1.361   1.278   0.074
31715WAT      O95386   8.890   9.728   4.635
31715WAT     H195387   8.849   9.813   4.669
31715WAT     H295388   8.913   9.669   4.712
31716WAT      O95389   8.152   1.849   8.547
31716WAT     H195390   8.098   1.918   8.500
31716WAT     H295391   8.189   1.784   8.481
31717WAT      O95392   6.762   9.379   9.477
31717WAT     H195393   6.833   9.449   9.478
31717WAT     H295394   6.739   9.355   9.572
31718WAT      O95395   6.690   5.690   9.615
31718WAT     H195396   6.752   5.612   9.607
31718WAT     H295397   6.676   5.712   9.711
31719WAT      O95398   6.948   9.475   6.446
31719WAT     H195399   6.975   9.476   6.542
31719WAT     H295400   7.029   9.472   6.388
31720WAT      O95401   4.869   2.448   1.363
31720WAT     H195402   4.853   2.364   1.311
31720WAT     H295403   4.785   2.474   1.411
31721WAT      O95404   7.410   0.377   8.868
31721WAT     H195405   7.409   0.295   8.811
31721WAT     H295406   7.452   0.354   8.957
31722WAT      O95407   4.050   9.048   2.158
31722WAT     H195408   4.130   9.106   2.172
31722WAT     H295409   4.060   8.964   2.210
31723WAT      O95410   7.497   3.500   8.778
31723WAT     H195411   7.406   3.462   8.765
31723WAT     H295412   7.524   3.490   8.874
31724WAT      O95413   4.851   2.097   1.495
31724WAT     H195414   4.870   2.169   1.561
31724WAT     H295415   4.914   2.021   1.509
31725WAT      O95416   1.325   2.449   5.509
31725WAT     H195417   1.330   2.360   5.555
31725WAT     H295418   1.411   2.498   5.522
31726WAT      O95419   5.498   0.697   3.269
31726WAT     H195420   5.430   0.750   3.320
31726WAT     H295421   5.587   0.705   3.315
31727WAT      O95422   7.627   4.231   7.344
31727WAT     H195423   7.723   4.209   7.360
31727WAT     H295424   7.620   4.319   7.296
31728WAT      O95425   2.537   1.141   6.136
31728WAT     H195426   2.627   1.131   6.094
31728WAT     H295427   2.537   1.095   6.225
31729WAT      O95428   6.799   0.746   2.328
31729WAT     H195429   6.848   0.692   2.260
31729WAT     H295430   6.844   0.736   2.417
31730WAT      O95431   5.261   5.292   6.876
31730WAT     H195432   5.197   5.266   6.948
31730WAT     H295433   5.234   5.381   6.838
31731WAT      O95434   6.563   6.978   2.911
31731WAT     H195435   6.505   7.017   2.839
31731WAT     H295436   6.625   7.049   2.945
31732WAT      O95437   1.917   9.558   8.512
31732WAT     H195438   1.878   9.498   8.443
31732WAT     H295439   1.982   9.621   8.469
31733WAT      O95440   4.921   5.073   9.160
31733WAT     H195441   4.892   5.090   9.066
31733WAT     H295442   4.996   5.008   9.161
31734WAT      O95443   1.167   7.628   5.551
31734WAT     H195444   1.252   7.591   5.513
31734WAT     H295445   1.162   7.726   5.532
31735WAT      O95446   5.970   3.818   5.193
31735WAT     H195447   5.898   3.756   5.221
31735WAT     H295448   5.954   3.848   5.099
31736WAT      O95449   4.164   8.876   4.151
31736WAT     H195450   4.074   8.841   4.124
31736WAT     H295451   4.233   8.807   4.131
31737WAT      O95452   4.805   0.038   1.885
31737WAT     H195453   4.731   0.097   1.917
31737WAT     H295454   4.776  -0.008   1.801
31738WAT      O95455   8.820   3.737   5.048
31738WAT     H195456   8.789   3.683   5.126
31738WAT     H295457   8.742   3.784   5.007
31739WAT      O95458   2.678   5.682   2.229
31739WAT     H195459   2.638   5.773   2.224
31739WAT     H295460   2.709   5.654   2.138
31740WAT      O95461   8.301   0.081   3.697
31740WAT     H195462   8.281  -0.006   3.742
31740WAT     H295463   8.303   0.155   3.765
31741WAT      O95464   2.659   2.396   1.153
31741WAT     H195465   2.695   2.430   1.240
31741WAT     H295466   2.563   2.371   1.163
31742WAT      O95467   6.245   0.024   1.289
31742WAT     H195468   6.189   0.091   1.337
31742WAT     H295469   6.245  -0.062   1.341
31743WAT      O95470   5.417   9.571   9.161
31743WAT     H195471   5.406   9.599   9.066
31743WAT     H295472   5.505   9.604   9.196
31744WAT      O95473   7.203   2.669   5.392
31744WAT     H195474   7.267   2.621   5.332
31744WAT     H295475   7.200   2.766   5.366
31745WAT      O95476   2.416   0.205   6.677
31745WAT     H195477   2.428   0.109   6.653
31745WAT     H295478   2.322   0.233   6.659
31746WAT      O95479   9.396   1.184   3.674
31746WAT     H195480   9.369   1.272   3.714
31746WAT     H295481   9.343   1.167   3.590
31747WAT      O95482   3.339   7.343   0.760
31747WAT     H195483   3.369   7.259   0.714
31747WAT     H295484   3.250   7.328   0.802
31748WAT      O95485   7.150   6.914   4.213
31748WAT     H195486   7.159   6.821   4.178
31748WAT     H295487   7.229   6.935   4.271
31749WAT      O95488   3.142   8.248   9.759
31749WAT     H195489   3.207   8.193   9.812
31749WAT     H295490   3.189   8.288   9.681
31750WAT      O95491   5.602   1.799   7.299
31750WAT     H195492   5.624   1.736   7.374
31750WAT     H295493   5.510   1.836   7.312
31751WAT      O95494   7.227   0.425   0.705
31751WAT     H195495   7.276   0.413   0.619
31751WAT     H295496   7.159   0.352   0.716
31752WAT      O95497   6.331   2.685   5.694
31752WAT     H195498   6.345   2.734   5.780
31752WAT     H295499   6.399   2.716   5.627
31753WAT      O95500   6.749   5.790   2.702
31753WAT     H195501   6.671   5.729   2.690
31753WAT     H295502   6.717   5.878   2.738
31754WAT      O95503   9.122   6.274   6.564
31754WAT     H195504   9.151   6.247   6.656
31754WAT     H295505   9.072   6.198   6.521
31755WAT      O95506   3.219   7.775   4.444
31755WAT     H195507   3.167   7.854   4.476
31755WAT     H295508   3.276   7.802   4.366
31756WAT      O95509   4.500   0.784   6.790
31756WAT     H195510   4.493   0.842   6.872
31756WAT     H295511   4.420   0.724   6.785
31757WAT      O95512   0.066   5.791   8.923
31757WAT     H195513  -0.002   5.747   8.983
31757WAT     H295514   0.152   5.741   8.928
31758WAT      O95515   6.387   6.567   7.536
31758WAT     H195516   6.364   6.584   7.440
31758WAT     H295517   6.480   6.531   7.543
31759WAT      O95518   6.519   4.192   7.326
31759WAT     H195519   6.510   4.271   7.265
31759WAT     H295520   6.607   4.148   7.311
31760WAT      O95521   1.837   4.335   6.068
31760WAT     H195522   1.921   4.294   6.102
31760WAT     H295523   1.842   4.434   6.078
31761WAT      O95524   0.216   1.916   3.608
31761WAT     H195525   0.159   1.995   3.590
31761WAT     H295526   0.269   1.931   3.692
31762WAT      O95527   2.992   7.880   3.005
31762WAT     H195528   3.087   7.893   2.976
31762WAT     H295529   2.983   7.794   3.055
31763WAT      O95530   7.152   2.006   4.447
31763WAT     H195531   7.127   2.066   4.523
31763WAT     H295532   7.142   2.056   4.360
31764WAT      O95533   0.618   4.931   1.817
31764WAT     H195534   0.554   5.007   1.828
31764WAT     H295535   0.665   4.913   1.904
31765WAT      O95536   2.410   2.196   0.708
31765WAT     H195537   2.392   2.201   0.610
31765WAT     H295538   2.440   2.285   0.741
31766WAT      O95539   3.260   7.903   3.011
31766WAT     H195540   3.246   8.000   3.034
31766WAT     H295541   3.328   7.896   2.938
31767WAT      O95542   6.141   7.277   7.607
31767WAT     H195543   6.042   7.271   7.622
31767WAT     H295544   6.173   7.370   7.625
31768WAT      O95545   7.754   1.515   4.182
31768WAT     H195546   7.748   1.479   4.089
31768WAT     H295547   7.662   1.525   4.219
31769WAT      O95548   0.559   2.143   0.452
31769WAT     H195549   0.510   2.131   0.366
31769WAT     H295550   0.498   2.183   0.521
31770WAT      O95551   7.822   0.101   0.844
31770WAT     H195552   7.849   0.049   0.925
31770WAT     H295553   7.873   0.067   0.764
31771WAT      O95554   3.917   7.716   0.770
31771WAT     H195555   3.930   7.625   0.810
31771WAT     H295556   3.882   7.779   0.840
31772WAT      O95557   4.676   1.150   2.206
31772WAT     H195558   4.664   1.139   2.107
31772WAT     H295559   4.708   1.243   2.226
31773WAT      O95560   9.886   1.992   4.789
31773WAT     H195561   9.910   1.921   4.723
31773WAT     H295562   9.885   2.081   4.744
31774WAT      O95563   9.091   2.732   4.793
31774WAT     H195564   9.104   2.827   4.823
31774WAT     H295565   9.056   2.678   4.869
31775WAT      O95566   4.716   1.345   2.965
31775WAT     H195567   4.651   1.363   2.892
31775WAT     H295568   4.754   1.253   2.954
31776WAT      O95569   0.484   9.832   6.938
31776WAT     H195570   0.545   9.870   7.008
31776WAT     H295571   0.431   9.757   6.977
31777WAT      O95572   0.063   5.574   8.105
31777WAT     H195573   0.081   5.483   8.144
31777WAT     H295574   0.149   5.624   8.098
31778WAT      O95575   2.739   2.260   3.039
31778WAT     H195576   2.702   2.351   3.022
31778WAT     H295577   2.801   2.235   2.965
31779WAT      O95578   4.921   9.181   9.435
31779WAT     H195579   4.940   9.176   9.337
31779WAT     H295580   4.990   9.128   9.485
31780WAT      O95581   9.569   3.253   0.640
31780WAT     H195582   9.628   3.258   0.721
31780WAT     H295583   9.624   3.269   0.558
31781WAT      O95584   4.334   9.784   2.533
31781WAT     H195585   4.418   9.735   2.515
31781WAT     H295586   4.263   9.753   2.470
31782WAT      O95587   7.927   2.380   5.727
31782WAT     H195588   7.862   2.389   5.802
31782WAT     H295589   7.898   2.437   5.650
31783WAT      O95590   8.936   4.886   3.982
31783WAT     H195591   8.881   4.955   4.028
31783WAT     H295592   8.977   4.925   3.899
31784WAT      O95593   8.825   6.919   4.390
31784WAT     H195594   8.901   6.928   4.326
31784WAT     H295595   8.858   6.874   4.473
31785WAT      O95596   6.941   0.999   5.398
31785WAT     H195597   7.014   0.955   5.347
31785WAT     H295598   6.947   0.973   5.495
31786WAT      O95599   8.956   4.965   7.207
31786WAT     H195600   8.888   4.937   7.275
31786WAT     H295601   9.046   4.970   7.250
31787WAT      O95602   6.861   5.113   7.479
31787WAT     H195603   6.939   5.136   7.421
31787WAT     H295604   6.852   5.014   7.484
31788WAT      O95605   0.078   0.386   7.715
31788WAT     H195606   0.015   0.407   7.640
31788WAT     H295607   0.107   0.470   7.760
31789WAT      O95608   5.896   0.570   6.625
31789WAT     H195609   5.958   0.645   6.651
31789WAT     H295610   5.923   0.487   6.673
31790WAT      O95611   5.706   8.310   4.262
31790WAT     H195612   5.748   8.227   4.299
31790WAT     H295613   5.611   8.291   4.236
31791WAT      O95614   4.698   5.515   7.096
31791WAT     H195615   4.674   5.486   7.003
31791WAT     H295616   4.621   5.565   7.136
31792WAT      O95617   4.546   6.371   9.430
31792WAT     H195618   4.619   6.338   9.370
31792WAT     H295619   4.515   6.297   9.489
31793WAT      O95620   9.205   0.846   1.668
31793WAT     H195621   9.196   0.755   1.627
31793WAT     H295622   9.186   0.915   1.598
31794WAT      O95623   9.431   1.762   2.635
31794WAT     H195624   9.448   1.860   2.640
31794WAT     H295625   9.333   1.745   2.646
31795WAT      O95626   8.588   5.169   5.288
31795WAT     H195627   8.653   5.094   5.274
31795WAT     H295628   8.532   5.151   5.369
31796WAT      O95629   9.436   8.050   5.165
31796WAT     H195630   9.379   8.001   5.231
31796WAT     H295631   9.532   8.048   5.196
31797WAT      O95632   7.910   8.890   2.078
31797WAT     H195633   7.970   8.963   2.110
31797WAT     H295634   7.958   8.802   2.084
31798WAT      O95635   0.059   7.480   6.411
31798WAT     H195636   0.029   7.569   6.446
31798WAT     H295637  -0.021   7.423   6.394
31799WAT      O95638   3.984   3.118   3.779
31799WAT     H195639   4.054   3.053   3.807
31799WAT     H295640   4.027   3.205   3.756
31800WAT      O95641   8.870   8.367   5.864
31800WAT     H195642   8.871   8.357   5.764
31800WAT     H295643   8.947   8.317   5.903
31801WAT      O95644   7.226   2.554   2.181
31801WAT     H195645   7.280   2.478   2.145
31801WAT     H295646   7.189   2.529   2.271
31802WAT      O95647   8.341   7.681   9.665
31802WAT     H195648   8.370   7.634   9.581
31802WAT     H295649   8.391   7.768   9.673
31803WAT      O95650   2.617   1.425   9.195
31803WAT     H195651   2.655   1.429   9.103
31803WAT     H295652   2.616   1.330   9.227
31804WAT      O95653   8.295   4.248   6.299
31804WAT     H195654   8.290   4.340   6.260
31804WAT     H295655   8.248   4.247   6.388
31805WAT      O95656   6.458   6.112   6.142
31805WAT     H195657   6.450   6.212   6.145
31805WAT     H295658   6.373   6.073   6.106
31806WAT      O95659   5.688   6.788   9.655
31806WAT     H195660   5.752   6.839   9.713
31806WAT     H295661   5.739   6.724   9.597
31807WAT      O95662   8.121   8.694   0.210
31807WAT     H195663   8.211   8.733   0.193
31807WAT     H295664   8.056   8.730   0.143
31808WAT      O95665   7.774   4.281   9.086
31808WAT     H195666   7.869   4.313   9.077
31808WAT     H295667   7.750   4.226   9.006
31809WAT      O95668   1.558   1.410   7.133
31809WAT     H195669   1.577   1.501   7.170
31809WAT     H295670   1.643   1.357   7.133
31810WAT      O95671   8.814   0.793   5.421
31810WAT     H195672   8.825   0.776   5.323
31810WAT     H295673   8.904   0.795   5.464
31811WAT      O95674   6.988   2.926   2.577
31811WAT     H195675   7.037   2.897   2.496
31811WAT     H295676   6.975   3.026   2.575
31812WAT      O95677   6.511   6.955   7.020
31812WAT     H195678   6.603   6.917   7.016
31812WAT     H295679   6.483   6.966   7.115
31813WAT      O95680   2.431   3.670   8.120
31813WAT     H195681   2.516   3.713   8.089
31813WAT     H295682   2.370   3.657   8.042
31814WAT      O95683   1.179   9.291   2.829
31814WAT     H195684   1.128   9.323   2.909
31814WAT     H295685   1.154   9.196   2.810
31815WAT      O95686   6.723   2.133   0.283
31815WAT     H195687   6.739   2.037   0.259
31815WAT     H295688   6.649   2.139   0.350
31816WAT      O95689   2.823   7.714   7.162
31816WAT     H195690   2.917   7.732   7.134
31816WAT     H295691   2.822   7.684   7.258
31817WAT      O95692   2.323   2.598   4.644
31817WAT     H195693   2.241   2.539   4.643
31817WAT     H295694   2.331   2.645   4.556
31818WAT      O95695   6.773   2.500   9.381
31818WAT     H195696   6.773   2.523   9.479
31818WAT     H295697   6.842   2.431   9.364
31819WAT      O95698   5.316   4.670   0.078
31819WAT     H195699   5.234   4.638   0.126
31819WAT     H295700   5.385   4.598   0.079
31820WAT      O95701   6.257   6.495   8.142
31820WAT     H195702   6.223   6.479   8.049
31820WAT     H295703   6.205   6.438   8.206
31821WAT      O95704   3.264   5.364   4.740
31821WAT     H195705   3.294   5.458   4.727
31821WAT     H295706   3.310   5.304   4.675
31822WAT      O95707   1.159   3.164   1.482
31822WAT     H195708   1.251   3.126   1.478
31822WAT     H295709   1.145   3.225   1.404
31823WAT      O95710   4.030   6.479   1.427
31823WAT     H195711   3.981   6.408   1.478
31823WAT     H295712   4.126   6.481   1.457
31824WAT      O95713   3.438   3.678   0.974
31824WAT     H195714   3.429   3.740   0.896
31824WAT     H295715   3.393   3.717   1.054
31825WAT      O95716   8.404   9.450   4.010
31825WAT     H195717   8.359   9.401   3.936
31825WAT     H295718   8.421   9.545   3.982
31826WAT      O95719   8.362   8.435   0.560
31826WAT     H195720   8.373   8.370   0.634
31826WAT     H295721   8.381   8.390   0.473
31827WAT      O95722   2.578   7.301   3.494
31827WAT     H195723   2.668   7.339   3.473
31827WAT     H295724   2.582   7.201   3.484
31828WAT      O95725   3.192   7.021   8.784
31828WAT     H195726   3.168   6.990   8.692
31828WAT     H295727   3.127   7.091   8.813
31829WAT      O95728   6.760   6.748   6.064
31829WAT     H195729   6.760   6.649   6.077
31829WAT     H295730   6.842   6.787   6.107
31830WAT      O95731   7.573   9.128   5.520
31830WAT     H195732   7.490   9.124   5.576
31830WAT     H295733   7.644   9.071   5.562
31831WAT      O95734   7.241   3.825   8.484
31831WAT     H195735   7.332   3.866   8.475
31831WAT     H295736   7.172   3.897   8.485
31832WAT      O95737   3.317   7.168   3.228
31832WAT     H195738   3.269   7.082   3.244
31832WAT     H295739   3.336   7.212   3.316
31833WAT      O95740   2.714   4.813   8.151
31833WAT     H195741   2.761   4.869   8.083
31833WAT     H295742   2.771   4.806   8.233
31834WAT      O95743   7.033   1.432   6.699
31834WAT     H195744   7.102   1.501   6.724
31834WAT     H295745   7.064   1.382   6.618
31835WAT      O95746   9.832   4.080   9.305
31835WAT     H195747   9.746   4.129   9.289
31835WAT     H295748   9.899   4.143   9.346
31836WAT      O95749   6.372   3.815   1.208
31836WAT     H195750   6.470   3.809   1.189
31836WAT     H295751   6.338   3.726   1.237
31837WAT      O95752   2.760   4.748   5.371
31837WAT     H195753   2.796   4.841   5.380
31837WAT     H295754   2.674   4.741   5.421
31838WAT      O95755   7.920   1.363   4.537
31838WAT     H195756   7.920   1.365   4.437
31838WAT     H295757   7.999   1.309   4.568
31839WAT      O95758   1.569   4.178   6.155
31839WAT     H195759   1.557   4.099   6.095
31839WAT     H295760   1.641   4.237   6.118
31840WAT      O95761   5.453   6.446   8.228
31840WAT     H195762   5.354   6.457   8.220
31840WAT     H295763   5.497   6.535   8.214
31841WAT      O95764   7.500   5.631   5.990
31841WAT     H195765   7.552   5.717   5.996
31841WAT     H295766   7.403   5.650   6.006
31842WAT      O95767   1.620   7.420   4.956
31842WAT     H195768   1.601   7.482   4.880
31842WAT     H295769   1.691   7.459   5.014
31843WAT      O95770   6.038   2.537   3.335
31843WAT     H195771   5.978   2.457   3.344
31843WAT     H295772   6.121   2.510   3.286
31844WAT      O95773   7.920   7.836   9.783
31844WAT     H195774   7.971   7.921   9.768
31844WAT     H295775   7.973   7.759   9.747
31845WAT      O95776   7.140   7.536   2.248
31845WAT     H195777   7.233   7.522   2.214
31845WAT     H295778   7.107   7.453   2.293
31846WAT      O95779   6.497   5.882   7.812
31846WAT     H195780   6.409   5.886   7.860
31846WAT     H295781   6.570   5.903   7.876
31847WAT      O95782   2.944   8.656   9.653
31847WAT     H195783   2.928   8.558   9.637
31847WAT     H295784   3.032   8.668   9.700
31848WAT      O95785   7.782   5.449   1.336
31848WAT     H195786   7.749   5.513   1.267
31848WAT     H295787   7.705   5.418   1.392
31849WAT      O95788   1.240   1.158   8.461
31849WAT     H195789   1.153   1.205   8.472
31849WAT     H295790   1.284   1.146   8.550
31850WAT      O95791   2.561   9.755   1.789
31850WAT     H195792   2.623   9.812   1.733
31850WAT     H295793   2.502   9.702   1.729
31851WAT      O95794   8.462   1.532   6.969
31851WAT     H195795   8.515   1.559   6.889
31851WAT     H295796   8.422   1.613   7.012
31852WAT      O95797   5.756   3.541   4.642
31852WAT     H195798   5.828   3.483   4.605
31852WAT     H295799   5.784   3.637   4.635
31853WAT      O95800   3.387   4.453   2.506
31853WAT     H195801   3.421   4.542   2.533
31853WAT     H295802   3.326   4.463   2.427
31854WAT      O95803   4.149   6.607   0.960
31854WAT     H195804   4.081   6.598   0.887
31854WAT     H295805   4.158   6.519   1.008
31855WAT      O95806   3.966   1.376   0.934
31855WAT     H195807   3.986   1.391   1.031
31855WAT     H295808   3.982   1.460   0.883
31856WAT      O95809   8.692   0.180   6.361
31856WAT     H195810   8.641   0.100   6.329
31856WAT     H295811   8.723   0.233   6.283
31857WAT      O95812   1.285   7.400   1.575
31857WAT     H195813   1.364   7.339   1.585
31857WAT     H295814   1.206   7.361   1.623
31858WAT      O95815   6.792   8.062   8.125
31858WAT     H195816   6.808   8.106   8.036
31858WAT     H295817   6.869   8.003   8.147
31859WAT      O95818   0.914   5.591   8.417
31859WAT     H195819   0.850   5.519   8.443
31859WAT     H295820   0.960   5.625   8.498
31860WAT      O95821   3.142   3.014   9.359
31860WAT     H195822   3.189   3.003   9.271
31860WAT     H295823   3.106   3.107   9.366
31861WAT      O95824   3.840   5.718   4.341
31861WAT     H195825   3.908   5.645   4.345
31861WAT     H295826   3.757   5.690   4.388
31862WAT      O95827   7.452   8.630   7.393
31862WAT     H195828   7.518   8.611   7.467
31862WAT     H295829   7.492   8.696   7.330
31863WAT      O95830   2.755   0.255   1.129
31863WAT     H195831   2.770   0.233   1.225
31863WAT     H295832   2.835   0.303   1.093
31864WAT      O95833   9.452   2.093   5.373
31864WAT     H195834   9.374   2.032   5.383
31864WAT     H295835   9.450   2.162   5.446
31865WAT      O95836   7.392   2.422   5.442
31865WAT     H195837   7.363   2.425   5.346
31865WAT     H295838   7.361   2.505   5.489
31866WAT      O95839   8.217   6.441   6.223
31866WAT     H195840   8.292   6.461   6.159
31866WAT     H295841   8.144   6.394   6.174
31867WAT      O95842   7.543   1.130   5.864
31867WAT     H195843   7.528   1.084   5.952
31867WAT     H295844   7.609   1.078   5.810
31868WAT      O95845   5.894   9.363   5.410
31868WAT     H195846   5.922   9.355   5.505
31868WAT     H295847   5.809   9.313   5.395
31869WAT      O95848   6.020   4.396   5.212
31869WAT     H195849   5.932   4.351   5.227
31869WAT     H295850   6.006   4.494   5.195
31870WAT      O95851   6.183   3.960   2.216
31870WAT     H195852   6.158   3.930   2.124
31870WAT     H295853   6.273   4.004   2.213
31871WAT      O95854   6.901   9.304   0.534
31871WAT     H195855   6.836   9.360   0.584
31871WAT     H295856   6.917   9.219   0.584
31872WAT      O95857   3.359   8.145   4.001
31872WAT     H195858   3.352   8.172   3.905
31872WAT     H295859   3.452   8.115   4.020
31873WAT      O95860   7.572   9.308   3.209
31873WAT     H195861   7.654   9.252   3.219
31873WAT     H295862   7.590   9.400   3.243
31874WAT      O95863   5.862   8.489   6.778
31874WAT     H195864   5.946   8.456   6.734
31874WAT     H295865   5.862   8.462   6.874
31875WAT      O95866   2.110   7.368   6.553
31875WAT     H195867   2.136   7.402   6.643
31875WAT     H295868   2.026   7.315   6.560
31876WAT      O95869   6.837   6.593   1.460
31876WAT     H195870   6.748   6.574   1.418
31876WAT     H295871   6.874   6.508   1.499
31877WAT      O95872   5.498   8.973   2.349
31877WAT     H195873   5.542   8.889   2.380
31877WAT     H295874   5.551   9.052   2.380
31878WAT      O95875   8.083   8.432   1.771
31878WAT     H195876   8.154   8.455   1.837
31878WAT     H295877   8.046   8.342   1.792
31879WAT      O95878   0.401   5.041   5.369
31879WAT     H195879   0.306   5.068   5.354
31879WAT     H295880   0.462   5.114   5.337
31880WAT      O95881   3.336   0.701   6.469
31880WAT     H195882   3.403   0.637   6.432
31880WAT     H295883   3.359   0.794   6.439
31881WAT      O95884   7.374   3.889   7.424
31881WAT     H195885   7.294   3.908   7.481
31881WAT     H295886   7.444   3.842   7.478
31882WAT      O95887   8.178   5.062   6.494
31882WAT     H195888   8.156   4.965   6.502
31882WAT     H295889   8.097   5.116   6.518
31883WAT      O95890   6.698   6.695   7.382
31883WAT     H195891   6.705   6.666   7.477
31883WAT     H295892   6.786   6.680   7.336
31884WAT      O95893   0.437   9.839   4.933
31884WAT     H195894   0.423   9.938   4.921
31884WAT     H295895   0.369   9.803   4.996
31885WAT      O95896   5.575   5.104   8.451
31885WAT     H195897   5.666   5.103   8.410
31885WAT     H295898   5.559   5.192   8.496
31886WAT      O95899   7.944   7.915   6.060
31886WAT     H195900   8.035   7.956   6.067
31886WAT     H295901   7.904   7.940   5.971
31887WAT      O95902   6.803   6.346   2.018
31887WAT     H195903   6.785   6.341   1.920
31887WAT     H295904   6.746   6.279   2.066
31888WAT      O95905   7.791   1.084   5.366
31888WAT     H195906   7.837   1.073   5.277
31888WAT     H295907   7.694   1.101   5.351
31889WAT      O95908   7.778   0.223   3.890
31889WAT     H195909   7.693   0.233   3.838
31889WAT     H295910   7.856   0.233   3.828
31890WAT      O95911   8.978   8.935   8.302
31890WAT     H195912   9.070   8.952   8.338
31890WAT     H295913   8.968   8.837   8.283
31891WAT      O95914   1.022   8.822   1.743
31891WAT     H195915   1.009   8.907   1.793
31891WAT     H295916   0.997   8.835   1.647
31892WAT      O95917   3.256   5.129   1.032
31892WAT     H195918   3.317   5.180   0.972
31892WAT     H295919   3.271   5.159   1.127
31893WAT      O95920   1.502   6.040   6.323
31893WAT     H195921   1.592   6.044   6.279
31893WAT     H295922   1.463   5.948   6.311
31894WAT      O95923   1.242   0.116   3.101
31894WAT     H195924   1.333   0.091   3.134
31894WAT     H295925   1.174   0.090   3.168
31895WAT      O95926   8.189   0.949   9.840
31895WAT     H195927   8.222   1.005   9.916
31895WAT     H295928   8.257   0.879   9.818
31896WAT      O95929   8.063   9.704   8.411
31896WAT     H195930   8.140   9.745   8.361
31896WAT     H295931   8.096   9.661   8.494
31897WAT      O95932   0.587   6.008   6.522
31897WAT     H195933   0.634   5.938   6.576
31897WAT     H295934   0.596   6.097   6.567
31898WAT      O95935   2.274   9.546   7.377
31898WAT     H195936   2.311   9.637   7.360
31898WAT     H295937   2.175   9.548   7.372
31899WAT      O95938   3.079   9.481   7.689
31899WAT     H195939   3.131   9.530   7.759
31899WAT     H295940   3.080   9.383   7.711
   9.88928    9.84380    9.89279 
