GROningen MAchine for Chemical Simulation
95940
    1G5    HO5'    1   3.317   6.594   4.362
    1G5     O5'    2   3.408   6.619   4.348
    1G5     C5'    3   3.405   6.696   4.231
    1G5     H5'    4   3.328   6.662   4.161
    1G5    H5''    5   3.500   6.694   4.178
    1G5     C4'    6   3.373   6.844   4.269
    1G5     H4'    7   3.351   6.909   4.184
    1G5     O4'    8   3.275   6.853   4.363
    1G5     C1'    9   3.284   6.972   4.442
    1G5     H1'   10   3.199   7.036   4.422
    1G5      N9   11   3.282   6.938   4.588
    1G5      C8   12   3.238   6.826   4.643
    1G5      H8   13   3.211   6.736   4.589
    1G5      N7   14   3.230   6.829   4.774
    1G5      C5   15   3.265   6.957   4.806
    1G5      C6   16   3.274   7.024   4.933
    1G5      O6   17   3.235   6.981   5.041
    1G5      N1   18   3.318   7.152   4.924
    1G5      H1   19   3.332   7.204   5.009
    1G5      C2   20   3.335   7.215   4.801
    1G5      N2   21   3.376   7.340   4.797
    1G5     H21   22   3.408   7.389   4.880
    1G5     H22   23   3.404   7.363   4.702
    1G5      N3   24   3.334   7.158   4.681
    1G5      C4   25   3.293   7.026   4.688
    1G5     C3'   26   3.491   6.914   4.352
    1G5     H3'   27   3.522   6.853   4.437
    1G5     C2'   28   3.414   7.048   4.398
    1G5     H2'   29   3.469   7.100   4.476
    1G5     O2'   30   3.373   7.120   4.287
    1G5    HO2'   31   3.449   7.127   4.227
    1G5     O3'   32   3.592   6.957   4.268
    2G        P   33   3.743   6.947   4.306
    2G      OP1   34   3.822   6.974   4.187
    2G      OP2   35   3.764   6.821   4.383
    2G      O5'   36   3.769   7.063   4.416
    2G      C5'   37   3.801   7.195   4.379
    2G      H5'   38   3.723   7.239   4.317
    2G     H5''   39   3.891   7.194   4.317
    2G      C4'   40   3.825   7.279   4.512
    2G      H4'   41   3.855   7.381   4.488
    2G      O4'   42   3.709   7.281   4.606
    2G      C1'   43   3.754   7.241   4.739
    2G      H1'   44   3.705   7.314   4.803
    2G       N9   45   3.702   7.114   4.794
    2G       C8   46   3.668   7.004   4.717
    2G       H8   47   3.671   6.999   4.609
    2G       N7   48   3.624   6.903   4.790
    2G       C5   49   3.630   6.944   4.923
    2G       C6   50   3.595   6.881   5.046
    2G       O6   51   3.543   6.767   5.056
    2G       N1   52   3.627   6.956   5.161
    2G       H1   53   3.587   6.936   5.251
    2G       C2   54   3.696   7.075   5.152
    2G       N2   55   3.720   7.141   5.262
    2G      H21   56   3.710   7.091   5.349
    2G      H22   57   3.772   7.227   5.263
    2G       N3   58   3.724   7.137   5.041
    2G       C4   59   3.687   7.067   4.927
    2G      C3'   60   3.946   7.224   4.589
    2G      H3'   61   3.954   7.116   4.577
    2G      C2'   62   3.907   7.240   4.739
    2G      H2'   63   3.948   7.155   4.794
    2G      O2'   64   3.949   7.366   4.800
    2G     HO2'   65   3.953   7.362   4.895
    2G      O3'   66   4.068   7.280   4.554
    3G        P   67   4.206   7.195   4.557
    3G      OP1   68   4.319   7.283   4.516
    3G      OP2   69   4.183   7.068   4.495
    3G      O5'   70   4.216   7.173   4.715
    3G      C5'   71   4.246   7.282   4.808
    3G      H5'   72   4.183   7.369   4.788
    3G     H5''   73   4.349   7.312   4.790
    3G      C4'   74   4.238   7.229   4.951
    3G      H4'   75   4.275   7.316   5.005
    3G      O4'   76   4.103   7.198   4.991
    3G      C1'   77   4.105   7.088   5.090
    3G      H1'   78   4.041   7.120   5.173
    3G       N9   79   4.044   6.963   5.027
    3G       C8   80   4.045   6.914   4.899
    3G       H8   81   4.090   6.967   4.816
    3G       N7   82   3.979   6.806   4.880
    3G       C5   83   3.928   6.771   5.001
    3G       C6   84   3.858   6.657   5.054
    3G       O6   85   3.808   6.562   4.999
    3G       N1   86   3.850   6.668   5.196
    3G       H1   87   3.801   6.590   5.238
    3G       C2   88   3.893   6.767   5.274
    3G       N2   89   3.854   6.755   5.398
    3G      H21   90   3.795   6.674   5.411
    3G      H22   91   3.886   6.819   5.469
    3G       N3   92   3.961   6.865   5.231
    3G       C4   93   3.976   6.868   5.098
    3G      C3'   94   4.326   7.112   4.988
    3G      H3'   95   4.301   7.025   4.928
    3G      C2'   96   4.254   7.080   5.121
    3G      H2'   97   4.281   6.982   5.160
    3G      O2'   98   4.272   7.177   5.218
    3G     HO2'   99   4.224   7.151   5.297
    3G      O3'  100   4.463   7.134   4.999
    4U        P  101   4.571   7.017   4.983
    4U      OP1  102   4.700   7.080   5.011
    4U      OP2  103   4.553   6.935   4.860
    4U      O5'  104   4.528   6.937   5.109
    4U      C5'  105   4.576   6.971   5.242
    4U      H5'  106   4.543   7.071   5.269
    4U     H5''  107   4.684   6.969   5.239
    4U      C4'  108   4.540   6.881   5.358
    4U      H4'  109   4.584   6.926   5.447
    4U      O4'  110   4.400   6.857   5.365
    4U      C1'  111   4.359   6.733   5.406
    4U      H1'  112   4.292   6.743   5.491
    4U       N1  113   4.288   6.651   5.306
    4U       C6  114   4.303   6.674   5.169
    4U       H6  115   4.369   6.746   5.124
    4U       C5  116   4.237   6.598   5.077
    4U       H5  117   4.249   6.618   4.972
    4U       C4  118   4.147   6.497   5.123
    4U       O4  119   4.066   6.425   5.057
    4U       N3  120   4.140   6.474   5.258
    4U       H3  121   4.083   6.394   5.281
    4U       C2  122   4.203   6.548   5.348
    4U       O2  123   4.178   6.526   5.464
    4U      C3'  124   4.596   6.736   5.363
    4U      H3'  125   4.583   6.691   5.265
    4U      C2'  126   4.491   6.667   5.456
    4U      H2'  127   4.489   6.560   5.433
    4U      O2'  128   4.509   6.679   5.601
    4U     HO2'  129   4.577   6.744   5.619
    4U      O3'  130   4.728   6.732   5.410
    5U        P  131   4.828   6.618   5.355
    5U      OP1  132   4.965   6.646   5.398
    5U      OP2  133   4.805   6.591   5.215
    5U      O5'  134   4.782   6.489   5.443
    5U      C5'  135   4.789   6.474   5.581
    5U      H5'  136   4.720   6.545   5.626
    5U     H5''  137   4.889   6.486   5.623
    5U      C4'  138   4.753   6.330   5.615
    5U      H4'  139   4.830   6.270   5.568
    5U      O4'  140   4.749   6.315   5.758
    5U      C1'  141   4.617   6.305   5.798
    5U      H1'  142   4.595   6.202   5.824
    5U       N1  143   4.588   6.406   5.905
    5U       C6  144   4.636   6.533   5.908
    5U       H6  145   4.707   6.563   5.833
    5U       C5  146   4.599   6.624   6.009
    5U       H5  147   4.631   6.726   6.007
    5U       C4  148   4.505   6.583   6.113
    5U       O4  149   4.466   6.659   6.201
    5U       N3  150   4.459   6.453   6.104
    5U       H3  151   4.384   6.426   6.166
    5U       C2  152   4.504   6.359   6.011
    5U       O2  153   4.483   6.243   6.029
    5U      C3'  154   4.614   6.279   5.565
    5U      H3'  155   4.567   6.326   5.479
    5U      C2'  156   4.524   6.336   5.675
    5U      H2'  157   4.526   6.444   5.672
    5U      O2'  158   4.399   6.272   5.676
    5U     HO2'  159   4.414   6.180   5.653
    5U      O3'  160   4.613   6.143   5.553
    6A        P  161   4.671   6.058   5.430
    6A      OP1  162   4.692   5.922   5.486
    6A      OP2  163   4.780   6.121   5.355
    6A      O5'  164   4.548   6.049   5.335
    6A      C5'  165   4.445   5.962   5.360
    6A      H5'  166   4.407   5.985   5.460
    6A     H5''  167   4.476   5.857   5.361
    6A      C4'  168   4.325   5.962   5.266
    6A      H4'  169   4.261   5.878   5.295
    6A      O4'  170   4.257   6.086   5.282
    6A      C1'  171   4.256   6.155   5.151
    6A      H1'  172   4.162   6.211   5.147
    6A       N9  173   4.365   6.257   5.139
    6A       C8  174   4.446   6.301   5.244
    6A       H8  175   4.434   6.261   5.344
    6A       N7  176   4.529   6.396   5.208
    6A       C5  177   4.506   6.408   5.070
    6A       C6  178   4.544   6.497   4.966
    6A       N6  179   4.632   6.595   4.981
    6A      H61  180   4.644   6.664   4.908
    6A      H62  181   4.673   6.598   5.073
    6A       N1  182   4.474   6.503   4.853
    6A       C2  183   4.378   6.412   4.828
    6A       H2  184   4.322   6.418   4.736
    6A       N3  185   4.337   6.321   4.912
    6A       C4  186   4.398   6.328   5.031
    6A      C3'  187   4.364   5.947   5.114
    6A      H3'  188   4.465   5.988   5.109
    6A      C2'  189   4.260   6.042   5.044
    6A      H2'  190   4.301   6.081   4.951
    6A      O2'  191   4.135   5.972   5.018
    6A     HO2'  192   4.142   5.906   4.948
    6A      O3'  193   4.369   5.819   5.058
    7G        P  194   4.508   5.759   4.990
    7G      OP1  195   4.484   5.618   4.948
    7G      OP2  196   4.616   5.796   5.082
    7G      O5'  197   4.527   5.844   4.851
    7G      C5'  198   4.428   5.851   4.750
    7G      H5'  199   4.343   5.889   4.807
    7G     H5''  200   4.399   5.759   4.700
    7G      C4'  201   4.478   5.950   4.643
    7G      H4'  202   4.411   5.943   4.557
    7G      O4'  203   4.469   6.089   4.683
    7G      C1'  204   4.590   6.156   4.639
    7G      H1'  205   4.562   6.251   4.594
    7G       N9  206   4.674   6.185   4.757
    7G       C8  207   4.664   6.147   4.888
    7G       H8  208   4.593   6.071   4.917
    7G       N7  209   4.746   6.216   4.967
    7G       C5  210   4.812   6.303   4.880
    7G       C6  211   4.911   6.399   4.902
    7G       O6  212   4.947   6.440   5.019
    7G       N1  213   4.975   6.442   4.793
    7G       H1  214   5.048   6.511   4.795
    7G       C2  215   4.944   6.405   4.673
    7G       N2  216   5.010   6.466   4.583
    7G      H21  217   5.087   6.525   4.612
    7G      H22  218   4.987   6.440   4.488
    7G       N3  219   4.843   6.326   4.638
    7G       C4  220   4.782   6.272   4.748
    7G      C3'  221   4.622   5.930   4.594
    7G      H3'  222   4.680   5.903   4.682
    7G      C2'  223   4.666   6.066   4.547
    7G      H2'  224   4.770   6.094   4.537
    7G      O2'  225   4.612   6.105   4.425
    7G     HO2'  226   4.594   6.029   4.370
    7G      O3'  227   4.633   5.823   4.496
    8G        P  228   4.745   5.717   4.505
    8G      OP1  229   4.748   5.632   4.383
    8G      OP2  230   4.743   5.666   4.639
    8G      O5'  231   4.868   5.812   4.496
    8G      C5'  232   4.916   5.852   4.368
    8G      H5'  233   4.841   5.914   4.321
    8G     H5''  234   4.947   5.772   4.300
    8G      C4'  235   5.040   5.946   4.387
    8G      H4'  236   5.070   5.983   4.289
    8G      O4'  237   5.010   6.062   4.459
    8G      C1'  238   5.111   6.096   4.554
    8G      H1'  239   5.137   6.202   4.546
    8G       N9  240   5.063   6.073   4.691
    8G       C8  241   4.965   5.989   4.741
    8G       H8  242   4.900   5.925   4.683
    8G       N7  243   4.953   5.994   4.868
    8G       C5  244   5.050   6.084   4.909
    8G       C6  245   5.083   6.135   5.042
    8G       O6  246   5.028   6.121   5.153
    8G       N1  247   5.190   6.218   5.043
    8G       H1  248   5.208   6.260   5.133
    8G       C2  249   5.263   6.254   4.933
    8G       N2  250   5.372   6.328   4.954
    8G      H21  251   5.408   6.348   5.047
    8G      H22  252   5.418   6.365   4.872
    8G       N3  253   5.230   6.217   4.804
    8G       C4  254   5.122   6.132   4.804
    8G      C3'  255   5.160   5.882   4.452
    8G      H3'  256   5.112   5.818   4.526
    8G      C2'  257   5.230   6.004   4.515
    8G      H2'  258   5.280   5.969   4.605
    8G      O2'  259   5.316   6.074   4.425
    8G     HO2'  260   5.356   6.000   4.378
    8G      O3'  261   5.256   5.807   4.383
    9G        P  262   5.295   5.675   4.435
    9G      OP1  263   5.383   5.612   4.337
    9G      OP2  264   5.170   5.606   4.479
    9G      O5'  265   5.375   5.699   4.564
    9G      C5'  266   5.511   5.761   4.556
    9G      H5'  267   5.502   5.844   4.486
    9G     H5''  268   5.586   5.685   4.538
    9G      C4'  269   5.548   5.823   4.686
    9G      H4'  270   5.641   5.876   4.668
    9G      O4'  271   5.457   5.925   4.726
    9G      C1'  272   5.471   5.923   4.865
    9G      H1'  273   5.491   6.020   4.911
    9G       N9  274   5.338   5.877   4.913
    9G       C8  275   5.246   5.797   4.851
    9G       H8  276   5.246   5.768   4.747
    9G       N7  277   5.150   5.750   4.924
    9G       C5  278   5.184   5.802   5.051
    9G       C6  279   5.119   5.810   5.178
    9G       O6  280   5.012   5.763   5.210
    9G       N1  281   5.171   5.888   5.274
    9G       H1  282   5.120   5.913   5.357
    9G       C2  283   5.276   5.964   5.254
    9G       N2  284   5.323   6.038   5.352
    9G      H21  285   5.266   6.044   5.435
    9G      H22  286   5.399   6.102   5.331
    9G       N3  287   5.355   5.959   5.140
    9G       C4  288   5.296   5.884   5.046
    9G      C3'  289   5.566   5.722   4.795
    9G      H3'  290   5.486   5.653   4.822
    9G      C2'  291   5.584   5.823   4.911
    9G      H2'  292   5.559   5.786   5.010
    9G      O2'  293   5.706   5.893   4.911
    9G     HO2'  294   5.704   5.953   4.986
    9G      O3'  295   5.678   5.642   4.777
   10U        P  296   5.699   5.509   4.866
   10U      OP1  297   5.840   5.472   4.831
   10U      OP2  298   5.587   5.419   4.836
   10U      O5'  299   5.697   5.558   5.016
   10U      C5'  300   5.807   5.624   5.075
   10U      H5'  301   5.834   5.718   5.027
   10U     H5''  302   5.891   5.553   5.072
   10U      C4'  303   5.779   5.649   5.225
   10U      H4'  304   5.857   5.710   5.271
   10U      O4'  305   5.658   5.711   5.243
   10U      C1'  306   5.598   5.677   5.367
   10U      H1'  307   5.596   5.763   5.434
   10U       N1  308   5.470   5.626   5.342
   10U       C6  309   5.427   5.563   5.230
   10U       H6  310   5.497   5.549   5.149
   10U       C5  311   5.310   5.502   5.227
   10U       H5  312   5.297   5.436   5.142
   10U       C4  313   5.209   5.508   5.329
   10U       O4  314   5.091   5.476   5.323
   10U       N3  315   5.264   5.563   5.442
   10U       H3  316   5.208   5.548   5.525
   10U       C2  317   5.382   5.628   5.456
   10U       O2  318   5.403   5.696   5.559
   10U      C3'  319   5.765   5.517   5.302
   10U      H3'  320   5.704   5.445   5.247
   10U      C2'  321   5.691   5.572   5.425
   10U      H2'  322   5.632   5.490   5.463
   10U      O2'  323   5.795   5.628   5.506
   10U     HO2'  324   5.848   5.554   5.532
   10U      O3'  325   5.882   5.460   5.341
   11U        P  326   5.910   5.304   5.334
   11U      OP1  327   6.029   5.285   5.409
   11U      OP2  328   5.905   5.250   5.201
   11U      O5'  329   5.782   5.239   5.413
   11U      C5'  330   5.774   5.246   5.557
   11U      H5'  331   5.776   5.352   5.582
   11U     H5''  332   5.859   5.194   5.602
   11U      C4'  333   5.644   5.197   5.619
   11U      H4'  334   5.655   5.214   5.726
   11U      O4'  335   5.535   5.264   5.560
   11U      C1'  336   5.427   5.178   5.541
   11U      H1'  337   5.359   5.219   5.616
   11U       N1  338   5.370   5.162   5.406
   11U       C6  339   5.448   5.205   5.297
   11U       H6  340   5.540   5.256   5.324
   11U       C5  341   5.410   5.191   5.168
   11U       H5  342   5.469   5.234   5.088
   11U       C4  343   5.287   5.133   5.137
   11U       O4  344   5.232   5.111   5.026
   11U       N3  345   5.209   5.108   5.244
   11U       H3  346   5.110   5.101   5.222
   11U       C2  347   5.243   5.124   5.383
   11U       O2  348   5.154   5.101   5.475
   11U      C3'  349   5.620   5.048   5.592
   11U      H3'  350   5.662   5.034   5.493
   11U      C2'  351   5.468   5.040   5.587
   11U      H2'  352   5.434   4.963   5.518
   11U      O2'  353   5.417   5.017   5.724
   11U     HO2'  354   5.363   4.939   5.735
   11U      O3'  355   5.689   4.968   5.687
   12A        P  356   5.706   4.818   5.672
   12A      OP1  357   5.796   4.781   5.778
   12A      OP2  358   5.746   4.786   5.534
   12A      O5'  359   5.559   4.766   5.696
   12A      C5'  360   5.514   4.735   5.831
   12A      H5'  361   5.539   4.814   5.901
   12A     H5''  362   5.565   4.645   5.867
   12A      C4'  363   5.373   4.697   5.854
   12A      H4'  364   5.353   4.686   5.961
   12A      O4'  365   5.291   4.795   5.800
   12A      C1'  366   5.181   4.726   5.743
   12A      H1'  367   5.086   4.756   5.786
   12A       N9  368   5.178   4.760   5.604
   12A       C8  369   5.272   4.753   5.503
   12A       H8  370   5.372   4.713   5.513
   12A       N7  371   5.226   4.783   5.385
   12A       C5  372   5.090   4.821   5.412
   12A       C6  373   4.979   4.866   5.337
   12A       N6  374   4.973   4.879   5.203
   12A      H61  375   4.881   4.894   5.163
   12A      H62  376   5.054   4.840   5.156
   12A       N1  377   4.857   4.881   5.389
   12A       C2  378   4.849   4.857   5.519
   12A       H2  379   4.752   4.853   5.566
   12A       N3  380   4.944   4.819   5.607
   12A       C4  381   5.067   4.802   5.542
   12A      C3'  382   5.349   4.561   5.786
   12A      H3'  383   5.404   4.552   5.692
   12A      C2'  384   5.195   4.573   5.766
   12A      H2'  385   5.161   4.528   5.673
   12A      O2'  386   5.124   4.524   5.877
   12A     HO2'  387   5.130   4.428   5.874
   12A      O3'  388   5.388   4.449   5.862
   13G        P  389   5.371   4.301   5.810
   13G      OP1  390   5.453   4.219   5.901
   13G      OP2  391   5.407   4.312   5.667
   13G      O5'  392   5.218   4.273   5.842
   13G      C5'  393   5.178   4.216   5.967
   13G      H5'  394   5.194   4.296   6.038
   13G     H5''  395   5.249   4.137   5.992
   13G      C4'  396   5.037   4.172   5.966
   13G      H4'  397   5.009   4.154   6.070
   13G      O4'  398   4.952   4.272   5.925
   13G      C1'  399   4.890   4.227   5.810
   13G      H1'  400   4.785   4.255   5.813
   13G       N9  401   4.949   4.286   5.686
   13G       C8  402   5.062   4.242   5.619
   13G       H8  403   5.128   4.163   5.652
   13G       N7  404   5.092   4.308   5.511
   13G       C5  405   4.987   4.400   5.503
   13G       C6  406   4.939   4.493   5.392
   13G       O6  407   5.000   4.515   5.288
   13G       N1  408   4.824   4.562   5.422
   13G       H1  409   4.781   4.609   5.345
   13G       C2  410   4.745   4.531   5.527
   13G       N2  411   4.634   4.595   5.538
   13G      H21  412   4.620   4.674   5.476
   13G      H22  413   4.559   4.577   5.604
   13G       N3  414   4.768   4.437   5.623
   13G       C4  415   4.895   4.380   5.603
   13G      C3'  416   5.014   4.045   5.877
   13G      H3'  417   5.092   4.038   5.802
   13G      C2'  418   4.883   4.078   5.810
   13G      H2'  419   4.893   4.043   5.707
   13G      O2'  420   4.766   4.031   5.869
   13G     HO2'  421   4.761   3.939   5.844
   13G      O3'  422   5.000   3.926   5.957
   14G        P  423   5.007   3.782   5.890
   14G      OP1  424   5.030   3.683   5.997
   14G      OP2  425   5.088   3.782   5.772
   14G      O5'  426   4.850   3.776   5.847
   14G      C5'  427   4.756   3.696   5.913
   14G      H5'  428   4.736   3.747   6.007
   14G     H5''  429   4.793   3.594   5.931
   14G      C4'  430   4.622   3.695   5.832
   14G      H4'  431   4.543   3.645   5.888
   14G      O4'  432   4.577   3.825   5.798
   14G      C1'  433   4.549   3.828   5.661
   14G      H1'  434   4.447   3.861   5.642
   14G       N9  435   4.650   3.916   5.589
   14G       C8  436   4.777   3.880   5.546
   14G       H8  437   4.830   3.792   5.578
   14G       N7  438   4.829   3.972   5.464
   14G       C5  439   4.732   4.073   5.453
   14G       C6  440   4.717   4.194   5.370
   14G       O6  441   4.796   4.237   5.290
   14G       N1  442   4.589   4.249   5.376
   14G       H1  443   4.571   4.338   5.331
   14G       C2  444   4.495   4.209   5.467
   14G       N2  445   4.389   4.286   5.481
   14G      H21  446   4.376   4.371   5.428
   14G      H22  447   4.310   4.252   5.535
   14G       N3  448   4.501   4.095   5.536
   14G       C4  449   4.624   4.033   5.525
   14G      C3'  450   4.633   3.616   5.699
   14G      H3'  451   4.735   3.627   5.662
   14G      C2'  452   4.538   3.684   5.601
   14G      H2'  453   4.568   3.683   5.497
   14G      O2'  454   4.404   3.627   5.603
   14G     HO2'  455   4.415   3.539   5.568
   14G      O3'  456   4.603   3.483   5.713
   15G        P  457   4.633   3.383   5.598
   15G      OP1  458   4.636   3.247   5.656
   15G      OP2  459   4.760   3.434   5.534
   15G      O5'  460   4.505   3.393   5.495
   15G      C5'  461   4.402   3.301   5.529
   15G      H5'  462   4.374   3.320   5.632
   15G     H5''  463   4.436   3.199   5.509
   15G      C4'  464   4.276   3.321   5.446
   15G      H4'  465   4.198   3.251   5.475
   15G      O4'  466   4.227   3.459   5.456
   15G      C1'  467   4.155   3.492   5.334
   15G      H1'  468   4.053   3.482   5.370
   15G       N9  469   4.192   3.626   5.290
   15G       C8  470   4.322   3.682   5.287
   15G       H8  471   4.407   3.637   5.335
   15G       N7  472   4.332   3.796   5.223
   15G       C5  473   4.198   3.821   5.182
   15G       C6  474   4.139   3.929   5.110
   15G       O6  475   4.188   4.030   5.055
   15G       N1  476   4.004   3.922   5.098
   15G       H1  477   3.948   3.992   5.051
   15G       C2  478   3.931   3.821   5.152
   15G       N2  479   3.803   3.816   5.129
   15G      H21  480   3.756   3.898   5.093
   15G      H22  481   3.753   3.737   5.167
   15G       N3  482   3.984   3.712   5.213
   15G       C4  483   4.119   3.717   5.225
   15G      C3'  484   4.298   3.302   5.295
   15G      H3'  485   4.389   3.358   5.275
   15G      C2'  486   4.188   3.390   5.232
   15G      H2'  487   4.231   3.442   5.146
   15G      O2'  488   4.073   3.312   5.203
   15G     HO2'  489   4.074   3.230   5.253
   15G      O3'  490   4.289   3.171   5.244
   16U        P  491   4.413   3.090   5.188
   16U      OP1  492   4.359   2.957   5.149
   16U      OP2  493   4.517   3.105   5.286
   16U      O5'  494   4.446   3.169   5.060
   16U      C5'  495   4.351   3.179   4.958
   16U      H5'  496   4.257   3.180   5.015
   16U     H5''  497   4.347   3.086   4.901
   16U      C4'  498   4.369   3.310   4.874
   16U      H4'  499   4.278   3.315   4.815
   16U      O4'  500   4.385   3.421   4.968
   16U      C1'  501   4.471   3.515   4.912
   16U      H1'  502   4.410   3.595   4.871
   16U       N1  503   4.565   3.571   5.015
   16U       C6  504   4.598   3.494   5.129
   16U       H6  505   4.554   3.395   5.138
   16U       C5  506   4.681   3.544   5.221
   16U       H5  507   4.707   3.494   5.313
   16U       C4  508   4.744   3.675   5.210
   16U       O4  509   4.818   3.726   5.289
   16U       N3  510   4.711   3.751   5.096
   16U       H3  511   4.742   3.847   5.091
   16U       C2  512   4.622   3.702   4.999
   16U       O2  513   4.596   3.774   4.902
   16U      C3'  514   4.507   3.304   4.794
   16U      H3'  515   4.578   3.249   4.856
   16U      C2'  516   4.557   3.447   4.802
   16U      H2'  517   4.664   3.450   4.821
   16U      O2'  518   4.502   3.515   4.688
   16U     HO2'  519   4.580   3.540   4.639
   16U      O3'  520   4.488   3.245   4.666
   17U        P  521   4.604   3.183   4.583
   17U      OP1  522   4.540   3.122   4.467
   17U      OP2  523   4.694   3.104   4.676
   17U      O5'  524   4.690   3.308   4.535
   17U      C5'  525   4.660   3.358   4.405
   17U      H5'  526   4.555   3.388   4.411
   17U     H5''  527   4.674   3.278   4.333
   17U      C4'  528   4.744   3.481   4.377
   17U      H4'  529   4.718   3.532   4.284
   17U      O4'  530   4.721   3.563   4.488
   17U      C1'  531   4.828   3.651   4.510
   17U      H1'  532   4.803   3.753   4.479
   17U       N1  533   4.868   3.647   4.658
   17U       C6  534   4.889   3.528   4.710
   17U       H6  535   4.866   3.438   4.656
   17U       C5  536   4.935   3.510   4.838
   17U       H5  537   4.953   3.410   4.875
   17U       C4  538   4.976   3.630   4.913
   17U       O4  539   5.017   3.629   5.030
   17U       N3  540   4.963   3.750   4.841
   17U       H3  541   4.993   3.839   4.878
   17U       C2  542   4.924   3.761   4.716
   17U       O2  543   4.930   3.873   4.657
   17U      C3'  544   4.897   3.458   4.371
   17U      H3'  545   4.935   3.388   4.446
   17U      C2'  546   4.947   3.600   4.413
   17U      H2'  547   5.046   3.597   4.459
   17U      O2'  548   4.953   3.690   4.302
   17U     HO2'  549   5.021   3.653   4.245
   17U      O3'  550   4.943   3.428   4.240
   18A        P  551   5.036   3.292   4.219
   18A      OP1  552   5.076   3.274   4.082
   18A      OP2  553   4.973   3.180   4.290
   18A      O5'  554   5.172   3.317   4.313
   18A      C5'  555   5.267   3.416   4.276
   18A      H5'  556   5.256   3.512   4.326
   18A     H5''  557   5.272   3.437   4.169
   18A      C4'  558   5.412   3.375   4.311
   18A      H4'  559   5.480   3.453   4.277
   18A      O4'  560   5.423   3.339   4.456
   18A      C1'  561   5.505   3.224   4.475
   18A      H1'  562   5.589   3.253   4.538
   18A       N9  563   5.440   3.107   4.528
   18A       C8  564   5.310   3.060   4.501
   18A       H8  565   5.236   3.108   4.439
   18A       N7  566   5.287   2.947   4.570
   18A       C5  567   5.406   2.919   4.641
   18A       C6  568   5.457   2.821   4.731
   18A       N6  569   5.393   2.713   4.766
   18A      H61  570   5.446   2.650   4.825
   18A      H62  571   5.302   2.701   4.725
   18A       N1  572   5.586   2.818   4.770
   18A       C2  573   5.655   2.926   4.741
   18A       H2  574   5.759   2.922   4.771
   18A       N3  575   5.622   3.027   4.664
   18A       C4  576   5.497   3.017   4.616
   18A      C3'  577   5.459   3.240   4.245
   18A      H3'  578   5.374   3.174   4.232
   18A      C2'  579   5.562   3.183   4.338
   18A      H2'  580   5.571   3.074   4.329
   18A      O2'  581   5.688   3.237   4.322
   18A     HO2'  582   5.716   3.220   4.232
   18A      O3'  583   5.505   3.257   4.112
   19G        P  584   5.565   3.150   4.011
   19G      OP1  585   5.561   3.210   3.879
   19G      OP2  586   5.497   3.027   4.037
   19G      O5'  587   5.717   3.138   4.063
   19G      C5'  588   5.811   3.242   4.045
   19G      H5'  589   5.793   3.317   4.122
   19G     H5''  590   5.805   3.291   3.948
   19G      C4'  591   5.957   3.203   4.088
   19G      H4'  592   6.014   3.295   4.080
   19G      O4'  593   5.967   3.163   4.232
   19G      C1'  594   6.021   3.027   4.237
   19G      H1'  595   6.098   3.021   4.314
   19G       N9  596   5.916   2.931   4.281
   19G       C8  597   5.809   2.894   4.207
   19G       H8  598   5.791   2.928   4.106
   19G       N7  599   5.742   2.795   4.256
   19G       C5  600   5.797   2.775   4.384
   19G       C6  601   5.772   2.676   4.482
   19G       O6  602   5.683   2.592   4.479
   19G       N1  603   5.851   2.687   4.595
   19G       H1  604   5.815   2.628   4.668
   19G       C2  605   5.937   2.792   4.616
   19G       N2  606   6.000   2.781   4.733
   19G      H21  607   5.974   2.711   4.800
   19G      H22  608   6.072   2.849   4.753
   19G       N3  609   5.981   2.879   4.516
   19G       C4  610   5.897   2.865   4.410
   19G      C3'  611   6.010   3.088   3.995
   19G      H3'  612   5.922   3.041   3.950
   19G      C2'  613   6.086   2.999   4.100
   19G      H2'  614   6.068   2.895   4.071
   19G      O2'  615   6.222   3.031   4.111
   19G     HO2'  616   6.265   3.021   4.026
   19G      O3'  617   6.093   3.146   3.896
   20G        P  618   6.140   3.050   3.769
   20G      OP1  619   6.203   3.134   3.663
   20G      OP2  620   6.032   2.959   3.730
   20G      O5'  621   6.271   2.967   3.826
   20G      C5'  622   6.406   3.020   3.834
   20G      H5'  623   6.409   3.106   3.902
   20G     H5''  624   6.445   3.047   3.736
   20G      C4'  625   6.501   2.904   3.888
   20G      H4'  626   6.607   2.929   3.876
   20G      O4'  627   6.459   2.895   4.023
   20G      C1'  628   6.455   2.750   4.055
   20G      H1'  629   6.507   2.720   4.147
   20G       N9  630   6.321   2.702   4.074
   20G       C8  631   6.215   2.704   3.989
   20G       H8  632   6.216   2.757   3.895
   20G       N7  633   6.104   2.645   4.024
   20G       C5  634   6.137   2.605   4.157
   20G       C6  635   6.065   2.541   4.257
   20G       O6  636   5.947   2.500   4.254
   20G       N1  637   6.125   2.550   4.382
   20G       H1  638   6.069   2.518   4.459
   20G       C2  639   6.253   2.597   4.405
   20G       N2  640   6.279   2.635   4.523
   20G      H21  641   6.219   2.604   4.598
   20G      H22  642   6.356   2.699   4.537
   20G       N3  643   6.324   2.653   4.309
   20G       C4  644   6.266   2.645   4.187
   20G      C3'  645   6.483   2.764   3.820
   20G      H3'  646   6.385   2.733   3.786
   20G      C2'  647   6.522   2.674   3.943
   20G      H2'  648   6.479   2.575   3.931
   20G      O2'  649   6.660   2.668   3.980
   20G     HO2'  650   6.695   2.583   3.954
   20G      O3'  651   6.579   2.750   3.709
   21G3       P  652   6.583   2.617   3.624
   21G3     OP1  653   6.688   2.631   3.525
   21G3     OP2  654   6.448   2.591   3.573
   21G3     O5'  655   6.619   2.498   3.726
   21G3     C5'  656   6.753   2.455   3.746
   21G3     H5'  657   6.826   2.530   3.776
   21G3    H5''  658   6.793   2.411   3.655
   21G3     C4'  659   6.768   2.351   3.851
   21G3     H4'  660   6.875   2.332   3.858
   21G3     O4'  661   6.726   2.397   3.973
   21G3     C1'  662   6.698   2.291   4.062
   21G3     H1'  663   6.763   2.291   4.149
   21G3      N9  664   6.561   2.305   4.117
   21G3      C8  665   6.439   2.305   4.058
   21G3      H8  666   6.432   2.317   3.951
   21G3      N7  667   6.334   2.307   4.135
   21G3      C5  668   6.394   2.309   4.259
   21G3      C6  669   6.347   2.295   4.391
   21G3      O6  670   6.228   2.271   4.431
   21G3      N1  671   6.435   2.317   4.489
   21G3      H1  672   6.396   2.333   4.580
   21G3      C2  673   6.566   2.318   4.468
   21G3      N2  674   6.644   2.346   4.572
   21G3     H21  675   6.594   2.341   4.659
   21G3     H22  676   6.742   2.323   4.577
   21G3      N3  677   6.623   2.304   4.344
   21G3      C4  678   6.534   2.313   4.247
   21G3     C3'  679   6.690   2.222   3.829
   21G3     H3'  680   6.588   2.249   3.803
   21G3     C2'  681   6.706   2.166   3.967
   21G3     H2'  682   6.622   2.098   3.983
   21G3     O2'  683   6.833   2.109   3.995
   21G3    HO2'  684   6.816   2.016   4.012
   21G3     O3'  685   6.750   2.144   3.730
   21G3    HO3'  686   6.844   2.125   3.739
   22Cl-    Cl-  687   6.011   9.676   0.875
   23Cl-    Cl-  688   3.165   2.587   1.392
   24Cl-    Cl-  689   0.792   3.249   5.710
   25Cl-    Cl-  690   6.492   9.670   5.933
   26Cl-    Cl-  691   6.038   7.221   1.101
   27Cl-    Cl-  692   5.088   8.454   1.174
   28Cl-    Cl-  693   0.400   1.042   3.117
   29Cl-    Cl-  694   2.009   7.595   4.109
   30Cl-    Cl-  695   1.634   5.218   7.581
   31Cl-    Cl-  696   3.134   2.999   4.194
   32Cl-    Cl-  697   4.515   2.428   9.243
   33Cl-    Cl-  698   0.528   8.657   6.415
   34Cl-    Cl-  699   6.184   6.237   8.289
   35Cl-    Cl-  700   5.289   4.009   2.559
   36Cl-    Cl-  701   0.243   9.483   1.899
   37Cl-    Cl-  702   0.463   9.665   7.589
   38Cl-    Cl-  703   1.042   8.929   9.684
   39Cl-    Cl-  704   2.080   9.478   5.197
   40Cl-    Cl-  705   4.484   2.541   0.330
   41Cl-    Cl-  706   8.289   4.551   5.962
   42Cl-    Cl-  707   5.931   3.775   8.758
   43Cl-    Cl-  708   0.347   9.094   1.652
   44Cl-    Cl-  709   3.037   5.143   7.585
   45Cl-    Cl-  710   7.089   3.244   1.144
   46Cl-    Cl-  711   9.746   4.221   7.032
   47Cl-    Cl-  712   2.484   5.466   8.920
   48Cl-    Cl-  713   4.019   2.273   7.845
   49Cl-    Cl-  714   3.163   0.637   4.303
   50Cl-    Cl-  715   4.090   7.569   8.213
   51Cl-    Cl-  716   9.235   6.016   9.658
   52Cl-    Cl-  717   4.919   5.800   0.409
   53Cl-    Cl-  718   9.759   1.401   8.729
   54Cl-    Cl-  719   5.753   4.612   0.554
   55Cl-    Cl-  720   3.030   1.591   0.651
   56Cl-    Cl-  721   3.002   0.446   8.037
   57Cl-    Cl-  722   6.893   6.651   9.281
   58Cl-    Cl-  723   3.379   7.936   3.522
   59Cl-    Cl-  724   0.462   7.513   4.913
   60Cl-    Cl-  725   5.058   8.081   3.044
   61Cl-    Cl-  726   1.168   7.259   1.542
   62Cl-    Cl-  727   8.307   5.463   3.660
   63Cl-    Cl-  728   0.744   7.813   8.179
   64Cl-    Cl-  729   7.197   9.198   4.978
   65Cl-    Cl-  730   9.563   6.277   8.675
   66Cl-    Cl-  731   8.338   4.166   3.738
   67Cl-    Cl-  732   5.254   7.870   4.286
   68Cl-    Cl-  733   2.432   6.812   2.104
   69Cl-    Cl-  734   2.365   3.493   9.102
   70Cl-    Cl-  735   4.336   7.635   6.478
   71Cl-    Cl-  736   7.080   7.337   3.999
   72Cl-    Cl-  737   4.369   9.600   8.379
   73Cl-    Cl-  738   1.372   1.186   0.512
   74Cl-    Cl-  739   0.400   2.386   0.536
   75Cl-    Cl-  740   6.986   9.547   8.322
   76Cl-    Cl-  741   8.221   4.822   2.620
   77Cl-    Cl-  742   6.002   8.126   8.556
   78Cl-    Cl-  743   8.245   7.751   8.475
   79Cl-    Cl-  744   6.650   0.867   1.852
   80Cl-    Cl-  745   0.902   4.913   2.222
   81Cl-    Cl-  746   2.766   2.593   1.011
   82Cl-    Cl-  747   7.049   5.299   7.054
   83Cl-    Cl-  748   6.044   2.611   0.312
   84Cl-    Cl-  749   0.643   3.408   3.296
   85Cl-    Cl-  750   3.410   5.630   3.924
   86Cl-    Cl-  751   7.030   9.061   0.090
   87Cl-    Cl-  752   6.845   3.301   5.326
   88Cl-    Cl-  753   3.746   0.811   2.651
   89Cl-    Cl-  754   7.222   2.671   7.172
   90Cl-    Cl-  755   9.797   9.046   7.870
   91Cl-    Cl-  756   2.983   5.920   5.666
   92Cl-    Cl-  757   1.600   1.617   7.239
   93Cl-    Cl-  758   4.390   5.345   1.414
   94Cl-    Cl-  759   8.084   1.093   7.097
   95Cl-    Cl-  760   9.690   3.110   8.752
   96Cl-    Cl-  761   3.653   7.834   2.898
   97Cl-    Cl-  762   2.920   7.511   1.025
   98Cl-    Cl-  763   1.915   0.009   2.514
   99Cl-    Cl-  764   2.958   0.067   5.618
  100Cl-    Cl-  765   4.746   4.923   6.568
  101Cl-    Cl-  766   6.850   4.161   1.186
  102Cl-    Cl-  767   5.311   2.051   7.890
  103Cl-    Cl-  768   3.580   3.579   8.625
  104Cl-    Cl-  769   8.501   1.268   4.151
  105Cl-    Cl-  770   8.047   3.908   6.750
  106Cl-    Cl-  771   3.027   2.029   3.438
  107K+      K+  772   8.055   7.607   9.403
  108K+      K+  773   5.429   6.677   3.648
  109K+      K+  774   9.320   1.751   2.281
  110K+      K+  775   6.374   0.201   1.466
  111K+      K+  776   4.578   1.282   3.492
  112K+      K+  777   3.981   4.315   1.497
  113K+      K+  778   2.378   3.525   9.830
  114K+      K+  779   0.270   2.978   8.802
  115K+      K+  780   6.666   5.031   4.282
  116K+      K+  781   4.884   5.549   5.111
  117K+      K+  782   2.267   2.974   3.845
  118K+      K+  783   1.758   4.723   8.557
  119K+      K+  784   3.118   5.749   6.465
  120K+      K+  785   2.393   7.019   3.517
  121K+      K+  786   4.805   6.337   5.212
  122K+      K+  787   6.897   6.058   8.902
  123K+      K+  788   5.243   4.321   5.266
  124K+      K+  789   8.059   0.124   8.455
  125K+      K+  790   9.464   2.215   8.454
  126K+      K+  791   5.090   3.678   5.289
  127K+      K+  792   3.667   2.696   5.302
  128K+      K+  793   7.527   3.783   6.750
  129K+      K+  794   7.352   7.357   7.821
  130K+      K+  795   7.388   0.431   2.796
  131K+      K+  796   3.201   6.100   0.720
  132K+      K+  797   3.722   6.658   4.758
  133K+      K+  798   5.634   4.388   6.012
  134K+      K+  799   6.441   6.549   9.772
  135K+      K+  800   6.130   8.729   8.039
  136K+      K+  801   5.911   7.437   6.486
  137K+      K+  802   5.921   9.787   5.802
  138K+      K+  803   3.663   2.827   0.709
  139K+      K+  804   9.100   3.598   7.483
  140K+      K+  805   0.722   9.818   7.261
  141K+      K+  806   4.739   8.086   5.195
  142K+      K+  807   8.923   4.683   8.867
  143K+      K+  808   2.827   1.983   7.268
  144K+      K+  809   2.757   1.943   0.046
  145K+      K+  810   4.078   2.845   4.302
  146K+      K+  811   8.524   7.450   5.452
  147K+      K+  812   3.360   5.549   3.331
  148K+      K+  813   7.665   6.189   4.573
  149K+      K+  814   4.709   0.201   9.358
  150K+      K+  815   8.506   3.081   3.624
  151K+      K+  816   0.543   0.763   5.514
  152K+      K+  817   3.333   0.244   8.361
  153K+      K+  818   1.882   9.640   8.192
  154K+      K+  819   5.901   2.528   3.222
  155K+      K+  820   8.498   9.022   2.779
  156K+      K+  821   6.432   8.303   5.054
  157K+      K+  822   7.157   2.197   1.701
  158K+      K+  823   4.317   0.324   3.932
  159K+      K+  824   2.741   6.468   6.296
  160K+      K+  825   4.511   7.341   5.183
  161K+      K+  826   3.716   1.952   1.774
  162K+      K+  827   5.373   2.572   4.182
  163K+      K+  828   4.664   7.719   3.536
  164K+      K+  829   5.324   7.053   8.616
  165K+      K+  830   5.892   3.192   1.336
  166K+      K+  831   4.668   6.750   0.506
  167K+      K+  832   6.641   6.865   7.851
  168K+      K+  833   9.169   9.496   5.801
  169K+      K+  834   2.579   9.327   0.855
  170K+      K+  835   0.255   2.842   5.033
  171K+      K+  836   0.743   7.089   5.075
  172K+      K+  837   1.376   3.824   6.989
  173K+      K+  838   0.757   5.883   4.616
  174K+      K+  839   4.824   5.928   5.114
  175K+      K+  840   0.697   8.645   9.421
  176K+      K+  841   2.074   8.881   0.295
  177K+      K+  842   0.852   8.232   4.595
  178K+      K+  843   1.838   1.051   8.781
  179K+      K+  844   0.361   4.269   7.185
  180K+      K+  845   1.788   5.168   9.848
  181K+      K+  846   0.962   0.237   2.920
  182K+      K+  847   7.849   4.113   6.259
  183K+      K+  848   0.843   5.537   9.885
  184K+      K+  849   4.013   1.171   7.653
  185K+      K+  850   4.382   4.986   5.967
  186K+      K+  851   0.540   9.335   1.843
  187K+      K+  852   5.159   0.636   9.815
  188K+      K+  853   0.179   6.736   1.367
  189K+      K+  854   3.226   0.078   2.925
  190K+      K+  855   0.999   7.069   0.841
  191K+      K+  856   3.145   7.022   9.184
  192K+      K+  857   0.604   5.730   7.582
  193K+      K+  858   5.235   3.353   5.688
  194K+      K+  859   8.288   1.325   5.934
  195K+      K+  860   4.027   7.129   2.425
  196K+      K+  861   4.000   0.967   7.279
  197K+      K+  862   8.388   7.129   9.623
  198K+      K+  863   5.811   2.189   8.130
  199K+      K+  864   6.839   4.542   7.640
  200K+      K+  865   4.290   6.521   4.285
  201K+      K+  866   0.084   5.850   4.504
  202K+      K+  867   6.180   8.980   0.587
  203K+      K+  868   6.101   4.240   0.290
  204K+      K+  869   3.422   0.280   5.715
  205K+      K+  870   1.828   8.081   8.454
  206K+      K+  871   5.986   2.435   3.916
  207K+      K+  872   5.383   7.789   9.337
  208K+      K+  873   0.800   0.689   2.151
  209K+      K+  874   5.850   4.564   4.550
  210K+      K+  875   4.335   4.832   0.751
  211K+      K+  876   1.922   0.147   3.814
  212WAT      O  877   4.954   3.381   5.689
  212WAT     H1  878   4.915   3.311   5.748
  212WAT     H2  879   4.885   3.411   5.622
  213WAT      O  880   3.037   1.975   1.934
  213WAT     H1  881   2.990   2.063   1.925
  213WAT     H2  882   2.975   1.901   1.907
  214WAT      O  883   5.281   5.164   1.403
  214WAT     H1  884   5.319   5.088   1.350
  214WAT     H2  885   5.265   5.135   1.497
  215WAT      O  886   2.897   6.937   4.591
  215WAT     H1  887   2.915   6.839   4.580
  215WAT     H2  888   2.813   6.949   4.643
  216WAT      O  889   5.000   4.252   2.646
  216WAT     H1  890   5.051   4.336   2.629
  216WAT     H2  891   5.060   4.173   2.634
  217WAT      O  892   0.768   5.547   7.694
  217WAT     H1  893   0.753   5.577   7.788
  217WAT     H2  894   0.776   5.447   7.692
  218WAT      O  895   7.857   6.861   3.379
  218WAT     H1  896   7.909   6.867   3.294
  218WAT     H2  897   7.851   6.765   3.408
  219WAT      O  898   0.169   1.101   5.181
  219WAT     H1  899   0.096   1.081   5.115
  219WAT     H2  900   0.130   1.101   5.273
  220WAT      O  901   6.145   2.377   6.587
  220WAT     H1  902   6.154   2.368   6.687
  220WAT     H2  903   6.176   2.292   6.544
  221WAT      O  904   3.369   8.696   5.392
  221WAT     H1  905   3.294   8.752   5.428
  221WAT     H2  906   3.411   8.743   5.314
  222WAT      O  907   6.073   0.862   4.793
  222WAT     H1  908   6.151   0.923   4.783
  222WAT     H2  909   6.105   0.767   4.787
  223WAT      O  910   2.166   6.310   0.396
  223WAT     H1  911   2.182   6.213   0.379
  223WAT     H2  912   2.209   6.336   0.483
  224WAT      O  913   9.291   2.038   7.313
  224WAT     H1  914   9.355   2.080   7.377
  224WAT     H2  915   9.244   1.962   7.357
  225WAT      O  916   4.761   4.452   6.209
  225WAT     H1  917   4.690   4.482   6.272
  225WAT     H2  918   4.800   4.531   6.163
  226WAT      O  919   4.841   6.985   6.733
  226WAT     H1  920   4.851   7.072   6.686
  226WAT     H2  921   4.744   6.960   6.738
  227WAT      O  922   1.182   4.439   6.442
  227WAT     H1  923   1.258   4.474   6.497
  227WAT     H2  924   1.176   4.340   6.454
  228WAT      O  925   8.988   8.748   5.923
  228WAT     H1  926   8.959   8.839   5.952
  228WAT     H2  927   9.062   8.756   5.856
  229WAT      O  928   8.767   8.803   9.653
  229WAT     H1  929   8.798   8.774   9.563
  229WAT     H2  930   8.668   8.786   9.661
  230WAT      O  931   5.183   2.607   3.533
  230WAT     H1  932   5.240   2.548   3.590
  230WAT     H2  933   5.101   2.634   3.583
  231WAT      O  934   4.657   5.272   8.138
  231WAT     H1  935   4.705   5.196   8.095
  231WAT     H2  936   4.579   5.299   8.081
  232WAT      O  937   6.234   1.216   8.786
  232WAT     H1  938   6.193   1.125   8.793
  232WAT     H2  939   6.162   1.285   8.797
  233WAT      O  940   4.261   2.753   7.479
  233WAT     H1  941   4.314   2.669   7.485
  233WAT     H2  942   4.236   2.783   7.572
  234WAT      O  943   9.349   7.137   8.385
  234WAT     H1  944   9.321   7.049   8.348
  234WAT     H2  945   9.381   7.196   8.310
  235WAT      O  946   2.009   6.334   5.261
  235WAT     H1  947   2.037   6.300   5.351
  235WAT     H2  948   2.086   6.381   5.218
  236WAT      O  949   4.942   9.092   0.655
  236WAT     H1  950   4.973   9.030   0.727
  236WAT     H2  951   5.013   9.159   0.635
  237WAT      O  952   8.721   1.083   5.472
  237WAT     H1  953   8.760   1.005   5.521
  237WAT     H2  954   8.682   1.053   5.385
  238WAT      O  955   1.225   7.202   6.693
  238WAT     H1  956   1.225   7.148   6.777
  238WAT     H2  957   1.265   7.292   6.711
  239WAT      O  958   8.924   7.394   8.549
  239WAT     H1  959   8.836   7.355   8.576
  239WAT     H2  960   8.995   7.363   8.613
  240WAT      O  961   7.396   6.759   7.749
  240WAT     H1  962   7.405   6.661   7.732
  240WAT     H2  963   7.461   6.809   7.692
  241WAT      O  964   8.764   4.032   8.389
  241WAT     H1  965   8.746   4.129   8.404
  241WAT     H2  966   8.681   3.987   8.358
  242WAT      O  967   1.464   7.006   7.608
  242WAT     H1  968   1.397   7.080   7.596
  242WAT     H2  969   1.488   6.968   7.519
  243WAT      O  970   7.921   1.473   2.023
  243WAT     H1  971   7.969   1.560   2.022
  243WAT     H2  972   7.983   1.401   2.054
  244WAT      O  973   9.748   0.566   6.700
  244WAT     H1  974   9.750   0.637   6.770
  244WAT     H2  975   9.779   0.479   6.740
  245WAT      O  976   5.169   4.211   1.087
  245WAT     H1  977   5.182   4.305   1.119
  245WAT     H2  978   5.186   4.147   1.162
  246WAT      O  979   1.084   8.175   3.524
  246WAT     H1  980   1.123   8.101   3.469
  246WAT     H2  981   1.052   8.138   3.611
  247WAT      O  982   3.986   4.350   0.624
  247WAT     H1  983   4.069   4.390   0.584
  247WAT     H2  984   3.909   4.364   0.562
  248WAT      O  985   0.362   0.303   4.821
  248WAT     H1  986   0.398   0.210   4.822
  248WAT     H2  987   0.345   0.332   4.727
  249WAT      O  988   1.321   4.809   2.299
  249WAT     H1  989   1.320   4.756   2.383
  249WAT     H2  990   1.297   4.904   2.319
  250WAT      O  991   1.551   1.755   1.637
  250WAT     H1  992   1.513   1.663   1.623
  250WAT     H2  993   1.644   1.758   1.600
  251WAT      O  994   6.741   6.987   8.067
  251WAT     H1  995   6.833   6.950   8.056
  251WAT     H2  996   6.706   6.962   8.157
  252WAT      O  997   2.651   6.510   7.965
  252WAT     H1  998   2.679   6.425   7.921
  252WAT     H2  999   2.554   6.504   7.989
  253WAT      O 1000   9.628   0.921   5.541
  253WAT     H1 1001   9.536   0.961   5.544
  253WAT     H2 1002   9.621   0.824   5.518
  254WAT      O 1003   9.281   0.686   0.786
  254WAT     H1 1004   9.240   0.713   0.698
  254WAT     H2 1005   9.370   0.645   0.769
  255WAT      O 1006   2.322   4.057   9.310
  255WAT     H1 1007   2.305   4.024   9.217
  255WAT     H2 1008   2.310   3.981   9.375
  256WAT      O 1009   8.573   1.475   2.196
  256WAT     H1 1010   8.558   1.550   2.261
  256WAT     H2 1011   8.613   1.397   2.244
  257WAT      O 1012   2.331   9.765   6.793
  257WAT     H1 1013   2.264   9.791   6.724
  257WAT     H2 1014   2.417   9.813   6.775
  258WAT      O 1015   5.888   7.499   7.056
  258WAT     H1 1016   5.790   7.489   7.041
  258WAT     H2 1017   5.911   7.471   7.150
  259WAT      O 1018   5.516   6.222   6.755
  259WAT     H1 1019   5.496   6.312   6.717
  259WAT     H2 1020   5.558   6.165   6.685
  260WAT      O 1021   3.344   0.123   9.179
  260WAT     H1 1022   3.408   0.108   9.103
  260WAT     H2 1023   3.369   0.063   9.255
  261WAT      O 1024   8.212   8.360   7.338
  261WAT     H1 1025   8.199   8.298   7.415
  261WAT     H2 1026   8.249   8.447   7.371
  262WAT      O 1027   4.986   6.105   7.879
  262WAT     H1 1028   5.059   6.079   7.943
  262WAT     H2 1029   4.905   6.049   7.897
  263WAT      O 1030   7.475   9.068   7.372
  263WAT     H1 1031   7.460   9.152   7.425
  263WAT     H2 1032   7.395   9.051   7.315
  264WAT      O 1033   6.585   0.795   4.440
  264WAT     H1 1034   6.638   0.720   4.481
  264WAT     H2 1035   6.588   0.787   4.341
  265WAT      O 1036   0.769   3.763   4.767
  265WAT     H1 1037   0.769   3.722   4.858
  265WAT     H2 1038   0.721   3.702   4.703
  266WAT      O 1039   3.623   0.630   4.119
  266WAT     H1 1040   3.528   0.654   4.100
  266WAT     H2 1041   3.653   0.559   4.056
  267WAT      O 1042   0.852   9.501   0.518
  267WAT     H1 1043   0.827   9.457   0.604
  267WAT     H2 1044   0.820   9.446   0.441
  268WAT      O 1045   0.377   4.653   8.744
  268WAT     H1 1046   0.460   4.703   8.717
  268WAT     H2 1047   0.403   4.563   8.780
  269WAT      O 1048   4.445   5.141   6.876
  269WAT     H1 1049   4.452   5.143   6.975
  269WAT     H2 1050   4.382   5.069   6.848
  270WAT      O 1051   8.193   6.286   4.917
  270WAT     H1 1052   8.131   6.212   4.889
  270WAT     H2 1053   8.282   6.248   4.941
  271WAT      O 1054   3.391   6.435   8.896
  271WAT     H1 1055   3.405   6.438   8.995
  271WAT     H2 1056   3.298   6.464   8.874
  272WAT      O 1057   9.724   4.913   2.787
  272WAT     H1 1058   9.656   4.878   2.723
  272WAT     H2 1059   9.794   4.963   2.737
  273WAT      O 1060   5.750   7.835   1.575
  273WAT     H1 1061   5.818   7.903   1.603
  273WAT     H2 1062   5.670   7.842   1.635
  274WAT      O 1063   7.427   8.308   9.337
  274WAT     H1 1064   7.522   8.334   9.321
  274WAT     H2 1065   7.420   8.258   9.423
  275WAT      O 1066   7.588   1.063   6.557
  275WAT     H1 1067   7.553   1.053   6.650
  275WAT     H2 1068   7.546   1.143   6.514
  276WAT      O 1069   4.287   5.028   3.082
  276WAT     H1 1070   4.206   5.064   3.036
  276WAT     H2 1071   4.273   5.028   3.181
  277WAT      O 1072   8.442   2.504   9.583
  277WAT     H1 1073   8.399   2.565   9.518
  277WAT     H2 1074   8.478   2.424   9.535
  278WAT      O 1075   1.543   9.681   9.522
  278WAT     H1 1076   1.580   9.771   9.544
  278WAT     H2 1077   1.598   9.610   9.567
  279WAT      O 1078   3.780   6.509   1.028
  279WAT     H1 1079   3.762   6.485   1.124
  279WAT     H2 1080   3.830   6.596   1.025
  280WAT      O 1081   7.012   8.775   2.763
  280WAT     H1 1082   7.064   8.728   2.834
  280WAT     H2 1083   7.030   8.731   2.674
  281WAT      O 1084   2.762   1.734   7.407
  281WAT     H1 1085   2.667   1.765   7.400
  281WAT     H2 1086   2.785   1.719   7.503
  282WAT      O 1087   7.945   1.520   4.377
  282WAT     H1 1088   8.023   1.465   4.403
  282WAT     H2 1089   7.883   1.466   4.320
  283WAT      O 1090   3.831   5.590   7.268
  283WAT     H1 1091   3.804   5.686   7.263
  283WAT     H2 1092   3.753   5.534   7.293
  284WAT      O 1093   9.806   2.346   6.125
  284WAT     H1 1094   9.825   2.260   6.077
  284WAT     H2 1095   9.797   2.329   6.223
  285WAT      O 1096   5.546   1.778   3.906
  285WAT     H1 1097   5.511   1.685   3.918
  285WAT     H2 1098   5.608   1.800   3.981
  286WAT      O 1099   8.060   5.845   3.392
  286WAT     H1 1100   8.062   5.919   3.458
  286WAT     H2 1101   8.123   5.866   3.317
  287WAT      O 1102   1.390   0.385   2.558
  287WAT     H1 1103   1.429   0.378   2.466
  287WAT     H2 1104   1.463   0.389   2.626
  288WAT      O 1105   2.838   0.639   0.269
  288WAT     H1 1106   2.885   0.695   0.337
  288WAT     H2 1107   2.898   0.626   0.190
  289WAT      O 1108   4.260   5.918   7.247
  289WAT     H1 1109   4.287   5.986   7.316
  289WAT     H2 1110   4.238   5.964   7.161
  290WAT      O 1111   2.227   8.159   5.987
  290WAT     H1 1112   2.292   8.111   6.046
  290WAT     H2 1113   2.135   8.127   6.006
  291WAT      O 1114   0.460   9.131   3.975
  291WAT     H1 1115   0.404   9.159   3.897
  291WAT     H2 1116   0.402   9.084   4.042
  292WAT      O 1117   4.455   5.275   3.115
  292WAT     H1 1118   4.399   5.194   3.096
  292WAT     H2 1119   4.468   5.327   3.030
  293WAT      O 1120   9.585   7.295   6.989
  293WAT     H1 1121   9.486   7.283   6.982
  293WAT     H2 1122   9.605   7.364   7.059
  294WAT      O 1123   4.350   1.222   9.740
  294WAT     H1 1124   4.311   1.167   9.666
  294WAT     H2 1125   4.413   1.289   9.702
  295WAT      O 1126   6.546   0.316   6.810
  295WAT     H1 1127   6.627   0.266   6.841
  295WAT     H2 1128   6.565   0.414   6.813
  296WAT      O 1129   4.999   8.828   9.076
  296WAT     H1 1130   4.938   8.895   9.035
  296WAT     H2 1131   5.039   8.770   9.005
  297WAT      O 1132   6.693   1.687   6.780
  297WAT     H1 1133   6.651   1.605   6.741
  297WAT     H2 1134   6.665   1.696   6.876
  298WAT      O 1135   3.868   7.281   1.243
  298WAT     H1 1136   3.831   7.305   1.332
  298WAT     H2 1137   3.793   7.276   1.176
  299WAT      O 1138   5.018   8.931   4.705
  299WAT     H1 1139   4.932   8.956   4.749
  299WAT     H2 1140   5.071   8.873   4.766
  300WAT      O 1141   6.246   0.833   4.204
  300WAT     H1 1142   6.272   0.802   4.295
  300WAT     H2 1143   6.154   0.872   4.207
  301WAT      O 1144   0.530   0.356   6.330
  301WAT     H1 1145   0.471   0.358   6.250
  301WAT     H2 1146   0.482   0.396   6.408
  302WAT      O 1147   5.604   3.907   6.220
  302WAT     H1 1148   5.670   3.966   6.268
  302WAT     H2 1149   5.587   3.825   6.275
  303WAT      O 1150   4.957   3.690   3.330
  303WAT     H1 1151   4.982   3.683   3.426
  303WAT     H2 1152   4.962   3.600   3.287
  304WAT      O 1153   8.284   7.622   4.691
  304WAT     H1 1154   8.303   7.540   4.744
  304WAT     H2 1155   8.285   7.600   4.593
  305WAT      O 1156   3.660   0.619   9.738
  305WAT     H1 1157   3.587   0.634   9.671
  305WAT     H2 1158   3.642   0.674   9.820
  306WAT      O 1159   9.738   3.424   3.872
  306WAT     H1 1160   9.787   3.490   3.931
  306WAT     H2 1161   9.656   3.393   3.919
  307WAT      O 1162   6.937   4.306   3.274
  307WAT     H1 1163   6.954   4.335   3.368
  307WAT     H2 1164   6.869   4.233   3.274
  308WAT      O 1165   2.746   6.524   7.294
  308WAT     H1 1166   2.742   6.433   7.336
  308WAT     H2 1167   2.739   6.516   7.195
  309WAT      O 1168   5.494   4.515   4.245
  309WAT     H1 1169   5.438   4.584   4.199
  309WAT     H2 1170   5.438   4.436   4.270
  310WAT      O 1171   0.441   6.109   7.883
  310WAT     H1 1172   0.432   6.082   7.979
  310WAT     H2 1173   0.351   6.132   7.846
  311WAT      O 1174   1.660   4.479   5.446
  311WAT     H1 1175   1.662   4.428   5.360
  311WAT     H2 1176   1.570   4.469   5.488
  312WAT      O 1177   9.346   0.430   5.489
  312WAT     H1 1178   9.380   0.488   5.563
  312WAT     H2 1179   9.422   0.405   5.429
  313WAT      O 1180   1.226   4.214   1.732
  313WAT     H1 1181   1.272   4.291   1.776
  313WAT     H2 1182   1.134   4.204   1.770
  314WAT      O 1183   9.882   9.808   0.816
  314WAT     H1 1184   9.950   9.844   0.753
  314WAT     H2 1185   9.925   9.788   0.904
  315WAT      O 1186   0.559   4.410   8.728
  315WAT     H1 1187   0.604   4.452   8.806
  315WAT     H2 1188   0.610   4.432   8.644
  316WAT      O 1189   2.814   5.725   5.057
  316WAT     H1 1190   2.910   5.723   5.030
  316WAT     H2 1191   2.803   5.684   5.147
  317WAT      O 1192   9.734   6.009   6.389
  317WAT     H1 1193   9.794   6.030   6.313
  317WAT     H2 1194   9.640   5.998   6.356
  318WAT      O 1195   0.611   5.794   2.647
  318WAT     H1 1196   0.616   5.696   2.669
  318WAT     H2 1197   0.529   5.833   2.688
  319WAT      O 1198   4.694   9.542   5.930
  319WAT     H1 1199   4.647   9.521   6.016
  319WAT     H2 1200   4.627   9.546   5.856
  320WAT      O 1201   8.424   6.592   1.534
  320WAT     H1 1202   8.517   6.612   1.565
  320WAT     H2 1203   8.419   6.604   1.435
  321WAT      O 1204   2.172   4.519   4.969
  321WAT     H1 1205   2.165   4.421   4.986
  321WAT     H2 1206   2.247   4.557   5.024
  322WAT      O 1207   2.603   7.523   6.634
  322WAT     H1 1208   2.593   7.456   6.560
  322WAT     H2 1209   2.548   7.495   6.712
  323WAT      O 1210   4.491   7.231   5.463
  323WAT     H1 1211   4.591   7.227   5.470
  323WAT     H2 1212   4.453   7.257   5.551
  324WAT      O 1213   2.663   4.805   0.504
  324WAT     H1 1214   2.590   4.844   0.560
  324WAT     H2 1215   2.701   4.876   0.444
  325WAT      O 1216   6.525   8.074   1.141
  325WAT     H1 1217   6.466   8.009   1.190
  325WAT     H2 1218   6.611   8.029   1.117
  326WAT      O 1219   7.142   5.038   4.657
  326WAT     H1 1220   7.191   4.978   4.594
  326WAT     H2 1221   7.134   4.993   4.746
  327WAT      O 1222   0.205   8.730   5.914
  327WAT     H1 1223   0.135   8.734   5.843
  327WAT     H2 1224   0.178   8.789   5.991
  328WAT      O 1225   0.555   0.740   4.821
  328WAT     H1 1226   0.546   0.648   4.782
  328WAT     H2 1227   0.485   0.753   4.891
  329WAT      O 1228   8.142   1.584   7.592
  329WAT     H1 1229   8.190   1.659   7.547
  329WAT     H2 1230   8.182   1.497   7.563
  330WAT      O 1231   4.485   1.592   2.359
  330WAT     H1 1232   4.529   1.645   2.431
  330WAT     H2 1233   4.401   1.638   2.330
  331WAT      O 1234   6.038   9.349   2.321
  331WAT     H1 1235   6.024   9.250   2.329
  331WAT     H2 1236   5.977   9.397   2.383
  332WAT      O 1237   7.393   8.715   3.024
  332WAT     H1 1238   7.439   8.728   3.113
  332WAT     H2 1239   7.412   8.623   2.990
  333WAT      O 1240   6.611   1.646   5.735
  333WAT     H1 1241   6.512   1.660   5.743
  333WAT     H2 1242   6.656   1.679   5.818
  334WAT      O 1243   4.398   0.302   0.337
  334WAT     H1 1244   4.374   0.287   0.433
  334WAT     H2 1245   4.433   0.217   0.297
  335WAT      O 1246   3.147   6.963   7.467
  335WAT     H1 1247   3.120   6.883   7.414
  335WAT     H2 1248   3.067   7.022   7.482
  336WAT      O 1249   5.194   9.551   9.832
  336WAT     H1 1250   5.278   9.599   9.860
  336WAT     H2 1251   5.217   9.483   9.763
  337WAT      O 1252   9.242   2.482   6.882
  337WAT     H1 1253   9.313   2.484   6.812
  337WAT     H2 1254   9.282   2.451   6.968
  338WAT      O 1255   5.022   8.690   7.972
  338WAT     H1 1256   4.962   8.616   8.003
  338WAT     H2 1257   5.105   8.691   8.027
  339WAT      O 1258   2.147   8.788   8.224
  339WAT     H1 1259   2.056   8.767   8.188
  339WAT     H2 1260   2.150   8.770   8.322
  340WAT      O 1261   7.014   3.973   6.292
  340WAT     H1 1262   7.087   3.916   6.254
  340WAT     H2 1263   7.000   4.053   6.233
  341WAT      O 1264   7.068   6.059   6.192
  341WAT     H1 1265   6.988   6.100   6.148
  341WAT     H2 1266   7.042   6.023   6.281
  342WAT      O 1267   5.675   6.267   1.949
  342WAT     H1 1268   5.649   6.340   1.886
  342WAT     H2 1269   5.672   6.301   2.043
  343WAT      O 1270   6.153   1.410   9.648
  343WAT     H1 1271   6.201   1.485   9.604
  343WAT     H2 1272   6.054   1.421   9.635
  344WAT      O 1273   3.289   8.429   6.873
  344WAT     H1 1274   3.306   8.473   6.961
  344WAT     H2 1275   3.191   8.420   6.858
  345WAT      O 1276   4.097   0.666   1.094
  345WAT     H1 1277   4.124   0.578   1.056
  345WAT     H2 1278   3.997   0.673   1.095
  346WAT      O 1279   4.249   2.476   4.763
  346WAT     H1 1280   4.153   2.449   4.777
  346WAT     H2 1281   4.282   2.525   4.844
  347WAT      O 1282   1.294   6.909   5.621
  347WAT     H1 1283   1.302   6.992   5.675
  347WAT     H2 1284   1.386   6.874   5.600
  348WAT      O 1285   7.958   5.241   8.297
  348WAT     H1 1286   7.928   5.326   8.340
  348WAT     H2 1287   7.997   5.261   8.207
  349WAT      O 1288   7.059   7.952   2.039
  349WAT     H1 1289   7.039   7.870   1.986
  349WAT     H2 1290   7.134   8.003   1.997
  350WAT      O 1291   0.104   6.490   1.260
  350WAT     H1 1292   0.166   6.420   1.294
  350WAT     H2 1293   0.116   6.500   1.161
  351WAT      O 1294   1.262   7.837   6.356
  351WAT     H1 1295   1.305   7.922   6.386
  351WAT     H2 1296   1.319   7.759   6.383
  352WAT      O 1297   3.508   3.433   4.678
  352WAT     H1 1298   3.550   3.479   4.756
  352WAT     H2 1299   3.430   3.378   4.709
  353WAT      O 1300   0.375   2.205   9.043
  353WAT     H1 1301   0.297   2.193   8.981
  353WAT     H2 1302   0.460   2.181   8.995
  354WAT      O 1303   1.845   6.133   4.955
  354WAT     H1 1304   1.814   6.169   5.043
  354WAT     H2 1305   1.938   6.097   4.963
  355WAT      O 1306   4.849   9.840   3.300
  355WAT     H1 1307   4.802   9.923   3.330
  355WAT     H2 1308   4.810   9.809   3.214
  356WAT      O 1309   3.604   5.743   2.674
  356WAT     H1 1310   3.652   5.740   2.761
  356WAT     H2 1311   3.581   5.838   2.651
  357WAT      O 1312   0.725   6.884   2.142
  357WAT     H1 1313   0.700   6.953   2.074
  357WAT     H2 1314   0.804   6.832   2.108
  358WAT      O 1315   0.885   7.994   8.644
  358WAT     H1 1316   0.887   7.928   8.568
  358WAT     H2 1317   0.955   7.969   8.711
  359WAT      O 1318   0.673   7.205   1.636
  359WAT     H1 1319   0.656   7.165   1.546
  359WAT     H2 1320   0.763   7.176   1.669
  360WAT      O 1321   0.634   4.582   1.901
  360WAT     H1 1322   0.705   4.651   1.883
  360WAT     H2 1323   0.547   4.613   1.862
  361WAT      O 1324   5.146   6.798   5.273
  361WAT     H1 1325   5.090   6.735   5.326
  361WAT     H2 1326   5.088   6.867   5.230
  362WAT      O 1327   1.505   9.375   8.250
  362WAT     H1 1328   1.450   9.410   8.326
  362WAT     H2 1329   1.534   9.450   8.192
  363WAT      O 1330   5.905   5.409   8.537
  363WAT     H1 1331   5.890   5.428   8.441
  363WAT     H2 1332   5.872   5.486   8.592
  364WAT      O 1333   5.994   2.842   5.565
  364WAT     H1 1334   5.983   2.886   5.654
  364WAT     H2 1335   6.025   2.909   5.498
  365WAT      O 1336   8.528   3.617   8.540
  365WAT     H1 1337   8.525   3.571   8.629
  365WAT     H2 1338   8.560   3.552   8.470
  366WAT      O 1339   0.848   7.975   5.435
  366WAT     H1 1340   0.941   7.977   5.472
  366WAT     H2 1341   0.849   7.938   5.343
  367WAT      O 1342   2.382   5.505   8.460
  367WAT     H1 1343   2.402   5.412   8.431
  367WAT     H2 1344   2.330   5.552   8.389
  368WAT      O 1345   3.695   7.446   3.512
  368WAT     H1 1346   3.726   7.448   3.417
  368WAT     H2 1347   3.754   7.384   3.564
  369WAT      O 1348   1.277   0.850   4.309
  369WAT     H1 1349   1.237   0.881   4.395
  369WAT     H2 1350   1.205   0.833   4.242
  370WAT      O 1351   9.778   1.556   5.890
  370WAT     H1 1352   9.819   1.558   5.981
  370WAT     H2 1353   9.679   1.573   5.897
  371WAT      O 1354   9.306   8.873   0.310
  371WAT     H1 1355   9.393   8.923   0.311
  371WAT     H2 1356   9.235   8.931   0.269
  372WAT      O 1357   7.791   3.943   8.905
  372WAT     H1 1358   7.851   3.875   8.946
  372WAT     H2 1359   7.770   3.918   8.810
  373WAT      O 1360   9.236   6.248   0.164
  373WAT     H1 1361   9.165   6.264   0.232
  373WAT     H2 1362   9.326   6.260   0.206
  374WAT      O 1363   2.002   2.629   7.188
  374WAT     H1 1364   1.979   2.598   7.096
  374WAT     H2 1365   2.045   2.554   7.238
  375WAT      O 1366   6.155   3.846   5.454
  375WAT     H1 1367   6.227   3.850   5.385
  375WAT     H2 1368   6.193   3.810   5.540
  376WAT      O 1369   8.014   7.025   3.197
  376WAT     H1 1370   8.018   7.043   3.098
  376WAT     H2 1371   7.962   7.098   3.242
  377WAT      O 1372   1.292   7.851   7.534
  377WAT     H1 1373   1.315   7.834   7.630
  377WAT     H2 1374   1.266   7.947   7.522
  378WAT      O 1375   5.761   5.603   8.044
  378WAT     H1 1376   5.755   5.632   7.949
  378WAT     H2 1377   5.776   5.683   8.102
  379WAT      O 1378   8.282   6.119   0.888
  379WAT     H1 1379   8.357   6.135   0.824
  379WAT     H2 1380   8.236   6.033   0.865
  380WAT      O 1381   3.442   2.789   4.611
  380WAT     H1 1382   3.480   2.863   4.556
  380WAT     H2 1383   3.438   2.706   4.556
  381WAT      O 1384   6.378   3.248   6.837
  381WAT     H1 1385   6.471   3.247   6.801
  381WAT     H2 1386   6.376   3.202   6.926
  382WAT      O 1387   6.154   6.488  -0.003
  382WAT     H1 1388   6.200   6.576   0.005
  382WAT     H2 1389   6.152   6.443   0.086
  383WAT      O 1390   6.779   6.360   1.092
  383WAT     H1 1391   6.854   6.414   1.130
  383WAT     H2 1392   6.803   6.326   1.001
  384WAT      O 1393   9.455   0.100   5.536
  384WAT     H1 1394   9.441   0.149   5.450
  384WAT     H2 1395   9.526   0.146   5.589
  385WAT      O 1396   9.249   9.785   9.145
  385WAT     H1 1397   9.159   9.767   9.104
  385WAT     H2 1398   9.292   9.698   9.170
  386WAT      O 1399   5.448   1.424   1.379
  386WAT     H1 1400   5.524   1.472   1.334
  386WAT     H2 1401   5.369   1.485   1.385
  387WAT      O 1402   6.256   7.956   3.019
  387WAT     H1 1403   6.226   8.051   3.006
  387WAT     H2 1404   6.330   7.936   2.955
  388WAT      O 1405   2.831   0.216   0.582
  388WAT     H1 1406   2.849   0.175   0.492
  388WAT     H2 1407   2.735   0.241   0.589
  389WAT      O 1408   9.191   9.457   1.590
  389WAT     H1 1409   9.184   9.361   1.617
  389WAT     H2 1410   9.100   9.493   1.569
  390WAT      O 1411   8.584   9.357   3.162
  390WAT     H1 1412   8.492   9.388   3.187
  390WAT     H2 1413   8.611   9.282   3.223
  391WAT      O 1414   3.644   8.212   4.895
  391WAT     H1 1415   3.691   8.280   4.838
  391WAT     H2 1416   3.589   8.152   4.837
  392WAT      O 1417   7.544   4.496   3.286
  392WAT     H1 1418   7.493   4.488   3.372
  392WAT     H2 1419   7.624   4.554   3.299
  393WAT      O 1420   0.594   8.892   5.994
  393WAT     H1 1421   0.618   8.986   5.970
  393WAT     H2 1422   0.552   8.847   5.915
  394WAT      O 1423   1.769   5.353   9.645
  394WAT     H1 1424   1.866   5.373   9.657
  394WAT     H2 1425   1.717   5.438   9.638
  395WAT      O 1426   2.468   1.677   7.516
  395WAT     H1 1427   2.467   1.580   7.540
  395WAT     H2 1428   2.399   1.695   7.446
  396WAT      O 1429   6.838   0.022   7.950
  396WAT     H1 1430   6.773   0.088   7.987
  396WAT     H2 1431   6.924   0.027   8.001
  397WAT      O 1432   9.347   2.998   3.034
  397WAT     H1 1433   9.420   3.065   3.018
  397WAT     H2 1434   9.259   3.045   3.034
  398WAT      O 1435   3.503   9.518   8.393
  398WAT     H1 1436   3.513   9.570   8.478
  398WAT     H2 1437   3.553   9.564   8.320
  399WAT      O 1438   7.115   9.639   3.306
  399WAT     H1 1439   7.055   9.587   3.367
  399WAT     H2 1440   7.124   9.591   3.219
  400WAT      O 1441   0.906   6.389   8.045
  400WAT     H1 1442   0.974   6.323   8.011
  400WAT     H2 1443   0.814   6.351   8.035
  401WAT      O 1444   7.563   6.767   3.688
  401WAT     H1 1445   7.598   6.812   3.606
  401WAT     H2 1446   7.549   6.670   3.670
  402WAT      O 1447   8.955   9.841   2.748
  402WAT     H1 1448   9.001   9.762   2.707
  402WAT     H2 1449   9.015   9.921   2.743
  403WAT      O 1450   0.061   4.010   3.513
  403WAT     H1 1451   0.118   3.987   3.433
  403WAT     H2 1452   0.041   3.927   3.564
  404WAT      O 1453   4.824   3.062   2.740
  404WAT     H1 1454   4.740   3.115   2.753
  404WAT     H2 1455   4.898   3.101   2.796
  405WAT      O 1456   1.562   5.769   4.940
  405WAT     H1 1457   1.556   5.855   4.890
  405WAT     H2 1458   1.603   5.699   4.881
  406WAT      O 1459   8.683   8.427   2.522
  406WAT     H1 1460   8.753   8.497   2.534
  406WAT     H2 1461   8.722   8.337   2.544
  407WAT      O 1462   1.060   0.723   7.329
  407WAT     H1 1463   1.047   0.656   7.256
  407WAT     H2 1464   0.980   0.723   7.389
  408WAT      O 1465   1.728   3.750   2.164
  408WAT     H1 1466   1.711   3.738   2.261
  408WAT     H2 1467   1.789   3.678   2.131
  409WAT      O 1468   3.563   2.604   1.343
  409WAT     H1 1469   3.526   2.541   1.275
  409WAT     H2 1470   3.499   2.679   1.357
  410WAT      O 1471   8.620   4.268   0.666
  410WAT     H1 1472   8.635   4.190   0.605
  410WAT     H2 1473   8.535   4.315   0.640
  411WAT      O 1474   8.059   4.560   0.310
  411WAT     H1 1475   8.075   4.644   0.259
  411WAT     H2 1476   8.146   4.516   0.331
  412WAT      O 1477   6.867   9.595   9.155
  412WAT     H1 1478   6.875   9.532   9.078
  412WAT     H2 1479   6.951   9.649   9.163
  413WAT      O 1480   4.302   6.677   5.804
  413WAT     H1 1481   4.347   6.689   5.715
  413WAT     H2 1482   4.273   6.582   5.815
  414WAT      O 1483   5.116   8.116   9.319
  414WAT     H1 1484   5.082   8.058   9.393
  414WAT     H2 1485   5.188   8.068   9.269
  415WAT      O 1486   3.632   2.768   2.363
  415WAT     H1 1487   3.691   2.840   2.397
  415WAT     H2 1488   3.669   2.679   2.390
  416WAT      O 1489   6.474   9.328   5.066
  416WAT     H1 1490   6.554   9.319   5.007
  416WAT     H2 1491   6.396   9.283   5.023
  417WAT      O 1492   4.113   1.709   9.887
  417WAT     H1 1493   4.149   1.794   9.848
  417WAT     H2 1494   4.018   1.723   9.914
  418WAT      O 1495   4.080   3.746   1.549
  418WAT     H1 1496   4.176   3.754   1.521
  418WAT     H2 1497   4.044   3.837   1.569
  419WAT      O 1498   7.313   5.780   4.347
  419WAT     H1 1499   7.281   5.732   4.429
  419WAT     H2 1500   7.407   5.752   4.327
  420WAT      O 1501   1.641   9.150   1.439
  420WAT     H1 1502   1.644   9.114   1.346
  420WAT     H2 1503   1.733   9.149   1.478
  421WAT      O 1504   3.822   5.619   8.609
  421WAT     H1 1505   3.776   5.707   8.597
  421WAT     H2 1506   3.841   5.579   8.519
  422WAT      O 1507   4.494   9.826   2.811
  422WAT     H1 1508   4.581   9.834   2.860
  422WAT     H2 1509   4.501   9.873   2.723
  423WAT      O 1510   5.885   0.523   0.118
  423WAT     H1 1511   5.933   0.581   0.183
  423WAT     H2 1512   5.933   0.436   0.108
  424WAT      O 1513   0.957   6.978   6.838
  424WAT     H1 1514   1.007   6.951   6.920
  424WAT     H2 1515   0.927   7.073   6.846
  425WAT      O 1516   4.228   1.224   9.077
  425WAT     H1 1517   4.194   1.198   8.987
  425WAT     H2 1518   4.325   1.199   9.085
  426WAT      O 1519   9.363   4.582   7.320
  426WAT     H1 1520   9.414   4.555   7.402
  426WAT     H2 1521   9.325   4.673   7.332
  427WAT      O 1522   6.304   6.633   7.999
  427WAT     H1 1523   6.247   6.557   8.033
  427WAT     H2 1524   6.245   6.711   7.977
  428WAT      O 1525   7.468   2.545   2.946
  428WAT     H1 1526   7.440   2.502   2.860
  428WAT     H2 1527   7.539   2.489   2.989
  429WAT      O 1528   8.028   8.514   6.052
  429WAT     H1 1529   8.103   8.509   5.985
  429WAT     H2 1530   7.952   8.458   6.021
  430WAT      O 1531   5.533   2.165   8.092
  430WAT     H1 1532   5.473   2.121   8.025
  430WAT     H2 1533   5.519   2.264   8.089
  431WAT      O 1534   5.557   9.307   4.516
  431WAT     H1 1535   5.487   9.378   4.515
  431WAT     H2 1536   5.646   9.347   4.536
  432WAT      O 1537   7.516   8.041   6.758
  432WAT     H1 1538   7.448   8.097   6.711
  432WAT     H2 1539   7.572   8.099   6.818
  433WAT      O 1540   1.812   6.426   3.173
  433WAT     H1 1541   1.723   6.455   3.208
  433WAT     H2 1542   1.836   6.337   3.211
  434WAT      O 1543   9.482   3.824   5.789
  434WAT     H1 1544   9.501   3.921   5.775
  434WAT     H2 1545   9.418   3.792   5.719
  435WAT      O 1546   0.386   8.338   3.509
  435WAT     H1 1547   0.456   8.408   3.523
  435WAT     H2 1548   0.377   8.283   3.592
  436WAT      O 1549   0.186   7.654   4.401
  436WAT     H1 1550   0.188   7.751   4.379
  436WAT     H2 1551   0.224   7.639   4.492
  437WAT      O 1552   0.745   0.172   7.587
  437WAT     H1 1553   0.752   0.260   7.633
  437WAT     H2 1554   0.805   0.171   7.506
  438WAT      O 1555   3.735   3.262   3.080
  438WAT     H1 1556   3.737   3.169   3.115
  438WAT     H2 1557   3.778   3.324   3.146
  439WAT      O 1558   9.067   9.456   8.805
  439WAT     H1 1559   9.152   9.507   8.820
  439WAT     H2 1560   9.027   9.483   8.718
  440WAT      O 1561   6.167   2.867   7.459
  440WAT     H1 1562   6.179   2.890   7.555
  440WAT     H2 1563   6.070   2.869   7.436
  441WAT      O 1564   4.305   3.549   5.880
  441WAT     H1 1565   4.312   3.548   5.780
  441WAT     H2 1566   4.355   3.471   5.917
  442WAT      O 1567   1.106   9.385   9.839
  442WAT     H1 1568   1.061   9.472   9.858
  442WAT     H2 1569   1.189   9.377   9.894
  443WAT      O 1570   2.838   4.598   2.906
  443WAT     H1 1571   2.839   4.625   3.002
  443WAT     H2 1572   2.753   4.549   2.887
  444WAT      O 1573   3.252   4.255   7.682
  444WAT     H1 1574   3.259   4.232   7.585
  444WAT     H2 1575   3.172   4.210   7.721
  445WAT      O 1576   7.794   6.547   3.788
  445WAT     H1 1577   7.786   6.507   3.696
  445WAT     H2 1578   7.704   6.545   3.833
  446WAT      O 1579   0.662   4.479   2.724
  446WAT     H1 1580   0.713   4.396   2.700
  446WAT     H2 1581   0.723   4.542   2.773
  447WAT      O 1582   6.327   9.846   4.340
  447WAT     H1 1583   6.295   9.809   4.427
  447WAT     H2 1584   6.420   9.815   4.322
  448WAT      O 1585   8.987   7.879   1.595
  448WAT     H1 1586   8.949   7.969   1.572
  448WAT     H2 1587   8.918   7.825   1.644
  449WAT      O 1588   6.556   5.153   2.134
  449WAT     H1 1589   6.474   5.100   2.114
  449WAT     H2 1590   6.532   5.233   2.189
  450WAT      O 1591   6.634   8.484   7.370
  450WAT     H1 1592   6.576   8.405   7.351
  450WAT     H2 1593   6.628   8.508   7.466
  451WAT      O 1594   1.318   8.870   3.790
  451WAT     H1 1595   1.351   8.804   3.723
  451WAT     H2 1596   1.248   8.828   3.848
  452WAT      O 1597   2.337   4.010   1.849
  452WAT     H1 1598   2.295   3.930   1.892
  452WAT     H2 1599   2.424   4.030   1.895
  453WAT      O 1600   3.977   3.330   7.183
  453WAT     H1 1601   3.888   3.360   7.149
  453WAT     H2 1602   4.004   3.246   7.135
  454WAT      O 1603   4.799   8.551   8.838
  454WAT     H1 1604   4.885   8.503   8.819
  454WAT     H2 1605   4.793   8.632   8.781
  455WAT      O 1606   1.088   6.275   3.315
  455WAT     H1 1607   1.050   6.183   3.318
  455WAT     H2 1608   1.176   6.274   3.267
  456WAT      O 1609   6.626   9.241   6.983
  456WAT     H1 1610   6.701   9.218   7.045
  456WAT     H2 1611   6.657   9.231   6.888
  457WAT      O 1612   4.333   2.666   6.371
  457WAT     H1 1613   4.419   2.706   6.405
  457WAT     H2 1614   4.285   2.624   6.448
  458WAT      O 1615   4.556   9.295   8.070
  458WAT     H1 1616   4.485   9.358   8.038
  458WAT     H2 1617   4.515   9.209   8.099
  459WAT      O 1618   6.269   7.602   9.517
  459WAT     H1 1619   6.227   7.591   9.608
  459WAT     H2 1620   6.322   7.687   9.515
  460WAT      O 1621   5.169   6.503   9.752
  460WAT     H1 1622   5.181   6.594   9.713
  460WAT     H2 1623   5.207   6.435   9.690
  461WAT      O 1624   2.758   9.054   5.769
  461WAT     H1 1625   2.759   9.014   5.860
  461WAT     H2 1626   2.775   9.152   5.775
  462WAT      O 1627   4.990   1.340   9.776
  462WAT     H1 1628   5.031   1.429   9.793
  462WAT     H2 1629   5.047   1.268   9.815
  463WAT      O 1630   3.163   8.329   0.964
  463WAT     H1 1631   3.117   8.396   0.907
  463WAT     H2 1632   3.151   8.353   1.060
  464WAT      O 1633   5.345   2.122   3.314
  464WAT     H1 1634   5.287   2.171   3.249
  464WAT     H2 1635   5.439   2.122   3.280
  465WAT      O 1636   9.787   1.939   7.644
  465WAT     H1 1637   9.776   1.885   7.561
  465WAT     H2 1638   9.847   2.017   7.626
  466WAT      O 1639   7.365   6.363   8.000
  466WAT     H1 1640   7.294   6.303   8.035
  466WAT     H2 1641   7.453   6.338   8.041
  467WAT      O 1642   3.624   7.242   8.930
  467WAT     H1 1643   3.657   7.174   8.995
  467WAT     H2 1644   3.658   7.220   8.839
  468WAT      O 1645   7.306   2.871   4.539
  468WAT     H1 1646   7.214   2.840   4.516
  468WAT     H2 1647   7.373   2.806   4.502
  469WAT      O 1648   7.026   6.113   5.394
  469WAT     H1 1649   7.013   6.016   5.414
  469WAT     H2 1650   7.096   6.124   5.324
  470WAT      O 1651   2.122   0.782   6.716
  470WAT     H1 1652   2.098   0.690   6.685
  470WAT     H2 1653   2.110   0.789   6.815
  471WAT      O 1654   0.128   0.536   9.043
  471WAT     H1 1655   0.061   0.610   9.034
  471WAT     H2 1656   0.102   0.460   8.984
  472WAT      O 1657   1.560   6.084   5.303
  472WAT     H1 1658   1.563   5.999   5.250
  472WAT     H2 1659   1.635   6.084   5.369
  473WAT      O 1660   9.408   4.312   1.895
  473WAT     H1 1661   9.364   4.275   1.814
  473WAT     H2 1662   9.488   4.366   1.868
  474WAT      O 1663   9.262   5.119   7.113
  474WAT     H1 1664   9.257   5.198   7.052
  474WAT     H2 1665   9.170   5.085   7.132
  475WAT      O 1666   9.236   8.745   5.252
  475WAT     H1 1667   9.312   8.696   5.295
  475WAT     H2 1668   9.222   8.711   5.159
  476WAT      O 1669   6.922   3.291   6.401
  476WAT     H1 1670   6.907   3.205   6.451
  476WAT     H2 1671   7.019   3.303   6.384
  477WAT      O 1672   8.650   3.497   7.460
  477WAT     H1 1673   8.642   3.402   7.430
  477WAT     H2 1674   8.571   3.550   7.427
  478WAT      O 1675   3.786   3.196   9.206
  478WAT     H1 1676   3.872   3.146   9.201
  478WAT     H2 1677   3.768   3.222   9.301
  479WAT      O 1678   7.279   5.151   6.936
  479WAT     H1 1679   7.336   5.230   6.914
  479WAT     H2 1680   7.192   5.183   6.974
  480WAT      O 1681   0.860   6.311   4.030
  480WAT     H1 1682   0.925   6.387   4.022
  480WAT     H2 1683   0.900   6.228   3.990
  481WAT      O 1684   3.374   4.969   8.604
  481WAT     H1 1685   3.330   5.021   8.531
  481WAT     H2 1686   3.304   4.923   8.659
  482WAT      O 1687   9.748   6.970   9.363
  482WAT     H1 1688   9.716   6.922   9.444
  482WAT     H2 1689   9.847   6.955   9.353
  483WAT      O 1690   6.584   6.977   6.769
  483WAT     H1 1691   6.514   6.940   6.707
  483WAT     H2 1692   6.576   7.077   6.771
  484WAT      O 1693   5.073   4.500   3.269
  484WAT     H1 1694   4.991   4.557   3.265
  484WAT     H2 1695   5.128   4.526   3.349
  485WAT      O 1696   5.772   5.605   7.733
  485WAT     H1 1697   5.849   5.628   7.674
  485WAT     H2 1698   5.698   5.566   7.678
  486WAT      O 1699   7.041   2.559   8.781
  486WAT     H1 1700   7.140   2.563   8.785
  486WAT     H2 1701   7.012   2.543   8.687
  487WAT      O 1702   5.014   3.916   9.087
  487WAT     H1 1703   5.086   3.875   9.143
  487WAT     H2 1704   5.006   3.867   9.000
  488WAT      O 1705   3.349   2.195   4.064
  488WAT     H1 1706   3.290   2.255   4.010
  488WAT     H2 1707   3.346   2.102   4.026
  489WAT      O 1708   0.153   2.813   1.779
  489WAT     H1 1709   0.148   2.718   1.809
  489WAT     H2 1710   0.233   2.856   1.820
  490WAT      O 1711   2.798   7.108   9.437
  490WAT     H1 1712   2.811   7.064   9.526
  490WAT     H2 1713   2.785   7.038   9.367
  491WAT      O 1714   1.094   5.637   3.360
  491WAT     H1 1715   1.121   5.673   3.449
  491WAT     H2 1716   0.995   5.644   3.350
  492WAT      O 1717   5.424   7.962   5.829
  492WAT     H1 1718   5.356   7.937   5.761
  492WAT     H2 1719   5.457   8.055   5.811
  493WAT      O 1720   3.860   6.706   8.504
  493WAT     H1 1721   3.959   6.706   8.491
  493WAT     H2 1722   3.814   6.690   8.417
  494WAT      O 1723   3.639   5.805   9.847
  494WAT     H1 1724   3.716   5.741   9.856
  494WAT     H2 1725   3.644   5.873   9.920
  495WAT      O 1726   9.821   2.519   3.060
  495WAT     H1 1727   9.724   2.510   3.079
  495WAT     H2 1728   9.851   2.611   3.085
  496WAT      O 1729   7.323   2.062   0.111
  496WAT     H1 1730   7.288   2.155   0.126
  496WAT     H2 1731   7.248   2.002   0.085
  497WAT      O 1732   8.309   7.817   6.251
  497WAT     H1 1733   8.329   7.914   6.261
  497WAT     H2 1734   8.238   7.805   6.181
  498WAT      O 1735   2.537   9.836   6.252
  498WAT     H1 1736   2.530   9.750   6.302
  498WAT     H2 1737   2.498   9.910   6.306
  499WAT      O 1738   2.309   3.203   5.907
  499WAT     H1 1739   2.332   3.193   5.810
  499WAT     H2 1740   2.301   3.113   5.949
  500WAT      O 1741   7.544   0.062   0.338
  500WAT     H1 1742   7.586  -0.024   0.368
  500WAT     H2 1743   7.582   0.138   0.392
  501WAT      O 1744   2.950   7.354   2.550
  501WAT     H1 1745   2.979   7.424   2.485
  501WAT     H2 1746   2.990   7.374   2.640
  502WAT      O 1747   5.228   8.191   4.339
  502WAT     H1 1748   5.147   8.132   4.334
  502WAT     H2 1749   5.309   8.137   4.314
  503WAT      O 1750   5.299   8.369   5.077
  503WAT     H1 1751   5.387   8.372   5.031
  503WAT     H2 1752   5.251   8.457   5.064
  504WAT      O 1753   4.450   2.029   9.732
  504WAT     H1 1754   4.540   2.032   9.690
  504WAT     H2 1755   4.388   2.090   9.682
  505WAT      O 1756   1.078   2.583   4.504
  505WAT     H1 1757   1.050   2.505   4.561
  505WAT     H2 1758   1.107   2.658   4.563
  506WAT      O 1759   7.371   6.791   4.458
  506WAT     H1 1760   7.377   6.732   4.539
  506WAT     H2 1761   7.287   6.769   4.408
  507WAT      O 1762   8.650   3.185   1.678
  507WAT     H1 1763   8.631   3.282   1.695
  507WAT     H2 1764   8.567   3.132   1.689
  508WAT      O 1765   2.705   1.058   2.626
  508WAT     H1 1766   2.721   1.078   2.530
  508WAT     H2 1767   2.787   1.080   2.679
  509WAT      O 1768   1.517   9.195   5.466
  509WAT     H1 1769   1.418   9.200   5.457
  509WAT     H2 1770   1.554   9.137   5.392
  510WAT      O 1771   1.489   2.848   9.194
  510WAT     H1 1772   1.497   2.823   9.097
  510WAT     H2 1773   1.418   2.791   9.237
  511WAT      O 1774   5.237   3.763   3.001
  511WAT     H1 1775   5.150   3.811   2.988
  511WAT     H2 1776   5.303   3.793   2.932
  512WAT      O 1777   3.189   3.707   7.176
  512WAT     H1 1778   3.240   3.793   7.166
  512WAT     H2 1779   3.120   3.718   7.248
  513WAT      O 1780   3.079   7.654   3.901
  513WAT     H1 1781   3.160   7.598   3.918
  513WAT     H2 1782   3.011   7.600   3.851
  514WAT      O 1783   9.603   0.217   2.485
  514WAT     H1 1784   9.697   0.245   2.499
  514WAT     H2 1785   9.545   0.298   2.477
  515WAT      O 1786   1.918   9.217   9.114
  515WAT     H1 1787   2.010   9.179   9.127
  515WAT     H2 1788   1.907   9.297   9.173
  516WAT      O 1789   6.946   0.312   5.725
  516WAT     H1 1790   6.916   0.217   5.716
  516WAT     H2 1791   6.995   0.340   5.642
  517WAT      O 1792   5.742   8.307   6.818
  517WAT     H1 1793   5.758   8.232   6.755
  517WAT     H2 1794   5.746   8.394   6.768
  518WAT      O 1795   8.455   0.660   3.253
  518WAT     H1 1796   8.384   0.647   3.323
  518WAT     H2 1797   8.466   0.576   3.200
  519WAT      O 1798   9.244   7.562   8.243
  519WAT     H1 1799   9.151   7.528   8.228
  519WAT     H2 1800   9.271   7.545   8.337
  520WAT      O 1801   1.631   2.782   6.344
  520WAT     H1 1802   1.590   2.704   6.296
  520WAT     H2 1803   1.699   2.749   6.409
  521WAT      O 1804   4.849   6.213   6.348
  521WAT     H1 1805   4.890   6.227   6.438
  521WAT     H2 1806   4.915   6.167   6.288
  522WAT      O 1807   3.607   0.089   0.127
  522WAT     H1 1808   3.682   0.080   0.193
  522WAT     H2 1809   3.625   0.166   0.066
  523WAT      O 1810   5.279   2.600   9.600
  523WAT     H1 1811   5.376   2.612   9.621
  523WAT     H2 1812   5.232   2.688   9.605
  524WAT      O 1813   7.087   3.786   8.761
  524WAT     H1 1814   7.089   3.819   8.855
  524WAT     H2 1815   7.169   3.818   8.713
  525WAT      O 1816   2.300   2.520   8.210
  525WAT     H1 1817   2.341   2.447   8.264
  525WAT     H2 1818   2.219   2.556   8.257
  526WAT      O 1819   6.865   6.548   5.478
  526WAT     H1 1820   6.783   6.533   5.532
  526WAT     H2 1821   6.840   6.589   5.390
  527WAT      O 1822   0.366   5.650   3.139
  527WAT     H1 1823   0.284   5.706   3.143
  527WAT     H2 1824   0.366   5.597   3.054
  528WAT      O 1825   2.412   9.730   9.817
  528WAT     H1 1826   2.421   9.790   9.897
  528WAT     H2 1827   2.492   9.741   9.758
  529WAT      O 1828   2.615   9.704   1.210
  529WAT     H1 1829   2.540   9.771   1.218
  529WAT     H2 1830   2.612   9.662   1.119
  530WAT      O 1831   8.242   6.596   7.674
  530WAT     H1 1832   8.211   6.668   7.612
  530WAT     H2 1833   8.163   6.548   7.711
  531WAT      O 1834   9.484   7.196   3.930
  531WAT     H1 1835   9.439   7.184   4.018
  531WAT     H2 1836   9.422   7.242   3.866
  532WAT      O 1837   4.928   8.822   6.121
  532WAT     H1 1838   4.830   8.828   6.103
  532WAT     H2 1839   4.944   8.754   6.193
  533WAT      O 1840   6.411   8.965   3.362
  533WAT     H1 1841   6.383   8.868   3.362
  533WAT     H2 1842   6.510   8.971   3.373
  534WAT      O 1843   7.459   7.239   8.984
  534WAT     H1 1844   7.436   7.165   9.047
  534WAT     H2 1845   7.460   7.326   9.034
  535WAT      O 1846   3.841   6.034   7.866
  535WAT     H1 1847   3.925   6.073   7.828
  535WAT     H2 1848   3.762   6.073   7.817
  536WAT      O 1849   8.966   5.288   4.038
  536WAT     H1 1850   9.044   5.343   4.069
  536WAT     H2 1851   8.963   5.203   4.090
  537WAT      O 1852   5.289   4.575   5.197
  537WAT     H1 1853   5.231   4.633   5.253
  537WAT     H2 1854   5.379   4.617   5.186
  538WAT      O 1855   1.866   4.815   8.140
  538WAT     H1 1856   1.865   4.782   8.046
  538WAT     H2 1857   1.824   4.746   8.200
  539WAT      O 1858   6.668   8.860   8.866
  539WAT     H1 1859   6.600   8.904   8.924
  539WAT     H2 1860   6.630   8.845   8.775
  540WAT      O 1861   6.349   3.810   1.767
  540WAT     H1 1862   6.291   3.780   1.691
  540WAT     H2 1863   6.412   3.736   1.792
  541WAT      O 1864   1.719   3.944   9.196
  541WAT     H1 1865   1.628   3.977   9.223
  541WAT     H2 1866   1.749   3.873   9.261
  542WAT      O 1867   5.849   5.789   9.332
  542WAT     H1 1868   5.800   5.765   9.249
  542WAT     H2 1869   5.826   5.725   9.405
  543WAT      O 1870   6.291   5.057   4.569
  543WAT     H1 1871   6.198   5.089   4.553
  543WAT     H2 1872   6.290   4.990   4.644
  544WAT      O 1873   4.144   2.775   7.249
  544WAT     H1 1874   4.191   2.774   7.338
  544WAT     H2 1875   4.200   2.730   7.181
  545WAT      O 1876   0.684   2.052   9.791
  545WAT     H1 1877   0.736   2.136   9.775
  545WAT     H2 1878   0.670   2.041   9.890
  546WAT      O 1879   5.854   6.645   6.098
  546WAT     H1 1880   5.951   6.629   6.076
  546WAT     H2 1881   5.797   6.609   6.025
  547WAT      O 1882   6.178   6.796   7.496
  547WAT     H1 1883   6.137   6.776   7.407
  547WAT     H2 1884   6.234   6.718   7.524
  548WAT      O 1885   6.388   9.431   3.690
  548WAT     H1 1886   6.371   9.418   3.788
  548WAT     H2 1887   6.422   9.346   3.650
  549WAT      O 1888   6.824   3.817   6.931
  549WAT     H1 1889   6.756   3.889   6.943
  549WAT     H2 1890   6.828   3.791   6.834
  550WAT      O 1891   2.005   5.687   0.974
  550WAT     H1 1892   1.936   5.749   1.010
  550WAT     H2 1893   1.980   5.593   0.997
  551WAT      O 1894   9.209   0.545   2.782
  551WAT     H1 1895   9.162   0.472   2.832
  551WAT     H2 1896   9.304   0.519   2.768
  552WAT      O 1897   1.214   9.372   9.053
  552WAT     H1 1898   1.304   9.376   9.095
  552WAT     H2 1899   1.145   9.354   9.124
  553WAT      O 1900   7.700   6.568   0.712
  553WAT     H1 1901   7.646   6.647   0.683
  553WAT     H2 1902   7.713   6.506   0.634
  554WAT      O 1903   9.769   2.815   1.091
  554WAT     H1 1904   9.788   2.838   1.187
  554WAT     H2 1905   9.795   2.719   1.074
  555WAT      O 1906   9.116   7.717   1.424
  555WAT     H1 1907   9.209   7.741   1.396
  555WAT     H2 1908   9.073   7.795   1.469
  556WAT      O 1909   2.792   0.591   3.170
  556WAT     H1 1910   2.795   0.491   3.175
  556WAT     H2 1911   2.819   0.620   3.078
  557WAT      O 1912   4.128   4.015   9.205
  557WAT     H1 1913   4.171   3.996   9.116
  557WAT     H2 1914   4.103   3.929   9.249
  558WAT      O 1915   2.341   7.907   9.571
  558WAT     H1 1916   2.398   7.988   9.554
  558WAT     H2 1917   2.279   7.926   9.648
  559WAT      O 1918   6.801   3.554   5.672
  559WAT     H1 1919   6.767   3.540   5.579
  559WAT     H2 1920   6.735   3.519   5.738
  560WAT      O 1921   8.041   7.194   1.939
  560WAT     H1 1922   8.101   7.158   1.868
  560WAT     H2 1923   8.059   7.292   1.950
  561WAT      O 1924   0.987   6.873   1.225
  561WAT     H1 1925   0.935   6.813   1.164
  561WAT     H2 1926   1.051   6.819   1.279
  562WAT      O 1927   8.340   0.143   8.603
  562WAT     H1 1928   8.406   0.173   8.533
  562WAT     H2 1929   8.310   0.223   8.656
  563WAT      O 1930   4.278   6.844   0.994
  563WAT     H1 1931   4.322   6.775   0.937
  563WAT     H2 1932   4.205   6.888   0.942
  564WAT      O 1933   4.127   0.524   9.708
  564WAT     H1 1934   4.043   0.535   9.762
  564WAT     H2 1935   4.110   0.462   9.632
  565WAT      O 1936   5.191   2.176   1.548
  565WAT     H1 1937   5.201   2.132   1.459
  565WAT     H2 1938   5.094   2.189   1.568
  566WAT      O 1939   0.341   5.739   6.452
  566WAT     H1 1940   0.262   5.765   6.397
  566WAT     H2 1941   0.356   5.640   6.443
  567WAT      O 1942   2.047   1.280   6.089
  567WAT     H1 1943   2.087   1.285   6.180
  567WAT     H2 1944   2.114   1.242   6.025
  568WAT      O 1945   2.946   8.103   1.409
  568WAT     H1 1946   3.000   8.072   1.488
  568WAT     H2 1947   2.973   8.196   1.385
  569WAT      O 1948   1.214   5.898   5.928
  569WAT     H1 1949   1.190   5.962   5.855
  569WAT     H2 1950   1.283   5.834   5.894
  570WAT      O 1951   7.250   4.296   1.382
  570WAT     H1 1952   7.221   4.253   1.468
  570WAT     H2 1953   7.334   4.348   1.398
  571WAT      O 1954   0.067   0.190   7.075
  571WAT     H1 1955   0.051   0.113   7.137
  571WAT     H2 1956   0.007   0.266   7.101
  572WAT      O 1957   0.978   1.137   1.567
  572WAT     H1 1958   1.056   1.186   1.606
  572WAT     H2 1959   0.982   1.141   1.467
  573WAT      O 1960   4.710   8.379   6.249
  573WAT     H1 1961   4.654   8.449   6.202
  573WAT     H2 1962   4.724   8.407   6.344
  574WAT      O 1963   3.207   9.842   1.492
  574WAT     H1 1964   3.135   9.821   1.426
  574WAT     H2 1965   3.178   9.813   1.583
  575WAT      O 1966   0.040   4.559   8.010
  575WAT     H1 1967  -0.055   4.562   8.041
  575WAT     H2 1968   0.101   4.556   8.089
  576WAT      O 1969   8.903   6.315   6.882
  576WAT     H1 1970   8.930   6.409   6.863
  576WAT     H2 1971   8.837   6.314   6.957
  577WAT      O 1972   2.018   5.402   9.745
  577WAT     H1 1973   2.080   5.328   9.771
  577WAT     H2 1974   2.069   5.469   9.691
  578WAT      O 1975   0.656   8.914   6.579
  578WAT     H1 1976   0.613   8.838   6.531
  578WAT     H2 1977   0.603   8.936   6.661
  579WAT      O 1978   4.101   8.723   8.687
  579WAT     H1 1979   4.017   8.698   8.638
  579WAT     H2 1980   4.135   8.643   8.737
  580WAT      O 1981   8.615   1.024   8.856
  580WAT     H1 1982   8.701   0.976   8.870
  580WAT     H2 1983   8.632   1.123   8.850
  581WAT      O 1984   5.387   8.736   9.745
  581WAT     H1 1985   5.324   8.658   9.741
  581WAT     H2 1986   5.352   8.803   9.810
  582WAT      O 1987   8.846   1.582   1.352
  582WAT     H1 1988   8.793   1.567   1.435
  582WAT     H2 1989   8.934   1.624   1.376
  583WAT      O 1990   9.012   7.562   1.761
  583WAT     H1 1991   8.984   7.469   1.783
  583WAT     H2 1992   9.095   7.560   1.706
  584WAT      O 1993   5.378   2.035   0.170
  584WAT     H1 1994   5.420   1.964   0.226
  584WAT     H2 1995   5.283   2.010   0.150
  585WAT      O 1996   2.753   5.030   7.626
  585WAT     H1 1997   2.848   5.053   7.602
  585WAT     H2 1998   2.695   5.111   7.613
  586WAT      O 1999   2.255   1.975   9.728
  586WAT     H1 2000   2.224   1.990   9.634
  586WAT     H2 2001   2.197   1.905   9.771
  587WAT      O 2002   8.356   7.621   5.349
  587WAT     H1 2003   8.336   7.713   5.316
  587WAT     H2 2004   8.271   7.578   5.382
  588WAT      O 2005   7.810   1.281   5.794
  588WAT     H1 2006   7.764   1.357   5.748
  588WAT     H2 2007   7.824   1.304   5.891
  589WAT      O 2008   2.899   4.289   4.500
  589WAT     H1 2009   2.976   4.347   4.474
  589WAT     H2 2010   2.847   4.334   4.573
  590WAT      O 2011   3.811   2.648   8.164
  590WAT     H1 2012   3.855   2.711   8.099
  590WAT     H2 2013   3.772   2.699   8.240
  591WAT      O 2014   1.991   0.738   3.578
  591WAT     H1 2015   2.041   0.806   3.524
  591WAT     H2 2016   1.984   0.770   3.673
  592WAT      O 2017   8.038   2.547   8.136
  592WAT     H1 2018   8.133   2.554   8.166
  592WAT     H2 2019   7.980   2.604   8.195
  593WAT      O 2020   5.328   4.699   1.765
  593WAT     H1 2021   5.386   4.780   1.754
  593WAT     H2 2022   5.385   4.617   1.767
  594WAT      O 2023   8.427   3.212   3.398
  594WAT     H1 2024   8.416   3.164   3.311
  594WAT     H2 2025   8.346   3.267   3.416
  595WAT      O 2026   4.811   1.468   6.644
  595WAT     H1 2027   4.807   1.415   6.729
  595WAT     H2 2028   4.906   1.490   6.623
  596WAT      O 2029   7.400   6.004   0.296
  596WAT     H1 2030   7.366   6.085   0.345
  596WAT     H2 2031   7.323   5.946   0.269
  597WAT      O 2032   4.445   5.761   2.022
  597WAT     H1 2033   4.346   5.765   2.009
  597WAT     H2 2034   4.490   5.813   1.949
  598WAT      O 2035   5.078   2.436   9.693
  598WAT     H1 2036   5.115   2.345   9.708
  598WAT     H2 2037   5.153   2.501   9.681
  599WAT      O 2038   4.331   3.987   3.571
  599WAT     H1 2039   4.328   4.079   3.532
  599WAT     H2 2040   4.252   3.934   3.539
  600WAT      O 2041   5.223   8.380   3.747
  600WAT     H1 2042   5.269   8.291   3.745
  600WAT     H2 2043   5.287   8.451   3.718
  601WAT      O 2044   1.018   4.564   6.265
  601WAT     H1 2045   0.933   4.511   6.257
  601WAT     H2 2046   1.079   4.518   6.330
  602WAT      O 2047   3.999   5.619   2.606
  602WAT     H1 2048   4.096   5.598   2.615
  602WAT     H2 2049   3.980   5.706   2.653
  603WAT      O 2050   0.918   6.862   3.229
  603WAT     H1 2051   0.983   6.798   3.189
  603WAT     H2 2052   0.869   6.910   3.157
  604WAT      O 2053   0.868   1.556   6.580
  604WAT     H1 2054   0.796   1.519   6.638
  604WAT     H2 2055   0.930   1.612   6.636
  605WAT      O 2056   2.754   3.476   1.466
  605WAT     H1 2057   2.665   3.492   1.424
  605WAT     H2 2058   2.820   3.542   1.431
  606WAT      O 2059   8.669   7.798   4.974
  606WAT     H1 2060   8.750   7.854   4.996
  606WAT     H2 2061   8.699   7.706   4.947
  607WAT      O 2062   3.523   4.620   7.538
  607WAT     H1 2063   3.445   4.558   7.524
  607WAT     H2 2064   3.607   4.575   7.508
  608WAT      O 2065   5.822   3.549   5.859
  608WAT     H1 2066   5.894   3.617   5.854
  608WAT     H2 2067   5.830   3.486   5.781
  609WAT      O 2068   8.135   6.178   0.273
  609WAT     H1 2069   8.226   6.162   0.310
  609WAT     H2 2070   8.070   6.115   0.316
  610WAT      O 2071   0.465   2.407   7.233
  610WAT     H1 2072   0.480   2.483   7.169
  610WAT     H2 2073   0.467   2.441   7.326
  611WAT      O 2074   8.146   1.829   8.563
  611WAT     H1 2075   8.206   1.777   8.502
  611WAT     H2 2076   8.083   1.767   8.609
  612WAT      O 2077   6.690   9.447   9.594
  612WAT     H1 2078   6.708   9.363   9.543
  612WAT     H2 2079   6.709   9.432   9.691
  613WAT      O 2080   6.513   6.826   9.827
  613WAT     H1 2081   6.562   6.879   9.759
  613WAT     H2 2082   6.534   6.861   9.919
  614WAT      O 2083   4.684   9.080   5.168
  614WAT     H1 2084   4.652   9.088   5.262
  614WAT     H2 2085   4.632   9.008   5.121
  615WAT      O 2086   0.849   5.389   4.491
  615WAT     H1 2087   0.871   5.412   4.396
  615WAT     H2 2088   0.786   5.312   4.492
  616WAT      O 2089   4.266   1.643   2.644
  616WAT     H1 2090   4.193   1.690   2.593
  616WAT     H2 2091   4.354   1.659   2.599
  617WAT      O 2092   6.145   9.139   2.629
  617WAT     H1 2093   6.076   9.112   2.697
  617WAT     H2 2094   6.220   9.074   2.629
  618WAT      O 2095   2.910   3.391   0.829
  618WAT     H1 2096   2.985   3.358   0.771
  618WAT     H2 2097   2.824   3.349   0.801
  619WAT      O 2098   6.540   7.961   7.787
  619WAT     H1 2099   6.621   8.019   7.793
  619WAT     H2 2100   6.492   7.960   7.875
  620WAT      O 2101   3.890   1.551   5.755
  620WAT     H1 2102   3.806   1.569   5.805
  620WAT     H2 2103   3.962   1.522   5.819
  621WAT      O 2104   7.366   7.030   1.675
  621WAT     H1 2105   7.430   7.101   1.645
  621WAT     H2 2106   7.274   7.053   1.646
  622WAT      O 2107   7.781   8.622   0.019
  622WAT     H1 2108   7.762   8.538  -0.031
  622WAT     H2 2109   7.706   8.641   0.083
  623WAT      O 2110   2.400   5.325   1.432
  623WAT     H1 2111   2.497   5.322   1.457
  623WAT     H2 2112   2.390   5.372   1.345
  624WAT      O 2113   6.426   1.030   6.694
  624WAT     H1 2114   6.481   1.098   6.743
  624WAT     H2 2115   6.330   1.053   6.702
  625WAT      O 2116   0.154   9.242   7.850
  625WAT     H1 2117   0.086   9.169   7.845
  625WAT     H2 2118   0.227   9.224   7.784
  626WAT      O 2119   2.549   0.938   2.278
  626WAT     H1 2120   2.488   0.949   2.200
  626WAT     H2 2121   2.642   0.960   2.250
  627WAT      O 2122   5.576   1.337   5.786
  627WAT     H1 2123   5.591   1.365   5.881
  627WAT     H2 2124   5.539   1.244   5.785
  628WAT      O 2125   3.198   8.884   4.294
  628WAT     H1 2126   3.138   8.931   4.230
  628WAT     H2 2127   3.281   8.939   4.309
  629WAT      O 2128   3.913   7.007   8.758
  629WAT     H1 2129   3.914   7.105   8.738
  629WAT     H2 2130   4.006   6.972   8.754
  630WAT      O 2131   3.757   1.549   8.769
  630WAT     H1 2132   3.812   1.557   8.852
  630WAT     H2 2133   3.812   1.577   8.690
  631WAT      O 2134   8.760   3.698   9.877
  631WAT     H1 2135   8.739   3.623   9.814
  631WAT     H2 2136   8.855   3.689   9.908
  632WAT      O 2137   9.706   6.474   4.321
  632WAT     H1 2138   9.695   6.493   4.223
  632WAT     H2 2139   9.740   6.381   4.333
  633WAT      O 2140   7.991   3.654   9.523
  633WAT     H1 2141   7.923   3.728   9.521
  633WAT     H2 2142   8.080   3.690   9.495
  634WAT      O 2143   9.065   8.160   5.801
  634WAT     H1 2144   9.016   8.237   5.841
  634WAT     H2 2145   9.000   8.096   5.762
  635WAT      O 2146   9.724   7.310   8.036
  635WAT     H1 2147   9.806   7.332   7.984
  635WAT     H2 2148   9.703   7.213   8.027
  636WAT      O 2149   5.144   8.911   4.959
  636WAT     H1 2150   5.111   8.986   5.017
  636WAT     H2 2151   5.226   8.941   4.910
  637WAT      O 2152   6.479   1.797   6.255
  637WAT     H1 2153   6.450   1.701   6.253
  637WAT     H2 2154   6.437   1.846   6.179
  638WAT      O 2155   4.075   2.411   7.565
  638WAT     H1 2156   4.068   2.379   7.659
  638WAT     H2 2157   3.997   2.470   7.544
  639WAT      O 2158   3.465   9.500   3.571
  639WAT     H1 2159   3.466   9.417   3.626
  639WAT     H2 2160   3.381   9.551   3.589
  640WAT      O 2161   9.745   5.772   6.656
  640WAT     H1 2162   9.780   5.829   6.730
  640WAT     H2 2163   9.657   5.808   6.625
  641WAT      O 2164   4.008   3.106   3.110
  641WAT     H1 2165   3.955   3.082   3.191
  641WAT     H2 2166   3.961   3.070   3.029
  642WAT      O 2167   2.300   8.141   1.131
  642WAT     H1 2168   2.378   8.085   1.160
  642WAT     H2 2169   2.282   8.212   1.199
  643WAT      O 2170   7.718   8.755   8.720
  643WAT     H1 2171   7.737   8.764   8.817
  643WAT     H2 2172   7.799   8.784   8.667
  644WAT      O 2173   1.955   3.344   6.413
  644WAT     H1 2174   2.021   3.415   6.436
  644WAT     H2 2175   1.936   3.346   6.314
  645WAT      O 2176   5.990   6.723   2.852
  645WAT     H1 2177   6.029   6.638   2.817
  645WAT     H2 2178   6.060   6.794   2.852
  646WAT      O 2179   8.083   5.117   3.033
  646WAT     H1 2180   8.137   5.033   3.031
  646WAT     H2 2181   8.096   5.163   3.121
  647WAT      O 2182   5.698   2.410   3.686
  647WAT     H1 2183   5.774   2.473   3.702
  647WAT     H2 2184   5.690   2.348   3.764
  648WAT      O 2185   6.604   3.754   2.066
  648WAT     H1 2186   6.703   3.735   2.066
  648WAT     H2 2187   6.589   3.852   2.055
  649WAT      O 2188   8.165   9.735   7.629
  649WAT     H1 2189   8.262   9.719   7.608
  649WAT     H2 2190   8.153   9.828   7.663
  650WAT      O 2191   1.834   7.570   8.908
  650WAT     H1 2192   1.830   7.608   8.815
  650WAT     H2 2193   1.751   7.595   8.958
  651WAT      O 2194   6.081   3.505   6.267
  651WAT     H1 2195   6.035   3.589   6.296
  651WAT     H2 2196   6.080   3.500   6.167
  652WAT      O 2197   4.282   5.101   7.938
  652WAT     H1 2198   4.321   5.017   7.975
  652WAT     H2 2199   4.197   5.122   7.986
  653WAT      O 2200   5.541   3.369   7.246
  653WAT     H1 2201   5.458   3.317   7.265
  653WAT     H2 2202   5.566   3.423   7.327
  654WAT      O 2203   9.293   2.596   6.508
  654WAT     H1 2204   9.349   2.536   6.566
  654WAT     H2 2205   9.348   2.673   6.478
  655WAT      O 2206   7.172   1.261   1.669
  655WAT     H1 2207   7.219   1.212   1.742
  655WAT     H2 2208   7.127   1.342   1.708
  656WAT      O 2209   6.709   0.359   0.050
  656WAT     H1 2210   6.730   0.297   0.126
  656WAT     H2 2211   6.727   0.313  -0.037
  657WAT      O 2212   0.673   9.532   1.736
  657WAT     H1 2213   0.705   9.567   1.648
  657WAT     H2 2214   0.602   9.592   1.772
  658WAT      O 2215   0.902   6.724   2.896
  658WAT     H1 2216   0.977   6.696   2.956
  658WAT     H2 2217   0.923   6.812   2.856
  659WAT      O 2218   4.405   4.935   7.668
  659WAT     H1 2219   4.317   4.977   7.690
  659WAT     H2 2220   4.393   4.838   7.647
  660WAT      O 2221   9.871   2.649   9.337
  660WAT     H1 2222   9.786   2.693   9.366
  660WAT     H2 2223   9.894   2.575   9.399
  661WAT      O 2224   8.788   0.281   0.148
  661WAT     H1 2225   8.734   0.330   0.216
  661WAT     H2 2226   8.801   0.186   0.177
  662WAT      O 2227   3.853   9.496   2.096
  662WAT     H1 2228   3.941   9.462   2.130
  662WAT     H2 2229   3.859   9.510   1.997
  663WAT      O 2230   3.085   3.732   4.622
  663WAT     H1 2231   3.038   3.710   4.537
  663WAT     H2 2232   3.024   3.713   4.699
  664WAT      O 2233   8.069   8.431   1.151
  664WAT     H1 2234   8.128   8.350   1.157
  664WAT     H2 2235   8.081   8.474   1.062
  665WAT      O 2236   6.597   7.800   6.212
  665WAT     H1 2237   6.575   7.705   6.192
  665WAT     H2 2238   6.521   7.858   6.185
  666WAT      O 2239   7.204   4.963   0.071
  666WAT     H1 2240   7.189   4.922  -0.019
  666WAT     H2 2241   7.264   4.904   0.124
  667WAT      O 2242   8.616   4.924   5.062
  667WAT     H1 2243   8.688   4.992   5.047
  667WAT     H2 2244   8.594   4.878   4.976
  668WAT      O 2245   3.689   7.344   2.229
  668WAT     H1 2246   3.701   7.441   2.249
  668WAT     H2 2247   3.775   7.295   2.246
  669WAT      O 2248   9.460   2.726   1.788
  669WAT     H1 2249   9.404   2.772   1.858
  669WAT     H2 2250   9.445   2.628   1.793
  670WAT      O 2251   8.601   9.151   2.217
  670WAT     H1 2252   8.514   9.124   2.257
  670WAT     H2 2253   8.599   9.249   2.196
  671WAT      O 2254   0.176   8.239   3.049
  671WAT     H1 2255   0.196   8.302   3.124
  671WAT     H2 2256   0.078   8.239   3.029
  672WAT      O 2257   8.543   8.468   5.968
  672WAT     H1 2258   8.636   8.487   5.936
  672WAT     H2 2259   8.508   8.548   6.017
  673WAT      O 2260   7.143   9.656   0.241
  673WAT     H1 2261   7.127   9.755   0.246
  673WAT     H2 2262   7.242   9.639   0.240
  674WAT      O 2263   2.904   8.398   5.536
  674WAT     H1 2264   2.990   8.438   5.567
  674WAT     H2 2265   2.921   8.306   5.499
  675WAT      O 2266   9.044   0.633   7.416
  675WAT     H1 2267   9.002   0.563   7.359
  675WAT     H2 2268   8.981   0.710   7.425
  676WAT      O 2269   2.896   4.612   2.451
  676WAT     H1 2270   2.911   4.673   2.530
  676WAT     H2 2271   2.933   4.655   2.369
  677WAT      O 2272   4.235   2.865   9.059
  677WAT     H1 2273   4.241   2.767   9.078
  677WAT     H2 2274   4.139   2.892   9.052
  678WAT      O 2275   0.271   2.458   0.951
  678WAT     H1 2276   0.365   2.459   0.985
  678WAT     H2 2277   0.214   2.515   1.010
  679WAT      O 2278   6.945   2.357   9.696
  679WAT     H1 2279   6.862   2.411   9.680
  679WAT     H2 2280   7.020   2.395   9.642
  680WAT      O 2281   0.531   3.933   9.151
  680WAT     H1 2282   0.450   3.881   9.178
  680WAT     H2 2283   0.521   4.028   9.182
  681WAT      O 2284   5.983   8.649   8.615
  681WAT     H1 2285   5.926   8.674   8.694
  681WAT     H2 2286   6.030   8.563   8.633
  682WAT      O 2287   2.625   9.771   9.621
  682WAT     H1 2288   2.574   9.763   9.536
  682WAT     H2 2289   2.715   9.810   9.603
  683WAT      O 2290   1.223   1.074   6.941
  683WAT     H1 2291   1.263   1.162   6.917
  683WAT     H2 2292   1.141   1.088   6.997
  684WAT      O 2293   0.008   0.400   3.274
  684WAT     H1 2294  -0.038   0.412   3.362
  684WAT     H2 2295  -0.041   0.333   3.219
  685WAT      O 2296   4.464   2.077   4.057
  685WAT     H1 2297   4.392   2.075   4.126
  685WAT     H2 2298   4.552   2.096   4.100
  686WAT      O 2299   9.676   2.160   8.300
  686WAT     H1 2300   9.691   2.259   8.300
  686WAT     H2 2301   9.619   2.135   8.222
  687WAT      O 2302   8.161   1.604   6.395
  687WAT     H1 2303   8.084   1.602   6.458
  687WAT     H2 2304   8.245   1.624   6.445
  688WAT      O 2305   6.636   6.283   6.817
  688WAT     H1 2306   6.619   6.187   6.794
  688WAT     H2 2307   6.651   6.291   6.915
  689WAT      O 2308   3.216   4.050   6.975
  689WAT     H1 2309   3.247   3.960   6.944
  689WAT     H2 2310   3.278   4.120   6.939
  690WAT      O 2311   0.218   6.160   9.818
  690WAT     H1 2312   0.203   6.256   9.796
  690WAT     H2 2313   0.135   6.108   9.798
  691WAT      O 2314   3.763   4.138   8.560
  691WAT     H1 2315   3.701   4.156   8.636
  691WAT     H2 2316   3.812   4.222   8.536
  692WAT      O 2317   4.472   6.034   8.851
  692WAT     H1 2318   4.552   6.042   8.910
  692WAT     H2 2319   4.394   6.002   8.904
  693WAT      O 2320   1.646   7.912   3.234
  693WAT     H1 2321   1.672   7.942   3.142
  693WAT     H2 2322   1.641   7.991   3.295
  694WAT      O 2323   1.335   3.754   1.554
  694WAT     H1 2324   1.354   3.686   1.624
  694WAT     H2 2325   1.317   3.842   1.597
  695WAT      O 2326   8.835   8.379   8.867
  695WAT     H1 2327   8.903   8.308   8.849
  695WAT     H2 2328   8.880   8.469   8.869
  696WAT      O 2329   9.321   7.411   0.165
  696WAT     H1 2330   9.333   7.510   0.154
  696WAT     H2 2331   9.357   7.364   0.085
  697WAT      O 2332   4.988   6.350   6.933
  697WAT     H1 2333   5.042   6.268   6.951
  697WAT     H2 2334   4.930   6.369   7.012
  698WAT      O 2335   6.644   1.925   1.792
  698WAT     H1 2336   6.742   1.944   1.794
  698WAT     H2 2337   6.629   1.827   1.802
  699WAT      O 2338   2.703   2.149   1.538
  699WAT     H1 2339   2.645   2.097   1.474
  699WAT     H2 2340   2.758   2.085   1.591
  700WAT      O 2341   6.994   9.688   9.571
  700WAT     H1 2342   7.086   9.649   9.571
  700WAT     H2 2343   6.933   9.632   9.627
  701WAT      O 2344   2.650   1.352   2.126
  701WAT     H1 2345   2.585   1.313   2.060
  701WAT     H2 2346   2.609   1.352   2.217
  702WAT      O 2347   6.373   0.464   4.361
  702WAT     H1 2348   6.320   0.382   4.343
  702WAT     H2 2349   6.322   0.525   4.421
  703WAT      O 2350   1.009   8.656   5.343
  703WAT     H1 2351   0.989   8.751   5.320
  703WAT     H2 2352   0.936   8.621   5.403
  704WAT      O 2353   1.672   3.260   1.844
  704WAT     H1 2354   1.625   3.172   1.837
  704WAT     H2 2355   1.734   3.271   1.766
  705WAT      O 2356   9.040   9.253   3.849
  705WAT     H1 2357   9.047   9.350   3.824
  705WAT     H2 2358   9.131   9.215   3.863
  706WAT      O 2359   3.740   9.312   4.470
  706WAT     H1 2360   3.773   9.377   4.539
  706WAT     H2 2361   3.806   9.305   4.396
  707WAT      O 2362   5.677   1.047   2.284
  707WAT     H1 2363   5.585   1.070   2.251
  707WAT     H2 2364   5.696   1.099   2.368
  708WAT      O 2365   6.639   0.004   5.084
  708WAT     H1 2366   6.648   0.096   5.044
  708WAT     H2 2367   6.723  -0.020   5.132
  709WAT      O 2368   5.085   9.348   7.028
  709WAT     H1 2369   5.066   9.325   6.933
  709WAT     H2 2370   5.138   9.433   7.031
  710WAT      O 2371   7.144   3.804   2.096
  710WAT     H1 2372   7.208   3.799   2.173
  710WAT     H2 2373   7.120   3.900   2.079
  711WAT      O 2374   2.554   3.115   7.467
  711WAT     H1 2375   2.541   3.034   7.524
  711WAT     H2 2376   2.644   3.155   7.486
  712WAT      O 2377   9.474   4.588   4.826
  712WAT     H1 2378   9.408   4.618   4.757
  712WAT     H2 2379   9.427   4.571   4.912
  713WAT      O 2380   7.860   1.491   3.459
  713WAT     H1 2381   7.855   1.441   3.545
  713WAT     H2 2382   7.840   1.430   3.383
  714WAT      O 2383   1.501   1.785   9.572
  714WAT     H1 2384   1.481   1.803   9.669
  714WAT     H2 2385   1.585   1.831   9.546
  715WAT      O 2386   4.956   3.974   0.893
  715WAT     H1 2387   4.969   3.894   0.951
  715WAT     H2 2388   4.878   3.959   0.832
  716WAT      O 2389   5.904   5.300   9.434
  716WAT     H1 2390   5.997   5.273   9.459
  716WAT     H2 2391   5.889   5.285   9.336
  717WAT      O 2392   9.015   5.056   5.244
  717WAT     H1 2393   8.944   5.085   5.180
  717WAT     H2 2394   9.028   5.126   5.314
  718WAT      O 2395   2.304   5.226   8.796
  718WAT     H1 2396   2.206   5.209   8.794
  718WAT     H2 2397   2.324   5.301   8.859
  719WAT      O 2398   3.321   8.757   6.561
  719WAT     H1 2399   3.382   8.685   6.593
  719WAT     H2 2400   3.261   8.721   6.489
  720WAT      O 2401   9.608   1.357   1.300
  720WAT     H1 2402   9.539   1.346   1.229
  720WAT     H2 2403   9.681   1.289   1.286
  721WAT      O 2404   0.348   5.755   0.953
  721WAT     H1 2405   0.393   5.666   0.948
  721WAT     H2 2406   0.255   5.748   0.917
  722WAT      O 2407   4.927   2.862   1.003
  722WAT     H1 2408   4.879   2.856   1.090
  722WAT     H2 2409   4.991   2.939   1.005
  723WAT      O 2410   1.800   7.717   7.392
  723WAT     H1 2411   1.833   7.764   7.474
  723WAT     H2 2412   1.732   7.648   7.417
  724WAT      O 2413   1.661   8.257   6.305
  724WAT     H1 2414   1.673   8.217   6.396
  724WAT     H2 2415   1.611   8.193   6.247
  725WAT      O 2416   3.373   6.298   4.058
  725WAT     H1 2417   3.335   6.288   4.150
  725WAT     H2 2418   3.317   6.362   4.005
  726WAT      O 2419   1.679   4.534   1.943
  726WAT     H1 2420   1.676   4.435   1.933
  726WAT     H2 2421   1.606   4.564   2.005
  727WAT      O 2422   8.104   3.054   9.564
  727WAT     H1 2423   8.086   3.152   9.553
  727WAT     H2 2424   8.050   3.018   9.640
  728WAT      O 2425   8.239   5.196   3.481
  728WAT     H1 2426   8.289   5.266   3.533
  728WAT     H2 2427   8.206   5.125   3.543
  729WAT      O 2428   6.643   3.915   9.844
  729WAT     H1 2429   6.682   3.934   9.754
  729WAT     H2 2430   6.625   4.001   9.891
  730WAT      O 2431   9.556   2.775   1.517
  730WAT     H1 2432   9.567   2.874   1.516
  730WAT     H2 2433   9.501   2.749   1.597
  731WAT      O 2434   7.651   7.215   0.778
  731WAT     H1 2435   7.727   7.206   0.843
  731WAT     H2 2436   7.670   7.161   0.696
  732WAT      O 2437   8.419   0.554   6.893
  732WAT     H1 2438   8.514   0.556   6.862
  732WAT     H2 2439   8.378   0.466   6.868
  733WAT      O 2440   8.842   1.193   1.529
  733WAT     H1 2441   8.828   1.147   1.441
  733WAT     H2 2442   8.801   1.139   1.602
  734WAT      O 2443   2.589   0.345   5.684
  734WAT     H1 2444   2.577   0.420   5.619
  734WAT     H2 2445   2.504   0.291   5.689
  735WAT      O 2446   0.861   0.759   2.565
  735WAT     H1 2447   0.784   0.821   2.582
  735WAT     H2 2448   0.934   0.777   2.630
  736WAT      O 2449   8.698   5.958   5.652
  736WAT     H1 2450   8.662   5.896   5.721
  736WAT     H2 2451   8.753   5.906   5.586
  737WAT      O 2452   5.805   6.496   9.297
  737WAT     H1 2453   5.708   6.473   9.308
  737WAT     H2 2454   5.859   6.413   9.291
  738WAT      O 2455   3.284   3.052   1.200
  738WAT     H1 2456   3.203   3.100   1.233
  738WAT     H2 2457   3.266   2.954   1.197
  739WAT      O 2458   2.374   5.783   5.630
  739WAT     H1 2459   2.366   5.705   5.568
  739WAT     H2 2460   2.443   5.764   5.699
  740WAT      O 2461   9.121   3.000   8.064
  740WAT     H1 2462   9.160   3.074   8.008
  740WAT     H2 2463   9.173   2.916   8.049
  741WAT      O 2464   2.647   0.572   1.727
  741WAT     H1 2465   2.638   0.508   1.803
  741WAT     H2 2466   2.679   0.523   1.646
  742WAT      O 2467   5.593   3.232   2.686
  742WAT     H1 2468   5.520   3.233   2.619
  742WAT     H2 2469   5.649   3.314   2.676
  743WAT      O 2470   5.600   2.085   4.070
  743WAT     H1 2471   5.568   2.132   3.988
  743WAT     H2 2472   5.698   2.065   4.061
  744WAT      O 2473   4.758   8.260   6.685
  744WAT     H1 2474   4.660   8.274   6.699
  744WAT     H2 2475   4.788   8.179   6.735
  745WAT      O 2476   3.443   3.298   5.148
  745WAT     H1 2477   3.347   3.270   5.147
  745WAT     H2 2478   3.473   3.313   5.242
  746WAT      O 2479   7.841   8.157   7.473
  746WAT     H1 2480   7.767   8.091   7.456
  746WAT     H2 2481   7.802   8.246   7.497
  747WAT      O 2482   0.583   6.024   2.019
  747WAT     H1 2483   0.496   6.016   1.970
  747WAT     H2 2484   0.650   6.068   1.959
  748WAT      O 2485   1.187   6.878   0.872
  748WAT     H1 2486   1.251   6.913   0.940
  748WAT     H2 2487   1.226   6.888   0.781
  749WAT      O 2488   2.373   4.639   2.378
  749WAT     H1 2489   2.424   4.699   2.440
  749WAT     H2 2490   2.368   4.681   2.288
  750WAT      O 2491   6.329   7.480   9.005
  750WAT     H1 2492   6.296   7.506   9.096
  750WAT     H2 2493   6.407   7.539   8.981
  751WAT      O 2494   2.511   2.162   3.604
  751WAT     H1 2495   2.445   2.117   3.664
  751WAT     H2 2496   2.555   2.237   3.652
  752WAT      O 2497   2.108   0.051   8.263
  752WAT     H1 2498   2.020   0.053   8.214
  752WAT     H2 2499   2.159  -0.030   8.236
  753WAT      O 2500   9.731   3.600   1.536
  753WAT     H1 2501   9.671   3.607   1.456
  753WAT     H2 2502   9.714   3.676   1.598
  754WAT      O 2503   9.211   1.972   4.590
  754WAT     H1 2504   9.262   1.896   4.549
  754WAT     H2 2505   9.113   1.952   4.587
  755WAT      O 2506   1.188   2.784   7.206
  755WAT     H1 2507   1.100   2.830   7.190
  755WAT     H2 2508   1.212   2.792   7.302
  756WAT      O 2509   6.387   6.474   1.260
  756WAT     H1 2510   6.349   6.521   1.340
  756WAT     H2 2511   6.407   6.379   1.283
  757WAT      O 2512   9.236   4.830   5.912
  757WAT     H1 2513   9.140   4.838   5.938
  757WAT     H2 2514   9.285   4.913   5.939
  758WAT      O 2515   5.050   9.106   8.764
  758WAT     H1 2516   5.010   9.017   8.743
  758WAT     H2 2517   5.134   9.118   8.711
  759WAT      O 2518   7.503   9.845   4.033
  759WAT     H1 2519   7.484   9.756   3.991
  759WAT     H2 2520   7.596   9.847   4.069
  760WAT      O 2521   9.451   0.408   6.130
  760WAT     H1 2522   9.399   0.334   6.174
  760WAT     H2 2523   9.387   0.469   6.083
  761WAT      O 2524   6.127   3.419   3.069
  761WAT     H1 2525   6.186   3.487   3.026
  761WAT     H2 2526   6.093   3.455   3.156
  762WAT      O 2527   1.378   5.423   5.149
  762WAT     H1 2528   1.474   5.425   5.122
  762WAT     H2 2529   1.356   5.503   5.204
  763WAT      O 2530   1.144   1.084   0.037
  763WAT     H1 2531   1.139   0.986   0.016
  763WAT     H2 2532   1.233   1.120   0.009
  764WAT      O 2533   8.845   5.989   2.837
  764WAT     H1 2534   8.846   5.915   2.770
  764WAT     H2 2535   8.937   6.000   2.877
  765WAT      O 2536   2.911   9.008   6.913
  765WAT     H1 2537   3.005   9.043   6.914
  765WAT     H2 2538   2.906   8.926   6.856
  766WAT      O 2539   3.220   3.944   4.028
  766WAT     H1 2540   3.276   3.871   4.066
  766WAT     H2 2541   3.161   3.908   3.956
  767WAT      O 2542   9.514   7.611   6.644
  767WAT     H1 2543   9.552   7.520   6.661
  767WAT     H2 2544   9.416   7.610   6.664
  768WAT      O 2545   3.009   2.407   3.084
  768WAT     H1 2546   2.938   2.454   3.032
  768WAT     H2 2547   2.971   2.325   3.127
  769WAT      O 2548   7.355   4.699   9.773
  769WAT     H1 2549   7.355   4.703   9.873
  769WAT     H2 2550   7.431   4.754   9.737
  770WAT      O 2551   0.437   8.871   8.986
  770WAT     H1 2552   0.515   8.861   8.924
  770WAT     H2 2553   0.360   8.910   8.936
  771WAT      O 2554   7.529   3.020   5.304
  771WAT     H1 2555   7.525   3.104   5.358
  771WAT     H2 2556   7.504   2.942   5.362
  772WAT      O 2557   2.195   5.085   6.568
  772WAT     H1 2558   2.231   4.992   6.576
  772WAT     H2 2559   2.095   5.081   6.562
  773WAT      O 2560   6.327   0.401   1.084
  773WAT     H1 2561   6.237   0.434   1.057
  773WAT     H2 2562   6.397   0.467   1.057
  774WAT      O 2563   8.357   8.993   3.407
  774WAT     H1 2564   8.432   8.932   3.433
  774WAT     H2 2565   8.289   8.996   3.479
  775WAT      O 2566   7.871   4.630   7.352
  775WAT     H1 2567   7.946   4.659   7.293
  775WAT     H2 2568   7.902   4.628   7.447
  776WAT      O 2569   6.959   2.763   5.074
  776WAT     H1 2570   6.906   2.819   5.137
  776WAT     H2 2571   6.950   2.666   5.099
  777WAT      O 2572   1.470   7.711   3.286
  777WAT     H1 2573   1.498   7.673   3.374
  777WAT     H2 2574   1.527   7.789   3.263
  778WAT      O 2575   6.101   4.250   3.693
  778WAT     H1 2576   6.183   4.303   3.672
  778WAT     H2 2577   6.093   4.174   3.628
  779WAT      O 2578   0.842   8.197   5.109
  779WAT     H1 2579   0.913   8.151   5.057
  779WAT     H2 2580   0.883   8.268   5.166
  780WAT      O 2581   6.555   8.029   6.511
  780WAT     H1 2582   6.586   8.019   6.605
  780WAT     H2 2583   6.504   7.948   6.484
  781WAT      O 2584   2.054   0.301   7.490
  781WAT     H1 2585   2.058   0.253   7.577
  781WAT     H2 2586   2.112   0.383   7.494
  782WAT      O 2587   5.509   2.777   3.548
  782WAT     H1 2588   5.449   2.854   3.525
  782WAT     H2 2589   5.489   2.700   3.488
  783WAT      O 2590   6.047   2.590   2.101
  783WAT     H1 2591   6.131   2.639   2.126
  783WAT     H2 2592   6.071   2.497   2.071
  784WAT      O 2593   6.678   9.197   9.470
  784WAT     H1 2594   6.624   9.114   9.486
  784WAT     H2 2595   6.772   9.171   9.450
  785WAT      O 2596   0.296   4.511   4.234
  785WAT     H1 2597   0.281   4.535   4.330
  785WAT     H2 2598   0.343   4.423   4.228
  786WAT      O 2599   7.600   4.327   1.445
  786WAT     H1 2600   7.587   4.374   1.357
  786WAT     H2 2601   7.690   4.350   1.482
  787WAT      O 2602   1.673   0.315   0.935
  787WAT     H1 2603   1.593   0.332   0.878
  787WAT     H2 2604   1.756   0.331   0.881
  788WAT      O 2605   6.625   5.844   1.460
  788WAT     H1 2606   6.697   5.859   1.393
  788WAT     H2 2607   6.573   5.762   1.436
  789WAT      O 2608   2.865   5.295   4.489
  789WAT     H1 2609   2.815   5.289   4.403
  789WAT     H2 2610   2.908   5.206   4.509
  790WAT      O 2611   9.804   1.870   4.452
  790WAT     H1 2612   9.762   1.836   4.368
  790WAT     H2 2613   9.786   1.806   4.527
  791WAT      O 2614   1.927   1.230   1.371
  791WAT     H1 2615   1.938   1.155   1.436
  791WAT     H2 2616   1.830   1.251   1.360
  792WAT      O 2617   4.767   0.815   4.331
  792WAT     H1 2618   4.802   0.736   4.281
  792WAT     H2 2619   4.788   0.806   4.428
  793WAT      O 2620   8.504   1.059   7.268
  793WAT     H1 2621   8.463   1.076   7.179
  793WAT     H2 2622   8.594   1.104   7.273
  794WAT      O 2623   8.803   0.983   9.698
  794WAT     H1 2624   8.876   0.969   9.765
  794WAT     H2 2625   8.718   1.004   9.745
  795WAT      O 2626   7.399   2.603   0.243
  795WAT     H1 2627   7.387   2.614   0.144
  795WAT     H2 2628   7.309   2.595   0.287
  796WAT      O 2629   9.508   1.321   8.196
  796WAT     H1 2630   9.501   1.314   8.096
  796WAT     H2 2631   9.479   1.234   8.237
  797WAT      O 2632   0.141   9.731   3.819
  797WAT     H1 2633   0.079   9.682   3.880
  797WAT     H2 2634   0.101   9.819   3.794
  798WAT      O 2635   7.726   3.312   8.126
  798WAT     H1 2636   7.783   3.305   8.207
  798WAT     H2 2637   7.653   3.243   8.130
  799WAT      O 2638   0.315   3.106   5.134
  799WAT     H1 2639   0.278   3.119   5.042
  799WAT     H2 2640   0.344   3.194   5.171
  800WAT      O 2641   7.973   4.189   0.507
  800WAT     H1 2642   7.978   4.281   0.546
  800WAT     H2 2643   8.031   4.183   0.426
  801WAT      O 2644   1.888   8.440   4.701
  801WAT     H1 2645   1.850   8.407   4.615
  801WAT     H2 2646   1.978   8.479   4.685
  802WAT      O 2647   8.843   6.710   5.757
  802WAT     H1 2648   8.920   6.746   5.810
  802WAT     H2 2649   8.758   6.748   5.793
  803WAT      O 2650   3.588   5.519   0.548
  803WAT     H1 2651   3.687   5.516   0.536
  803WAT     H2 2652   3.549   5.591   0.491
  804WAT      O 2653   2.424   5.443   9.860
  804WAT     H1 2654   2.426   5.457   9.761
  804WAT     H2 2655   2.516   5.426   9.894
  805WAT      O 2656   1.863   5.343   0.529
  805WAT     H1 2657   1.878   5.341   0.430
  805WAT     H2 2658   1.841   5.251   0.561
  806WAT      O 2659   8.082   6.586   5.818
  806WAT     H1 2660   8.137   6.586   5.901
  806WAT     H2 2661   8.015   6.512   5.822
  807WAT      O 2662   6.303   2.840   4.840
  807WAT     H1 2663   6.291   2.926   4.891
  807WAT     H2 2664   6.348   2.859   4.753
  808WAT      O 2665   2.936   8.184   4.738
  808WAT     H1 2666   3.004   8.196   4.809
  808WAT     H2 2667   2.848   8.163   4.779
  809WAT      O 2668   2.572   3.060   4.752
  809WAT     H1 2669   2.638   3.099   4.817
  809WAT     H2 2670   2.619   2.996   4.692
  810WAT      O 2671   0.868   2.331   0.860
  810WAT     H1 2672   0.876   2.303   0.764
  810WAT     H2 2673   0.957   2.363   0.893
  811WAT      O 2674   4.733   9.415   7.873
  811WAT     H1 2675   4.750   9.318   7.861
  811WAT     H2 2676   4.672   9.429   7.952
  812WAT      O 2677   6.444   3.691   9.883
  812WAT     H1 2678   6.498   3.631   9.942
  812WAT     H2 2679   6.503   3.763   9.845
  813WAT      O 2680   0.539   3.692   6.810
  813WAT     H1 2681   0.597   3.705   6.890
  813WAT     H2 2682   0.572   3.750   6.735
  814WAT      O 2683   0.463   3.830   7.386
  814WAT     H1 2684   0.378   3.841   7.438
  814WAT     H2 2685   0.446   3.775   7.305
  815WAT      O 2686   7.322   2.556   3.470
  815WAT     H1 2687   7.389   2.514   3.531
  815WAT     H2 2688   7.359   2.641   3.432
  816WAT      O 2689   9.801   3.168   2.962
  816WAT     H1 2690   9.825   3.168   3.059
  816WAT     H2 2691   9.868   3.115   2.910
  817WAT      O 2692   9.074   2.279   2.025
  817WAT     H1 2693   9.071   2.332   1.940
  817WAT     H2 2694   9.035   2.332   2.100
  818WAT      O 2695   9.106   3.371   2.339
  818WAT     H1 2696   9.151   3.313   2.270
  818WAT     H2 2697   9.143   3.464   2.334
  819WAT      O 2698   7.109   6.593   7.759
  819WAT     H1 2699   7.175   6.583   7.834
  819WAT     H2 2700   7.157   6.618   7.675
  820WAT      O 2701   0.443   2.295   2.872
  820WAT     H1 2702   0.423   2.336   2.782
  820WAT     H2 2703   0.372   2.323   2.937
  821WAT      O 2704   4.713   4.835   1.766
  821WAT     H1 2705   4.813   4.847   1.768
  821WAT     H2 2706   4.684   4.785   1.847
  822WAT      O 2707   6.474   7.204   9.026
  822WAT     H1 2708   6.486   7.300   9.000
  822WAT     H2 2709   6.544   7.178   9.092
  823WAT      O 2710   4.880   5.720   7.789
  823WAT     H1 2711   4.904   5.769   7.873
  823WAT     H2 2712   4.810   5.652   7.809
  824WAT      O 2713   4.708   6.307   9.725
  824WAT     H1 2714   4.770   6.259   9.663
  824WAT     H2 2715   4.614   6.290   9.697
  825WAT      O 2716   6.631   0.411   3.235
  825WAT     H1 2717   6.554   0.466   3.200
  825WAT     H2 2718   6.685   0.378   3.158
  826WAT      O 2719   1.178   2.759   4.998
  826WAT     H1 2720   1.239   2.688   5.032
  826WAT     H2 2721   1.090   2.719   4.972
  827WAT      O 2722   3.095   2.409   1.993
  827WAT     H1 2723   3.155   2.385   2.069
  827WAT     H2 2724   3.150   2.432   1.913
  828WAT      O 2725   3.602   5.305   1.476
  828WAT     H1 2726   3.632   5.352   1.393
  828WAT     H2 2727   3.523   5.353   1.515
  829WAT      O 2728   4.914   9.614   2.354
  829WAT     H1 2729   4.852   9.606   2.275
  829WAT     H2 2730   4.960   9.527   2.369
  830WAT      O 2731   1.539   8.438   0.659
  830WAT     H1 2732   1.535   8.418   0.561
  830WAT     H2 2733   1.467   8.503   0.683
  831WAT      O 2734   5.181   7.422   0.115
  831WAT     H1 2735   5.269   7.458   0.085
  831WAT     H2 2736   5.140   7.484   0.181
  832WAT      O 2737   4.510   5.930   4.247
  832WAT     H1 2738   4.457   6.008   4.212
  832WAT     H2 2739   4.461   5.889   4.324
  833WAT      O 2740   5.710   4.946   6.383
  833WAT     H1 2741   5.801   4.907   6.399
  833WAT     H2 2742   5.656   4.882   6.329
  834WAT      O 2743   1.468   7.949   2.620
  834WAT     H1 2744   1.464   7.948   2.521
  834WAT     H2 2745   1.459   8.042   2.654
  835WAT      O 2746   9.847   5.813   9.396
  835WAT     H1 2747   9.936   5.858   9.398
  835WAT     H2 2748   9.829   5.781   9.303
  836WAT      O 2749   6.649   1.000   7.540
  836WAT     H1 2750   6.558   0.968   7.567
  836WAT     H2 2751   6.669   1.087   7.587
  837WAT      O 2752   1.984   1.841   7.779
  837WAT     H1 2753   2.032   1.900   7.713
  837WAT     H2 2754   1.992   1.881   7.870
  838WAT      O 2755   9.611   1.699   1.547
  838WAT     H1 2756   9.710   1.708   1.552
  838WAT     H2 2757   9.572   1.707   1.639
  839WAT      O 2758   6.794   3.589   5.274
  839WAT     H1 2759   6.815   3.501   5.315
  839WAT     H2 2760   6.727   3.577   5.200
  840WAT      O 2761   2.566   7.559   3.452
  840WAT     H1 2762   2.471   7.573   3.478
  840WAT     H2 2763   2.626   7.592   3.524
  841WAT      O 2764   5.598   8.878   5.531
  841WAT     H1 2765   5.518   8.888   5.589
  841WAT     H2 2766   5.599   8.951   5.463
  842WAT      O 2767   1.939   6.795   3.618
  842WAT     H1 2768   1.942   6.734   3.539
  842WAT     H2 2769   1.964   6.744   3.700
  843WAT      O 2770   3.903   2.071   6.966
  843WAT     H1 2771   3.886   2.033   6.874
  843WAT     H2 2772   3.991   2.118   6.966
  844WAT      O 2773   5.628   4.704   4.843
  844WAT     H1 2774   5.570   4.664   4.772
  844WAT     H2 2775   5.570   4.752   4.910
  845WAT      O 2776   7.181   1.768   0.446
  845WAT     H1 2777   7.134   1.818   0.518
  845WAT     H2 2778   7.260   1.820   0.414
  846WAT      O 2779   5.363   6.030   8.445
  846WAT     H1 2780   5.321   6.058   8.531
  846WAT     H2 2781   5.459   6.007   8.461
  847WAT      O 2782   6.079   7.315   8.195
  847WAT     H1 2783   5.985   7.281   8.195
  847WAT     H2 2784   6.142   7.238   8.199
  848WAT      O 2785   6.161   3.248   1.285
  848WAT     H1 2786   6.193   3.155   1.266
  848WAT     H2 2787   6.173   3.305   1.204
  849WAT      O 2788   3.619   2.930   3.612
  849WAT     H1 2789   3.553   2.858   3.591
  849WAT     H2 2790   3.574   3.019   3.603
  850WAT      O 2791   8.261   9.355   4.176
  850WAT     H1 2792   8.290   9.350   4.080
  850WAT     H2 2793   8.327   9.306   4.233
  851WAT      O 2794   2.687   5.263   8.819
  851WAT     H1 2795   2.626   5.317   8.877
  851WAT     H2 2796   2.637   5.232   8.738
  852WAT      O 2797   0.631   0.372   5.747
  852WAT     H1 2798   0.617   0.325   5.834
  852WAT     H2 2799   0.686   0.315   5.687
  853WAT      O 2800   6.517   6.463   3.243
  853WAT     H1 2801   6.507   6.410   3.158
  853WAT     H2 2802   6.428   6.475   3.286
  854WAT      O 2803   5.371   8.976   4.824
  854WAT     H1 2804   5.414   8.911   4.761
  854WAT     H2 2805   5.388   9.069   4.792
  855WAT      O 2806   9.091   4.497   7.315
  855WAT     H1 2807   9.188   4.497   7.336
  855WAT     H2 2808   9.073   4.557   7.237
  856WAT      O 2809   7.200   3.698   1.479
  856WAT     H1 2810   7.236   3.784   1.442
  856WAT     H2 2811   7.177   3.637   1.404
  857WAT      O 2812   5.881   5.279   9.890
  857WAT     H1 2813   5.796   5.260   9.840
  857WAT     H2 2814   5.870   5.363   9.943
  858WAT      O 2815   5.306   7.742   3.054
  858WAT     H1 2816   5.343   7.835   3.062
  858WAT     H2 2817   5.206   7.747   3.046
  859WAT      O 2818   0.354   8.127   9.363
  859WAT     H1 2819   0.425   8.194   9.385
  859WAT     H2 2820   0.266   8.173   9.354
  860WAT      O 2821   0.413   3.837   4.686
  860WAT     H1 2822   0.508   3.858   4.664
  860WAT     H2 2823   0.362   3.817   4.602
  861WAT      O 2824   7.729   0.050   6.268
  861WAT     H1 2825   7.770  -0.015   6.332
  861WAT     H2 2826   7.765   0.142   6.286
  862WAT      O 2827   6.976   7.158   2.395
  862WAT     H1 2828   6.892   7.209   2.411
  862WAT     H2 2829   6.999   7.105   2.477
  863WAT      O 2830   4.550   2.040   6.514
  863WAT     H1 2831   4.455   2.070   6.527
  863WAT     H2 2832   4.560   1.998   6.424
  864WAT      O 2833   4.034   7.487   0.256
  864WAT     H1 2834   4.022   7.521   0.349
  864WAT     H2 2835   4.127   7.506   0.225
  865WAT      O 2836   8.880   8.086   1.900
  865WAT     H1 2837   8.893   8.023   1.977
  865WAT     H2 2838   8.816   8.046   1.835
  866WAT      O 2839   7.871   0.956   7.284
  866WAT     H1 2840   7.810   0.913   7.218
  866WAT     H2 2841   7.939   1.011   7.236
  867WAT      O 2842   1.899   6.312   1.790
  867WAT     H1 2843   1.965   6.242   1.816
  867WAT     H2 2844   1.842   6.336   1.869
  868WAT      O 2845   2.176   2.111   6.061
  868WAT     H1 2846   2.146   2.107   6.156
  868WAT     H2 2847   2.229   2.029   6.039
  869WAT      O 2848   8.105   5.258   3.247
  869WAT     H1 2849   8.160   5.228   3.324
  869WAT     H2 2850   8.084   5.355   3.257
  870WAT      O 2851   2.976   6.755   5.966
  870WAT     H1 2852   3.006   6.735   5.873
  870WAT     H2 2853   2.972   6.853   5.980
  871WAT      O 2854   2.383   5.055   5.612
  871WAT     H1 2855   2.346   4.962   5.612
  871WAT     H2 2856   2.424   5.075   5.701
  872WAT      O 2857   2.298   5.820   7.627
  872WAT     H1 2858   2.326   5.916   7.635
  872WAT     H2 2859   2.207   5.816   7.586
  873WAT      O 2860   8.068   7.670   5.631
  873WAT     H1 2861   8.009   7.720   5.568
  873WAT     H2 2862   8.142   7.626   5.581
  874WAT      O 2863   6.452   4.672   0.414
  874WAT     H1 2864   6.399   4.733   0.473
  874WAT     H2 2865   6.441   4.578   0.444
  875WAT      O 2866   4.467   3.033   2.256
  875WAT     H1 2867   4.531   3.107   2.236
  875WAT     H2 2868   4.384   3.070   2.297
  876WAT      O 2869   7.161   6.493   9.340
  876WAT     H1 2870   7.107   6.573   9.315
  876WAT     H2 2871   7.239   6.484   9.277
  877WAT      O 2872   9.277   0.196   5.755
  877WAT     H1 2873   9.359   0.163   5.709
  877WAT     H2 2874   9.261   0.142   5.838
  878WAT      O 2875   6.113   6.717   4.951
  878WAT     H1 2876   6.094   6.730   5.048
  878WAT     H2 2877   6.165   6.633   4.938
  879WAT      O 2878   2.108   6.534   2.833
  879WAT     H1 2879   2.142   6.605   2.895
  879WAT     H2 2880   2.142   6.445   2.864
  880WAT      O 2881   4.444   0.338   3.699
  880WAT     H1 2882   4.503   0.273   3.650
  880WAT     H2 2883   4.354   0.341   3.656
  881WAT      O 2884   6.016   9.787   4.693
  881WAT     H1 2885   5.986   9.880   4.672
  881WAT     H2 2886   5.944   9.723   4.667
  882WAT      O 2887   6.636   9.804   7.440
  882WAT     H1 2888   6.548   9.831   7.401
  882WAT     H2 2889   6.708   9.862   7.404
  883WAT      O 2890   8.809   3.546   9.296
  883WAT     H1 2891   8.764   3.456   9.299
  883WAT     H2 2892   8.772   3.599   9.220
  884WAT      O 2893   3.510   4.904   2.931
  884WAT     H1 2894   3.438   4.964   2.896
  884WAT     H2 2895   3.594   4.920   2.880
  885WAT      O 2896   4.237   7.831   4.304
  885WAT     H1 2897   4.185   7.871   4.379
  885WAT     H2 2898   4.175   7.808   4.229
  886WAT      O 2899   0.778   5.516   1.634
  886WAT     H1 2900   0.837   5.451   1.683
  886WAT     H2 2901   0.740   5.472   1.553
  887WAT      O 2902   5.165   0.219   6.446
  887WAT     H1 2903   5.072   0.196   6.417
  887WAT     H2 2904   5.166   0.235   6.545
  888WAT      O 2905   3.015   6.163   6.178
  888WAT     H1 2906   3.085   6.209   6.124
  888WAT     H2 2907   2.924   6.193   6.147
  889WAT      O 2908   0.991   9.462   5.813
  889WAT     H1 2909   1.011   9.432   5.906
  889WAT     H2 2910   0.892   9.474   5.803
  890WAT      O 2911   2.503   8.818   0.590
  890WAT     H1 2912   2.552   8.829   0.676
  890WAT     H2 2913   2.518   8.899   0.532
  891WAT      O 2914   0.059   0.183   9.568
  891WAT     H1 2915   0.091   0.150   9.480
  891WAT     H2 2916   0.106   0.134   9.642
  892WAT      O 2917   7.501   2.873   8.119
  892WAT     H1 2918   7.543   2.850   8.207
  892WAT     H2 2919   7.403   2.856   8.124
  893WAT      O 2920   3.479   5.603   5.303
  893WAT     H1 2921   3.508   5.661   5.227
  893WAT     H2 2922   3.438   5.519   5.267
  894WAT      O 2923   8.429   6.485   0.921
  894WAT     H1 2924   8.352   6.494   0.984
  894WAT     H2 2925   8.492   6.415   0.955
  895WAT      O 2926   3.219   0.749   6.532
  895WAT     H1 2927   3.314   0.718   6.522
  895WAT     H2 2928   3.172   0.738   6.444
  896WAT      O 2929   0.668   4.622   5.816
  896WAT     H1 2930   0.577   4.600   5.780
  896WAT     H2 2931   0.738   4.595   5.749
  897WAT      O 2932   1.451   6.567   8.484
  897WAT     H1 2933   1.506   6.495   8.526
  897WAT     H2 2934   1.502   6.653   8.484
  898WAT      O 2935   3.456   3.980   9.159
  898WAT     H1 2936   3.538   4.035   9.173
  898WAT     H2 2937   3.482   3.889   9.127
  899WAT      O 2938   3.923   5.876   6.371
  899WAT     H1 2939   3.946   5.806   6.303
  899WAT     H2 2940   4.007   5.915   6.408
  900WAT      O 2941   3.535   2.221   2.153
  900WAT     H1 2942   3.538   2.314   2.117
  900WAT     H2 2943   3.558   2.222   2.251
  901WAT      O 2944   4.316   2.987   6.268
  901WAT     H1 2945   4.328   2.963   6.171
  901WAT     H2 2946   4.276   3.078   6.275
  902WAT      O 2947   7.959   8.734   6.189
  902WAT     H1 2948   7.987   8.656   6.133
  902WAT     H2 2949   8.012   8.734   6.274
  903WAT      O 2950   1.181   9.538   8.851
  903WAT     H1 2951   1.276   9.563   8.833
  903WAT     H2 2952   1.177   9.473   8.926
  904WAT      O 2953   7.133   6.190   6.538
  904WAT     H1 2954   7.090   6.141   6.461
  904WAT     H2 2955   7.063   6.228   6.597
  905WAT      O 2956   3.421   6.184   0.201
  905WAT     H1 2957   3.362   6.150   0.128
  905WAT     H2 2958   3.426   6.284   0.196
  906WAT      O 2959   4.896   7.154   8.792
  906WAT     H1 2960   4.902   7.226   8.861
  906WAT     H2 2961   4.983   7.106   8.787
  907WAT      O 2962   4.524   1.081   4.957
  907WAT     H1 2963   4.532   1.013   4.885
  907WAT     H2 2964   4.595   1.064   5.026
  908WAT      O 2965   9.120   7.285   8.729
  908WAT     H1 2966   9.218   7.302   8.734
  908WAT     H2 2967   9.096   7.206   8.784
  909WAT      O 2968   3.070   5.992   7.750
  909WAT     H1 2969   3.026   5.919   7.803
  909WAT     H2 2970   3.026   6.079   7.771
  910WAT      O 2971   0.648   3.564   4.636
  910WAT     H1 2972   0.568   3.543   4.690
  910WAT     H2 2973   0.684   3.481   4.593
  911WAT      O 2974   7.914   3.542   1.075
  911WAT     H1 2975   7.843   3.480   1.111
  911WAT     H2 2976   7.919   3.532   0.976
  912WAT      O 2977   4.557   8.721   2.520
  912WAT     H1 2978   4.592   8.645   2.575
  912WAT     H2 2979   4.487   8.771   2.571
  913WAT      O 2980   8.091   0.938   1.991
  913WAT     H1 2981   8.074   0.973   1.899
  913WAT     H2 2982   8.014   0.960   2.050
  914WAT      O 2983   0.664   0.344   3.556
  914WAT     H1 2984   0.623   0.335   3.646
  914WAT     H2 2985   0.595   0.375   3.490
  915WAT      O 2986   9.398   0.586   8.298
  915WAT     H1 2987   9.375   0.577   8.395
  915WAT     H2 2988   9.498   0.592   8.288
  916WAT      O 2989   2.552   8.321   8.932
  916WAT     H1 2990   2.604   8.245   8.971
  916WAT     H2 2991   2.614   8.383   8.884
  917WAT      O 2992   2.071   3.840   7.191
  917WAT     H1 2993   2.147   3.849   7.256
  917WAT     H2 2994   2.085   3.905   7.116
  918WAT      O 2995   9.718   6.703   7.195
  918WAT     H1 2996   9.707   6.661   7.105
  918WAT     H2 2997   9.741   6.799   7.184
  919WAT      O 2998   2.370   1.254   1.456
  919WAT     H1 2999   2.311   1.181   1.423
  919WAT     H2 3000   2.466   1.224   1.453
  920WAT      O 3001   5.505   6.547   5.161
  920WAT     H1 3002   5.406   6.561   5.158
  920WAT     H2 3003   5.548   6.624   5.208
  921WAT      O 3004   8.467   5.691   8.990
  921WAT     H1 3005   8.548   5.684   9.047
  921WAT     H2 3006   8.484   5.647   8.902
  922WAT      O 3007   1.348   5.857   4.597
  922WAT     H1 3008   1.406   5.939   4.604
  922WAT     H2 3009   1.298   5.845   4.682
  923WAT      O 3010   4.358   0.284   9.564
  923WAT     H1 3011   4.415   0.338   9.502
  923WAT     H2 3012   4.317   0.344   9.632
  924WAT      O 3013   1.527   0.772   0.504
  924WAT     H1 3014   1.624   0.771   0.527
  924WAT     H2 3015   1.505   0.858   0.457
  925WAT      O 3016   6.824   1.659   2.904
  925WAT     H1 3017   6.773   1.721   2.963
  925WAT     H2 3018   6.760   1.604   2.850
  926WAT      O 3019   7.525   2.001   1.869
  926WAT     H1 3020   7.542   1.912   1.827
  926WAT     H2 3021   7.516   2.071   1.798
  927WAT      O 3022   2.836   6.024   5.173
  927WAT     H1 3023   2.855   6.062   5.264
  927WAT     H2 3024   2.908   5.958   5.149
  928WAT      O 3025   0.339   1.930   8.462
  928WAT     H1 3026   0.254   1.895   8.501
  928WAT     H2 3027   0.334   1.925   8.362
  929WAT      O 3028   4.278   8.670   1.911
  929WAT     H1 3029   4.265   8.705   1.818
  929WAT     H2 3030   4.260   8.743   1.977
  930WAT      O 3031   1.972   7.446   7.629
  930WAT     H1 3032   1.948   7.354   7.598
  930WAT     H2 3033   2.069   7.463   7.609
  931WAT      O 3034   4.295   9.653   2.712
  931WAT     H1 3035   4.330   9.572   2.666
  931WAT     H2 3036   4.371   9.705   2.752
  932WAT      O 3037   9.516   1.455   2.212
  932WAT     H1 3038   9.580   1.521   2.250
  932WAT     H2 3039   9.477   1.400   2.285
  933WAT      O 3040   8.711   1.501   8.733
  933WAT     H1 3041   8.712   1.416   8.786
  933WAT     H2 3042   8.675   1.575   8.790
  934WAT      O 3043   9.028   4.060   9.697
  934WAT     H1 3044   8.946   4.116   9.701
  934WAT     H2 3045   9.106   4.111   9.733
  935WAT      O 3046   6.021   4.603   6.883
  935WAT     H1 3047   5.930   4.604   6.925
  935WAT     H2 3048   6.088   4.640   6.949
  936WAT      O 3049   4.216   3.017   6.927
  936WAT     H1 3050   4.179   3.091   6.871
  936WAT     H2 3051   4.151   2.994   6.999
  937WAT      O 3052   4.434   8.229   4.007
  937WAT     H1 3053   4.393   8.313   3.971
  937WAT     H2 3054   4.365   8.156   4.009
  938WAT      O 3055   5.182   1.246   3.916
  938WAT     H1 3056   5.176   1.157   3.870
  938WAT     H2 3057   5.239   1.308   3.861
  939WAT      O 3058   0.482   9.429   4.826
  939WAT     H1 3059   0.415   9.355   4.834
  939WAT     H2 3060   0.442   9.514   4.861
  940WAT      O 3061   7.854   2.744   3.728
  940WAT     H1 3062   7.784   2.685   3.689
  940WAT     H2 3063   7.839   2.753   3.826
  941WAT      O 3064   5.714   2.861   2.140
  941WAT     H1 3065   5.772   2.791   2.097
  941WAT     H2 3066   5.763   2.947   2.145
  942WAT      O 3067   7.643   3.072   0.356
  942WAT     H1 3068   7.556   3.117   0.339
  942WAT     H2 3069   7.636   2.975   0.333
  943WAT      O 3070   8.214   7.898   6.621
  943WAT     H1 3071   8.132   7.850   6.589
  943WAT     H2 3072   8.194   7.945   6.707
  944WAT      O 3073   3.014   5.379   8.595
  944WAT     H1 3074   3.048   5.292   8.633
  944WAT     H2 3075   3.039   5.454   8.656
  945WAT      O 3076   6.936   5.656   9.876
  945WAT     H1 3077   6.967   5.652   9.971
  945WAT     H2 3078   7.012   5.681   9.817
  946WAT      O 3079   9.125   0.795   0.976
  946WAT     H1 3080   9.027   0.793   0.958
  946WAT     H2 3081   9.174   0.749   0.902
  947WAT      O 3082   7.501   6.365   2.556
  947WAT     H1 3083   7.472   6.424   2.481
  947WAT     H2 3084   7.423   6.312   2.589
  948WAT      O 3085   0.359   6.268   7.588
  948WAT     H1 3086   0.407   6.355   7.600
  948WAT     H2 3087   0.263   6.286   7.565
  949WAT      O 3088   7.789   1.560   5.128
  949WAT     H1 3089   7.849   1.483   5.107
  949WAT     H2 3090   7.837   1.625   5.187
  950WAT      O 3091   7.090   6.439   5.293
  950WAT     H1 3092   7.020   6.421   5.224
  950WAT     H2 3093   7.051   6.496   5.365
  951WAT      O 3094   8.737   9.360   9.030
  951WAT     H1 3095   8.819   9.318   8.990
  951WAT     H2 3096   8.677   9.392   8.956
  952WAT      O 3097   2.463   3.050   0.637
  952WAT     H1 3098   2.477   2.976   0.703
  952WAT     H2 3099   2.544   3.059   0.579
  953WAT      O 3100   8.228   7.925   9.493
  953WAT     H1 3101   8.212   8.015   9.535
  953WAT     H2 3102   8.143   7.892   9.452
  954WAT      O 3103   8.433   6.800   6.308
  954WAT     H1 3104   8.423   6.888   6.355
  954WAT     H2 3105   8.342   6.766   6.283
  955WAT      O 3106   4.235   6.651   3.195
  955WAT     H1 3107   4.144   6.617   3.217
  955WAT     H2 3108   4.228   6.742   3.155
  956WAT      O 3109   7.756   8.685   0.812
  956WAT     H1 3110   7.678   8.630   0.842
  956WAT     H2 3111   7.831   8.624   0.786
  957WAT      O 3112   5.342   2.147   8.370
  957WAT     H1 3113   5.265   2.107   8.320
  957WAT     H2 3114   5.427   2.113   8.331
  958WAT      O 3115   4.028   3.024   7.195
  958WAT     H1 3116   3.956   3.027   7.126
  958WAT     H2 3117   4.065   2.931   7.201
  959WAT      O 3118   8.105   1.182   5.382
  959WAT     H1 3119   8.102   1.279   5.360
  959WAT     H2 3120   8.180   1.164   5.446
  960WAT      O 3121   2.892   9.494   2.946
  960WAT     H1 3122   2.950   9.522   3.022
  960WAT     H2 3123   2.882   9.394   2.946
  961WAT      O 3124   4.708   3.592   7.926
  961WAT     H1 3125   4.732   3.656   7.999
  961WAT     H2 3126   4.611   3.566   7.936
  962WAT      O 3127   8.162   9.025   3.606
  962WAT     H1 3128   8.104   8.951   3.641
  962WAT     H2 3129   8.135   9.111   3.649
  963WAT      O 3130   1.693   4.270   2.079
  963WAT     H1 3131   1.599   4.265   2.046
  963WAT     H2 3132   1.741   4.186   2.052
  964WAT      O 3133   9.054   2.959   2.790
  964WAT     H1 3134   9.065   3.035   2.854
  964WAT     H2 3135   8.965   2.916   2.804
  965WAT      O 3136   5.614   6.857   4.050
  965WAT     H1 3137   5.687   6.892   3.992
  965WAT     H2 3138   5.626   6.759   4.064
  966WAT      O 3139   6.830   2.333   9.117
  966WAT     H1 3140   6.799   2.240   9.135
  966WAT     H2 3141   6.750   2.394   9.111
  967WAT      O 3142   2.938   1.143   2.730
  967WAT     H1 3143   2.920   1.238   2.703
  967WAT     H2 3144   3.033   1.134   2.758
  968WAT      O 3145   9.578   5.491   5.319
  968WAT     H1 3146   9.511   5.515   5.390
  968WAT     H2 3147   9.543   5.519   5.230
  969WAT      O 3148   1.713   3.001   7.419
  969WAT     H1 3149   1.778   2.953   7.360
  969WAT     H2 3150   1.738   2.988   7.515
  970WAT      O 3151   8.167   0.548   4.348
  970WAT     H1 3152   8.218   0.492   4.282
  970WAT     H2 3153   8.091   0.594   4.302
  971WAT      O 3154   5.516   3.677   8.151
  971WAT     H1 3155   5.566   3.709   8.070
  971WAT     H2 3156   5.581   3.643   8.218
  972WAT      O 3157   7.829   9.553   4.914
  972WAT     H1 3158   7.791   9.636   4.873
  972WAT     H2 3159   7.759   9.507   4.967
  973WAT      O 3160   1.102   4.560   9.413
  973WAT     H1 3161   1.117   4.616   9.331
  973WAT     H2 3162   1.134   4.467   9.396
  974WAT      O 3163   3.213   8.333   2.459
  974WAT     H1 3164   3.278   8.260   2.481
  974WAT     H2 3165   3.264   8.416   2.435
  975WAT      O 3166   0.784   2.285   5.260
  975WAT     H1 3167   0.739   2.330   5.183
  975WAT     H2 3168   0.774   2.341   5.342
  976WAT      O 3169   3.564   6.557   2.962
  976WAT     H1 3170   3.468   6.581   2.979
  976WAT     H2 3171   3.611   6.545   3.049
  977WAT      O 3172   6.251   2.137   2.856
  977WAT     H1 3173   6.207   2.198   2.790
  977WAT     H2 3174   6.277   2.052   2.810
  978WAT      O 3175   0.916   3.153   7.065
  978WAT     H1 3176   0.907   3.252   7.075
  978WAT     H2 3177   0.929   3.130   6.968
  979WAT      O 3178   4.314   0.604   4.565
  979WAT     H1 3179   4.337   0.577   4.658
  979WAT     H2 3180   4.252   0.536   4.525
  980WAT      O 3181   9.673   9.478   4.103
  980WAT     H1 3182   9.755   9.513   4.058
  980WAT     H2 3183   9.606   9.451   4.034
  981WAT      O 3184   0.494   0.507   3.385
  981WAT     H1 3185   0.405   0.479   3.422
  981WAT     H2 3186   0.511   0.602   3.409
  982WAT      O 3187   1.302   3.599   8.300
  982WAT     H1 3188   1.286   3.560   8.391
  982WAT     H2 3189   1.214   3.613   8.254
  983WAT      O 3190   5.611   8.002   9.762
  983WAT     H1 3191   5.596   7.930   9.830
  983WAT     H2 3192   5.683   8.064   9.795
  984WAT      O 3193   3.505   6.197   9.649
  984WAT     H1 3194   3.435   6.137   9.687
  984WAT     H2 3195   3.532   6.163   9.559
  985WAT      O 3196   7.398   3.279   0.569
  985WAT     H1 3197   7.402   3.223   0.652
  985WAT     H2 3198   7.309   3.323   0.563
  986WAT      O 3199   9.461   0.212   1.016
  986WAT     H1 3200   9.493   0.182   0.926
  986WAT     H2 3201   9.536   0.254   1.066
  987WAT      O 3202   4.897   3.825   6.974
  987WAT     H1 3203   4.916   3.789   7.066
  987WAT     H2 3204   4.806   3.794   6.945
  988WAT      O 3205   1.563   3.962   1.814
  988WAT     H1 3206   1.521   3.935   1.901
  988WAT     H2 3207   1.627   3.890   1.785
  989WAT      O 3208   4.226   0.463   1.627
  989WAT     H1 3209   4.201   0.445   1.722
  989WAT     H2 3210   4.166   0.410   1.567
  990WAT      O 3211   8.313   7.417   1.614
  990WAT     H1 3212   8.281   7.365   1.694
  990WAT     H2 3213   8.398   7.377   1.581
  991WAT      O 3214   3.458   9.577   5.185
  991WAT     H1 3215   3.392   9.503   5.174
  991WAT     H2 3216   3.421   9.646   5.248
  992WAT      O 3217   1.407   5.829   3.635
  992WAT     H1 3218   1.475   5.779   3.582
  992WAT     H2 3219   1.431   5.825   3.732
  993WAT      O 3220   2.032   4.747   3.491
  993WAT     H1 3221   1.935   4.759   3.514
  993WAT     H2 3222   2.082   4.830   3.516
  994WAT      O 3223   2.579   5.798   4.619
  994WAT     H1 3224   2.621   5.887   4.636
  994WAT     H2 3225   2.624   5.728   4.675
  995WAT      O 3226   3.667   9.689   2.800
  995WAT     H1 3227   3.713   9.695   2.889
  995WAT     H2 3228   3.698   9.763   2.741
  996WAT      O 3229   5.275   7.749   3.618
  996WAT     H1 3230   5.251   7.704   3.703
  996WAT     H2 3231   5.200   7.807   3.588
  997WAT      O 3232   3.973   3.849   9.401
  997WAT     H1 3233   3.989   3.890   9.491
  997WAT     H2 3234   3.998   3.752   9.404
  998WAT      O 3235   3.210   9.083   8.086
  998WAT     H1 3236   3.250   8.991   8.088
  998WAT     H2 3237   3.262   9.143   8.146
  999WAT      O 3238   4.982   1.707   4.159
  999WAT     H1 3239   4.942   1.757   4.236
  999WAT     H2 3240   4.920   1.711   4.081
 1000WAT      O 3241   7.147   5.387   0.507
 1000WAT     H1 3242   7.086   5.308   0.509
 1000WAT     H2 3243   7.178   5.403   0.413
 1001WAT      O 3244   6.937   6.560   8.982
 1001WAT     H1 3245   7.033   6.583   8.965
 1001WAT     H2 3246   6.923   6.548   9.080
 1002WAT      O 3247   3.015   7.204   2.175
 1002WAT     H1 3248   3.091   7.194   2.239
 1002WAT     H2 3249   3.010   7.123   2.117
 1003WAT      O 3250   5.382   6.186   7.994
 1003WAT     H1 3251   5.479   6.205   7.977
 1003WAT     H2 3252   5.362   6.198   8.091
 1004WAT      O 3253   2.389   6.956   6.621
 1004WAT     H1 3254   2.425   6.923   6.708
 1004WAT     H2 3255   2.309   6.903   6.595
 1005WAT      O 3256   6.564   3.953   4.718
 1005WAT     H1 3257   6.614   3.936   4.802
 1005WAT     H2 3258   6.470   3.979   4.739
 1006WAT      O 3259   6.723   0.340   2.973
 1006WAT     H1 3260   6.691   0.332   2.878
 1006WAT     H2 3261   6.789   0.415   2.980
 1007WAT      O 3262   9.201   8.291   1.443
 1007WAT     H1 3263   9.292   8.266   1.411
 1007WAT     H2 3264   9.203   8.303   1.542
 1008WAT      O 3265   7.930   1.722   3.157
 1008WAT     H1 3266   7.874   1.730   3.239
 1008WAT     H2 3267   8.007   1.660   3.175
 1009WAT      O 3268   5.115   8.312   7.797
 1009WAT     H1 3269   5.202   8.268   7.774
 1009WAT     H2 3270   5.116   8.406   7.765
 1010WAT      O 3271   6.974   9.464   4.714
 1010WAT     H1 3272   6.998   9.368   4.699
 1010WAT     H2 3273   7.018   9.497   4.797
 1011WAT      O 3274   7.790   7.494   7.648
 1011WAT     H1 3275   7.747   7.556   7.714
 1011WAT     H2 3276   7.852   7.431   7.697
 1012WAT      O 3277   9.844   9.200   2.288
 1012WAT     H1 3278   9.880   9.251   2.210
 1012WAT     H2 3279   9.779   9.130   2.256
 1013WAT      O 3280   8.310   5.353   2.859
 1013WAT     H1 3281   8.366   5.299   2.796
 1013WAT     H2 3282   8.215   5.352   2.830
 1014WAT      O 3283   2.999   0.967   9.280
 1014WAT     H1 3284   3.029   0.878   9.246
 1014WAT     H2 3285   2.960   0.957   9.371
 1015WAT      O 3286   2.613   7.335   2.341
 1015WAT     H1 3287   2.667   7.265   2.388
 1015WAT     H2 3288   2.630   7.331   2.243
 1016WAT      O 3289   6.184   1.586   6.058
 1016WAT     H1 3290   6.187   1.487   6.048
 1016WAT     H2 3291   6.190   1.629   5.968
 1017WAT      O 3292   2.098   8.088   8.396
 1017WAT     H1 3293   2.102   8.182   8.429
 1017WAT     H2 3294   2.191   8.052   8.386
 1018WAT      O 3295   2.713   4.367   8.508
 1018WAT     H1 3296   2.734   4.277   8.547
 1018WAT     H2 3297   2.645   4.413   8.564
 1019WAT      O 3298   4.492   8.155   7.270
 1019WAT     H1 3299   4.561   8.113   7.211
 1019WAT     H2 3300   4.425   8.086   7.296
 1020WAT      O 3301   4.854   6.790   4.538
 1020WAT     H1 3302   4.941   6.832   4.511
 1020WAT     H2 3303   4.853   6.694   4.510
 1021WAT      O 3304   3.443   6.925   2.751
 1021WAT     H1 3305   3.362   6.879   2.715
 1021WAT     H2 3306   3.418   6.979   2.831
 1022WAT      O 3307   3.050   9.634   9.366
 1022WAT     H1 3308   2.970   9.584   9.332
 1022WAT     H2 3309   3.060   9.719   9.314
 1023WAT      O 3310   2.690   8.787   9.233
 1023WAT     H1 3311   2.691   8.688   9.217
 1023WAT     H2 3312   2.627   8.808   9.308
 1024WAT      O 3313   8.342   7.874   2.199
 1024WAT     H1 3314   8.337   7.966   2.237
 1024WAT     H2 3315   8.408   7.872   2.124
 1025WAT      O 3316   5.406   4.144   7.659
 1025WAT     H1 3317   5.495   4.110   7.687
 1025WAT     H2 3318   5.381   4.223   7.716
 1026WAT      O 3319   5.705   0.567   3.696
 1026WAT     H1 3320   5.642   0.518   3.636
 1026WAT     H2 3321   5.742   0.647   3.648
 1027WAT      O 3322   2.265   2.571   9.781
 1027WAT     H1 3323   2.172   2.599   9.804
 1027WAT     H2 3324   2.281   2.478   9.814
 1028WAT      O 3325   5.556   4.937   2.904
 1028WAT     H1 3326   5.583   4.841   2.893
 1028WAT     H2 3327   5.604   4.976   2.982
 1029WAT      O 3328   7.918   5.008   2.026
 1029WAT     H1 3329   7.832   4.964   2.051
 1029WAT     H2 3330   7.994   4.961   2.072
 1030WAT      O 3331   4.518   0.910   2.081
 1030WAT     H1 3332   4.499   0.843   2.153
 1030WAT     H2 3333   4.561   0.991   2.121
 1031WAT      O 3334   1.928   2.178   2.143
 1031WAT     H1 3335   2.025   2.168   2.119
 1031WAT     H2 3336   1.875   2.192   2.059
 1032WAT      O 3337   2.823   5.490   7.303
 1032WAT     H1 3338   2.748   5.427   7.323
 1032WAT     H2 3339   2.899   5.473   7.365
 1033WAT      O 3340   5.847   6.300   2.354
 1033WAT     H1 3341   5.812   6.367   2.289
 1033WAT     H2 3342   5.930   6.259   2.317
 1034WAT      O 3343   5.483   1.395   0.549
 1034WAT     H1 3344   5.385   1.383   0.557
 1034WAT     H2 3345   5.509   1.396   0.452
 1035WAT      O 3346   6.257   5.293   9.087
 1035WAT     H1 3347   6.237   5.232   9.164
 1035WAT     H2 3348   6.172   5.317   9.040
 1036WAT      O 3349   9.144   2.151   4.883
 1036WAT     H1 3350   9.054   2.183   4.911
 1036WAT     H2 3351   9.212   2.179   4.950
 1037WAT      O 3352   8.571   3.174   6.356
 1037WAT     H1 3353   8.559   3.116   6.276
 1037WAT     H2 3354   8.667   3.172   6.384
 1038WAT      O 3355   0.665   8.908   2.518
 1038WAT     H1 3356   0.622   8.966   2.587
 1038WAT     H2 3357   0.618   8.820   2.515
 1039WAT      O 3358   6.393   1.263   9.657
 1039WAT     H1 3359   6.347   1.181   9.624
 1039WAT     H2 3360   6.325   1.332   9.681
 1040WAT      O 3361   6.112   5.352   8.860
 1040WAT     H1 3362   6.179   5.399   8.802
 1040WAT     H2 3363   6.126   5.253   8.854
 1041WAT      O 3364   0.616   6.145   5.806
 1041WAT     H1 3365   0.631   6.146   5.905
 1041WAT     H2 3366   0.615   6.238   5.771
 1042WAT      O 3367   2.349   0.257   9.857
 1042WAT     H1 3368   2.354   0.237   9.955
 1042WAT     H2 3369   2.254   0.251   9.827
 1043WAT      O 3370   5.368   3.720   8.530
 1043WAT     H1 3371   5.307   3.683   8.460
 1043WAT     H2 3372   5.343   3.815   8.549
 1044WAT      O 3373   6.391   3.135   7.948
 1044WAT     H1 3374   6.399   3.189   8.032
 1044WAT     H2 3375   6.295   3.131   7.920
 1045WAT      O 3376   4.597   7.989   6.860
 1045WAT     H1 3377   4.562   7.939   6.781
 1045WAT     H2 3378   4.684   8.033   6.836
 1046WAT      O 3379   4.407   0.510   7.784
 1046WAT     H1 3380   4.391   0.558   7.871
 1046WAT     H2 3381   4.504   0.515   7.761
 1047WAT      O 3382   4.388   1.573   3.741
 1047WAT     H1 3383   4.464   1.512   3.764
 1047WAT     H2 3384   4.408   1.618   3.653
 1048WAT      O 3385   2.664   5.504   4.947
 1048WAT     H1 3386   2.676   5.595   4.986
 1048WAT     H2 3387   2.752   5.470   4.913
 1049WAT      O 3388   7.971   5.668   3.859
 1049WAT     H1 3389   7.973   5.571   3.836
 1049WAT     H2 3390   7.987   5.680   3.957
 1050WAT      O 3391   4.507   6.324   2.954
 1050WAT     H1 3392   4.493   6.340   3.051
 1050WAT     H2 3393   4.604   6.332   2.932
 1051WAT      O 3394   2.660   2.608   8.323
 1051WAT     H1 3395   2.747   2.655   8.305
 1051WAT     H2 3396   2.584   2.671   8.307
 1052WAT      O 3397   5.752   1.578   9.838
 1052WAT     H1 3398   5.816   1.636   9.787
 1052WAT     H2 3399   5.739   1.492   9.789
 1053WAT      O 3400   4.477   2.405   7.833
 1053WAT     H1 3401   4.423   2.374   7.911
 1053WAT     H2 3402   4.421   2.402   7.750
 1054WAT      O 3403   9.160   0.697   0.530
 1054WAT     H1 3404   9.228   0.752   0.482
 1054WAT     H2 3405   9.144   0.612   0.480
 1055WAT      O 3406   1.989   6.721   1.940
 1055WAT     H1 3407   2.056   6.671   1.995
 1055WAT     H2 3408   1.981   6.677   1.850
 1056WAT      O 3409   1.776   1.040   2.124
 1056WAT     H1 3410   1.787   1.022   2.026
 1056WAT     H2 3411   1.776   1.138   2.140
 1057WAT      O 3412   6.712   2.153   3.436
 1057WAT     H1 3413   6.727   2.247   3.406
 1057WAT     H2 3414   6.735   2.144   3.533
 1058WAT      O 3415   2.225   4.294   8.267
 1058WAT     H1 3416   2.149   4.240   8.230
 1058WAT     H2 3417   2.192   4.385   8.291
 1059WAT      O 3418   1.805   4.439   3.792
 1059WAT     H1 3419   1.713   4.446   3.753
 1059WAT     H2 3420   1.872   4.451   3.719
 1060WAT      O 3421   0.514   0.225   2.114
 1060WAT     H1 3422   0.538   0.279   2.033
 1060WAT     H2 3423   0.414   0.220   2.122
 1061WAT      O 3424   2.889   9.009   2.617
 1061WAT     H1 3425   2.811   9.042   2.669
 1061WAT     H2 3426   2.869   8.919   2.579
 1062WAT      O 3427   1.076   8.095   4.958
 1062WAT     H1 3428   1.051   8.111   4.863
 1062WAT     H2 3429   1.124   8.007   4.966
 1063WAT      O 3430   7.890   5.478   2.667
 1063WAT     H1 3431   7.791   5.490   2.659
 1063WAT     H2 3432   7.916   5.392   2.623
 1064WAT      O 3433   0.096   1.795   4.149
 1064WAT     H1 3434   0.001   1.796   4.179
 1064WAT     H2 3435   0.156   1.792   4.229
 1065WAT      O 3436   5.476   7.229   4.583
 1065WAT     H1 3437   5.404   7.285   4.624
 1065WAT     H2 3438   5.488   7.146   4.636
 1066WAT      O 3439   3.841   3.097   5.570
 1066WAT     H1 3440   3.741   3.098   5.561
 1066WAT     H2 3441   3.873   3.188   5.597
 1067WAT      O 3442   5.275   3.085   6.489
 1067WAT     H1 3443   5.227   3.086   6.402
 1067WAT     H2 3444   5.299   3.178   6.515
 1068WAT      O 3445   7.462   5.056   5.211
 1068WAT     H1 3446   7.403   5.010   5.145
 1068WAT     H2 3447   7.415   5.063   5.299
 1069WAT      O 3448   3.924   8.287   1.216
 1069WAT     H1 3449   3.941   8.276   1.118
 1069WAT     H2 3450   3.832   8.324   1.230
 1070WAT      O 3451   9.534   5.953   4.285
 1070WAT     H1 3452   9.515   5.938   4.188
 1070WAT     H2 3453   9.546   6.051   4.302
 1071WAT      O 3454   8.423   3.128   3.126
 1071WAT     H1 3455   8.508   3.179   3.110
 1071WAT     H2 3456   8.362   3.138   3.048
 1072WAT      O 3457   2.979   6.844   5.217
 1072WAT     H1 3458   3.007   6.935   5.249
 1072WAT     H2 3459   3.058   6.798   5.176
 1073WAT      O 3460   0.307   2.447   7.701
 1073WAT     H1 3461   0.345   2.453   7.609
 1073WAT     H2 3462   0.321   2.534   7.749
 1074WAT      O 3463   1.177   5.120   4.749
 1074WAT     H1 3464   1.211   5.051   4.813
 1074WAT     H2 3465   1.156   5.077   4.661
 1075WAT      O 3466   7.638   9.640   6.878
 1075WAT     H1 3467   7.597   9.560   6.834
 1075WAT     H2 3468   7.569   9.689   6.931
 1076WAT      O 3469   7.532   0.109   3.626
 1076WAT     H1 3470   7.454   0.049   3.642
 1076WAT     H2 3471   7.617   0.063   3.655
 1077WAT      O 3472   0.254   5.775   0.524
 1077WAT     H1 3473   0.278   5.709   0.594
 1077WAT     H2 3474   0.211   5.728   0.446
 1078WAT      O 3475   3.341   8.003   7.720
 1078WAT     H1 3476   3.326   7.922   7.778
 1078WAT     H2 3477   3.254   8.051   7.707
 1079WAT      O 3478   3.293   5.019   5.120
 1079WAT     H1 3479   3.218   5.063   5.169
 1079WAT     H2 3480   3.325   4.941   5.173
 1080WAT      O 3481   9.555   9.427   7.997
 1080WAT     H1 3482   9.648   9.390   7.998
 1080WAT     H2 3483   9.493   9.364   8.044
 1081WAT      O 3484   6.486   4.394   3.195
 1081WAT     H1 3485   6.446   4.469   3.142
 1081WAT     H2 3486   6.488   4.311   3.139
 1082WAT      O 3487   8.215   0.051   2.959
 1082WAT     H1 3488   8.184  -0.036   2.998
 1082WAT     H2 3489   8.230   0.039   2.861
 1083WAT      O 3490   1.372   6.337   0.520
 1083WAT     H1 3491   1.372   6.305   0.615
 1083WAT     H2 3492   1.304   6.410   0.510
 1084WAT      O 3493   3.154   6.677   7.768
 1084WAT     H1 3494   3.209   6.594   7.762
 1084WAT     H2 3495   3.206   6.755   7.735
 1085WAT      O 3496   1.599   4.012   7.700
 1085WAT     H1 3497   1.669   3.940   7.696
 1085WAT     H2 3498   1.623   4.084   7.635
 1086WAT      O 3499   7.847   7.031   8.128
 1086WAT     H1 3500   7.857   7.082   8.213
 1086WAT     H2 3501   7.758   6.986   8.126
 1087WAT      O 3502   2.818   5.800   1.510
 1087WAT     H1 3503   2.762   5.882   1.506
 1087WAT     H2 3504   2.904   5.816   1.462
 1088WAT      O 3505   5.465   2.793   0.726
 1088WAT     H1 3506   5.454   2.731   0.803
 1088WAT     H2 3507   5.377   2.837   0.706
 1089WAT      O 3508   2.361   4.158   6.494
 1089WAT     H1 3509   2.453   4.168   6.531
 1089WAT     H2 3510   2.304   4.234   6.525
 1090WAT      O 3511   7.105   7.961   3.346
 1090WAT     H1 3512   7.077   7.956   3.443
 1090WAT     H2 3513   7.048   8.028   3.299
 1091WAT      O 3514   0.812   8.002   3.473
 1091WAT     H1 3515   0.781   8.066   3.543
 1091WAT     H2 3516   0.772   7.912   3.491
 1092WAT      O 3517   0.558   8.052   6.544
 1092WAT     H1 3518   0.626   7.979   6.543
 1092WAT     H2 3519   0.559   8.101   6.457
 1093WAT      O 3520   0.190   7.827   2.868
 1093WAT     H1 3521   0.109   7.832   2.810
 1093WAT     H2 3522   0.270   7.808   2.811
 1094WAT      O 3523   3.513   1.521   8.162
 1094WAT     H1 3524   3.426   1.543   8.205
 1094WAT     H2 3525   3.573   1.601   8.166
 1095WAT      O 3526   2.208   9.436   7.714
 1095WAT     H1 3527   2.201   9.393   7.623
 1095WAT     H2 3528   2.259   9.522   7.706
 1096WAT      O 3529   2.729   8.697   0.788
 1096WAT     H1 3530   2.709   8.608   0.828
 1096WAT     H2 3531   2.706   8.770   0.853
 1097WAT      O 3532   7.274   3.825   0.068
 1097WAT     H1 3533   7.322   3.791  -0.013
 1097WAT     H2 3534   7.249   3.748   0.127
 1098WAT      O 3535   4.697   8.414   8.501
 1098WAT     H1 3536   4.654   8.330   8.536
 1098WAT     H2 3537   4.796   8.407   8.509
 1099WAT      O 3538   3.687   2.787   7.139
 1099WAT     H1 3539   3.589   2.806   7.137
 1099WAT     H2 3540   3.730   2.824   7.057
 1100WAT      O 3541   9.415   9.831   8.487
 1100WAT     H1 3542   9.451   9.886   8.563
 1100WAT     H2 3543   9.488   9.773   8.451
 1101WAT      O 3544   2.403   4.468   7.321
 1101WAT     H1 3545   2.486   4.430   7.279
 1101WAT     H2 3546   2.327   4.463   7.257
 1102WAT      O 3547   6.324   4.530   3.027
 1102WAT     H1 3548   6.293   4.623   3.050
 1102WAT     H2 3549   6.355   4.529   2.932
 1103WAT      O 3550   7.287   9.470   9.812
 1103WAT     H1 3551   7.205   9.413   9.818
 1103WAT     H2 3552   7.339   9.445   9.731
 1104WAT      O 3553   9.013   8.471   7.725
 1104WAT     H1 3554   9.085   8.401   7.731
 1104WAT     H2 3555   9.031   8.529   7.646
 1105WAT      O 3556   6.834   5.760   9.175
 1105WAT     H1 3557   6.915   5.815   9.197
 1105WAT     H2 3558   6.774   5.813   9.115
 1106WAT      O 3559   6.465   0.509   3.024
 1106WAT     H1 3560   6.502   0.592   2.982
 1106WAT     H2 3561   6.433   0.447   2.953
 1107WAT      O 3562   3.356   9.799   7.839
 1107WAT     H1 3563   3.266   9.767   7.810
 1107WAT     H2 3564   3.427   9.741   7.797
 1108WAT      O 3565   8.138   9.000   7.025
 1108WAT     H1 3566   8.191   8.998   7.110
 1108WAT     H2 3567   8.071   9.073   7.030
 1109WAT      O 3568   9.304   5.522   1.087
 1109WAT     H1 3569   9.291   5.423   1.089
 1109WAT     H2 3570   9.273   5.562   1.174
 1110WAT      O 3571   6.631   4.843   0.071
 1110WAT     H1 3572   6.700   4.869   0.004
 1110WAT     H2 3573   6.660   4.873   0.162
 1111WAT      O 3574   6.498   5.244   4.228
 1111WAT     H1 3575   6.570   5.310   4.211
 1111WAT     H2 3576   6.445   5.272   4.308
 1112WAT      O 3577   6.933   5.456   1.179
 1112WAT     H1 3578   7.021   5.504   1.170
 1112WAT     H2 3579   6.859   5.522   1.169
 1113WAT      O 3580   5.927   8.568   5.718
 1113WAT     H1 3581   5.857   8.636   5.739
 1113WAT     H2 3582   5.993   8.563   5.793
 1114WAT      O 3583   4.569   3.545   1.845
 1114WAT     H1 3584   4.661   3.536   1.884
 1114WAT     H2 3585   4.519   3.459   1.858
 1115WAT      O 3586   8.388   4.607   2.774
 1115WAT     H1 3587   8.487   4.623   2.773
 1115WAT     H2 3588   8.343   4.678   2.719
 1116WAT      O 3589   8.858   1.306   2.940
 1116WAT     H1 3590   8.759   1.289   2.943
 1116WAT     H2 3591   8.899   1.251   2.866
 1117WAT      O 3592   7.040   0.751   2.187
 1117WAT     H1 3593   7.110   0.805   2.233
 1117WAT     H2 3594   6.970   0.723   2.254
 1118WAT      O 3595   1.297   6.714   1.162
 1118WAT     H1 3596   1.347   6.800   1.163
 1118WAT     H2 3597   1.241   6.707   1.245
 1119WAT      O 3598   5.275   4.026   0.638
 1119WAT     H1 3599   5.272   3.995   0.732
 1119WAT     H2 3600   5.368   4.057   0.616
 1120WAT      O 3601   5.161   1.853   6.587
 1120WAT     H1 3602   5.137   1.791   6.512
 1120WAT     H2 3603   5.078   1.899   6.620
 1121WAT      O 3604   9.849   7.620   6.655
 1121WAT     H1 3605   9.759   7.647   6.691
 1121WAT     H2 3606   9.916   7.691   6.676
 1122WAT      O 3607   4.217   0.461   5.399
 1122WAT     H1 3608   4.226   0.361   5.398
 1122WAT     H2 3609   4.145   0.487   5.463
 1123WAT      O 3610   5.750   8.769   5.727
 1123WAT     H1 3611   5.767   8.853   5.778
 1123WAT     H2 3612   5.717   8.792   5.636
 1124WAT      O 3613   9.726   0.242   6.126
 1124WAT     H1 3614   9.767   0.233   6.217
 1124WAT     H2 3615   9.646   0.301   6.132
 1125WAT      O 3616   0.542   8.174   3.184
 1125WAT     H1 3617   0.514   8.126   3.101
 1125WAT     H2 3618   0.479   8.249   3.202
 1126WAT      O 3619   6.437   8.104   2.329
 1126WAT     H1 3620   6.511   8.155   2.284
 1126WAT     H2 3621   6.423   8.017   2.281
 1127WAT      O 3622   1.326   3.129   7.493
 1127WAT     H1 3623   1.340   3.032   7.515
 1127WAT     H2 3624   1.398   3.184   7.534
 1128WAT      O 3625   0.170   8.513   7.967
 1128WAT     H1 3626   0.104   8.562   8.024
 1128WAT     H2 3627   0.223   8.580   7.914
 1129WAT      O 3628   0.596   5.865   9.450
 1129WAT     H1 3629   0.621   5.812   9.531
 1129WAT     H2 3630   0.673   5.869   9.387
 1130WAT      O 3631   9.523   8.668   8.244
 1130WAT     H1 3632   9.544   8.717   8.160
 1130WAT     H2 3633   9.573   8.581   8.247
 1131WAT      O 3634   9.454   0.421   2.372
 1131WAT     H1 3635   9.457   0.517   2.400
 1131WAT     H2 3636   9.359   0.391   2.367
 1132WAT      O 3637   3.290   5.354   4.329
 1132WAT     H1 3638   3.331   5.341   4.239
 1132WAT     H2 3639   3.360   5.342   4.399
 1133WAT      O 3640   0.577   3.541   0.688
 1133WAT     H1 3641   0.554   3.447   0.664
 1133WAT     H2 3642   0.568   3.553   0.787
 1134WAT      O 3643   6.826   9.575   1.035
 1134WAT     H1 3644   6.758   9.595   0.964
 1134WAT     H2 3645   6.825   9.648   1.103
 1135WAT      O 3646   3.492   2.452   2.060
 1135WAT     H1 3647   3.514   2.513   1.984
 1135WAT     H2 3648   3.427   2.498   2.121
 1136WAT      O 3649   3.026   2.142   4.590
 1136WAT     H1 3650   3.119   2.108   4.607
 1136WAT     H2 3651   2.969   2.123   4.670
 1137WAT      O 3652   9.513   9.110   6.442
 1137WAT     H1 3653   9.586   9.171   6.410
 1137WAT     H2 3654   9.473   9.061   6.364
 1138WAT      O 3655   2.843   9.427   7.094
 1138WAT     H1 3656   2.860   9.330   7.114
 1138WAT     H2 3657   2.828   9.476   7.180
 1139WAT      O 3658   8.917   6.761   1.693
 1139WAT     H1 3659   8.968   6.719   1.618
 1139WAT     H2 3660   8.857   6.693   1.735
 1140WAT      O 3661   9.059   3.883   5.777
 1140WAT     H1 3662   9.131   3.855   5.713
 1140WAT     H2 3663   9.075   3.978   5.805
 1141WAT      O 3664   5.369   7.075   7.124
 1141WAT     H1 3665   5.380   7.169   7.092
 1141WAT     H2 3666   5.280   7.040   7.095
 1142WAT      O 3667   2.572   2.544   7.844
 1142WAT     H1 3668   2.598   2.603   7.921
 1142WAT     H2 3669   2.602   2.450   7.862
 1143WAT      O 3670   3.893   3.613   2.235
 1143WAT     H1 3671   3.874   3.656   2.147
 1143WAT     H2 3672   3.807   3.598   2.284
 1144WAT      O 3673   9.495   4.088   4.320
 1144WAT     H1 3674   9.413   4.131   4.281
 1144WAT     H2 3675   9.467   4.021   4.389
 1145WAT      O 3676   2.098   7.197   5.457
 1145WAT     H1 3677   2.036   7.118   5.461
 1145WAT     H2 3678   2.143   7.200   5.368
 1146WAT      O 3679   4.536   0.019   6.574
 1146WAT     H1 3680   4.469  -0.017   6.510
 1146WAT     H2 3681   4.529   0.119   6.577
 1147WAT      O 3682   1.768   8.925   3.632
 1147WAT     H1 3683   1.811   9.012   3.607
 1147WAT     H2 3684   1.748   8.925   3.730
 1148WAT      O 3685   2.787   5.573   5.314
 1148WAT     H1 3686   2.869   5.523   5.287
 1148WAT     H2 3687   2.727   5.512   5.367
 1149WAT      O 3688   4.104   1.933   8.719
 1149WAT     H1 3689   4.110   1.882   8.633
 1149WAT     H2 3690   4.171   2.008   8.718
 1150WAT      O 3691   1.756   6.257   9.887
 1150WAT     H1 3692   1.850   6.293   9.894
 1150WAT     H2 3693   1.759   6.157   9.890
 1151WAT      O 3694   0.030   5.115   8.013
 1151WAT     H1 3695   0.128   5.114   7.991
 1151WAT     H2 3696  -0.017   5.176   7.950
 1152WAT      O 3697   0.485   5.310   3.433
 1152WAT     H1 3698   0.550   5.382   3.457
 1152WAT     H2 3699   0.526   5.220   3.453
 1153WAT      O 3700   9.193   6.326   4.037
 1153WAT     H1 3701   9.121   6.394   4.018
 1153WAT     H2 3702   9.158   6.258   4.101
 1154WAT      O 3703   0.023   1.474   4.545
 1154WAT     H1 3704  -0.012   1.451   4.455
 1154WAT     H2 3705  -0.037   1.542   4.588
 1155WAT      O 3706   1.083   4.594   0.599
 1155WAT     H1 3707   1.094   4.504   0.556
 1155WAT     H2 3708   1.173   4.633   0.617
 1156WAT      O 3709   8.114   2.391   8.932
 1156WAT     H1 3710   8.150   2.416   8.842
 1156WAT     H2 3711   8.069   2.470   8.973
 1157WAT      O 3712   7.105   4.729   0.739
 1157WAT     H1 3713   7.076   4.637   0.764
 1157WAT     H2 3714   7.024   4.787   0.727
 1158WAT      O 3715   6.925   6.024   6.871
 1158WAT     H1 3716   7.023   6.042   6.868
 1158WAT     H2 3717   6.897   5.972   6.790
 1159WAT      O 3718   8.288   5.119   7.489
 1159WAT     H1 3719   8.317   5.196   7.546
 1159WAT     H2 3720   8.224   5.150   7.419
 1160WAT      O 3721   1.243   6.238   9.747
 1160WAT     H1 3722   1.263   6.258   9.842
 1160WAT     H2 3723   1.146   6.258   9.728
 1161WAT      O 3724   7.828   8.958   6.363
 1161WAT     H1 3725   7.795   8.948   6.270
 1161WAT     H2 3726   7.764   8.914   6.426
 1162WAT      O 3727   1.897   0.830   5.667
 1162WAT     H1 3728   1.931   0.793   5.580
 1162WAT     H2 3729   1.798   0.842   5.662
 1163WAT      O 3730   0.954   4.247   1.787
 1163WAT     H1 3731   0.980   4.278   1.878
 1163WAT     H2 3732   0.879   4.304   1.753
 1164WAT      O 3733   7.658   1.107   0.859
 1164WAT     H1 3734   7.653   1.110   0.959
 1164WAT     H2 3735   7.728   1.171   0.828
 1165WAT      O 3736   3.430   7.671   3.366
 1165WAT     H1 3737   3.430   7.598   3.434
 1165WAT     H2 3738   3.438   7.760   3.412
 1166WAT      O 3739   3.654   1.627   2.950
 1166WAT     H1 3740   3.655   1.552   3.016
 1166WAT     H2 3741   3.571   1.621   2.894
 1167WAT      O 3742   6.588   9.463   7.148
 1167WAT     H1 3743   6.490   9.479   7.150
 1167WAT     H2 3744   6.609   9.391   7.082
 1168WAT      O 3745   4.887   2.533   5.375
 1168WAT     H1 3746   4.915   2.627   5.359
 1168WAT     H2 3747   4.923   2.474   5.303
 1169WAT      O 3748   9.320   9.283   9.688
 1169WAT     H1 3749   9.401   9.295   9.630
 1169WAT     H2 3750   9.343   9.309   9.782
 1170WAT      O 3751   6.365   2.962   7.286
 1170WAT     H1 3752   6.279   2.944   7.334
 1170WAT     H2 3753   6.431   2.999   7.351
 1171WAT      O 3754   9.003   4.047   1.011
 1171WAT     H1 3755   8.921   3.991   1.024
 1171WAT     H2 3756   9.083   3.997   1.045
 1172WAT      O 3757   9.265   6.691   5.465
 1172WAT     H1 3758   9.310   6.657   5.382
 1172WAT     H2 3759   9.190   6.752   5.441
 1173WAT      O 3760   0.247   5.511   6.285
 1173WAT     H1 3761   0.311   5.441   6.318
 1173WAT     H2 3762   0.164   5.510   6.340
 1174WAT      O 3763   0.835   7.214   5.392
 1174WAT     H1 3764   0.894   7.288   5.360
 1174WAT     H2 3765   0.871   7.178   5.478
 1175WAT      O 3766   9.856   7.281   2.943
 1175WAT     H1 3767   9.778   7.341   2.931
 1175WAT     H2 3768   9.845   7.229   3.028
 1176WAT      O 3769   2.200   6.804   9.476
 1176WAT     H1 3770   2.205   6.705   9.462
 1176WAT     H2 3771   2.155   6.847   9.397
 1177WAT      O 3772   7.676   2.302   8.545
 1177WAT     H1 3773   7.698   2.224   8.605
 1177WAT     H2 3774   7.591   2.283   8.496
 1178WAT      O 3775   5.745   8.454   1.465
 1178WAT     H1 3776   5.736   8.485   1.560
 1178WAT     H2 3777   5.659   8.413   1.435
 1179WAT      O 3778   7.129   9.196   9.569
 1179WAT     H1 3779   7.101   9.240   9.655
 1179WAT     H2 3780   7.048   9.178   9.513
 1180WAT      O 3781   6.188   1.551   4.687
 1180WAT     H1 3782   6.158   1.565   4.782
 1180WAT     H2 3783   6.122   1.594   4.625
 1181WAT      O 3784   2.835   3.755   1.197
 1181WAT     H1 3785   2.823   3.797   1.287
 1181WAT     H2 3786   2.753   3.772   1.141
 1182WAT      O 3787   5.949   7.984   1.683
 1182WAT     H1 3788   5.985   8.077   1.688
 1182WAT     H2 3789   6.020   7.919   1.712
 1183WAT      O 3790   0.365   3.501   4.333
 1183WAT     H1 3791   0.405   3.456   4.413
 1183WAT     H2 3792   0.335   3.432   4.267
 1184WAT      O 3793   0.212   8.279   2.775
 1184WAT     H1 3794   0.224   8.272   2.874
 1184WAT     H2 3795   0.238   8.192   2.732
 1185WAT      O 3796   5.280   0.781   3.162
 1185WAT     H1 3797   5.242   0.871   3.140
 1185WAT     H2 3798   5.375   0.791   3.190
 1186WAT      O 3799   5.406   7.610   9.828
 1186WAT     H1 3800   5.424   7.691   9.883
 1186WAT     H2 3801   5.441   7.529   9.875
 1187WAT      O 3802   7.329   8.959   6.269
 1187WAT     H1 3803   7.237   8.919   6.267
 1187WAT     H2 3804   7.375   8.943   6.182
 1188WAT      O 3805   8.446   5.620   9.364
 1188WAT     H1 3806   8.498   5.678   9.301
 1188WAT     H2 3807   8.509   5.561   9.414
 1189WAT      O 3808   3.865   2.803   0.242
 1189WAT     H1 3809   3.910   2.864   0.307
 1189WAT     H2 3810   3.869   2.843   0.151
 1190WAT      O 3811   0.863   5.988   4.861
 1190WAT     H1 3812   0.845   6.073   4.912
 1190WAT     H2 3813   0.818   5.912   4.907
 1191WAT      O 3814   3.301   7.289   8.553
 1191WAT     H1 3815   3.355   7.304   8.470
 1191WAT     H2 3816   3.205   7.311   8.534
 1192WAT      O 3817   4.858   4.429   6.545
 1192WAT     H1 3818   4.788   4.479   6.595
 1192WAT     H2 3819   4.882   4.478   6.462
 1193WAT      O 3820   1.968   3.066   9.787
 1193WAT     H1 3821   1.989   3.026   9.876
 1193WAT     H2 3822   2.051   3.104   9.747
 1194WAT      O 3823   5.080   1.238   8.776
 1194WAT     H1 3824   5.049   1.150   8.811
 1194WAT     H2 3825   5.004   1.303   8.774
 1195WAT      O 3826   5.294   7.054   0.161
 1195WAT     H1 3827   5.268   7.052   0.065
 1195WAT     H2 3828   5.380   7.004   0.173
 1196WAT      O 3829   8.151   4.638   5.308
 1196WAT     H1 3830   8.203   4.573   5.364
 1196WAT     H2 3831   8.211   4.714   5.281
 1197WAT      O 3832   7.373   5.562   0.485
 1197WAT     H1 3833   7.454   5.553   0.543
 1197WAT     H2 3834   7.304   5.495   0.513
 1198WAT      O 3835   2.071   2.597   2.866
 1198WAT     H1 3836   2.143   2.618   2.800
 1198WAT     H2 3837   2.020   2.517   2.836
 1199WAT      O 3838   2.753   1.727   8.620
 1199WAT     H1 3839   2.686   1.689   8.557
 1199WAT     H2 3840   2.736   1.691   8.712
 1200WAT      O 3841   3.346   4.517   4.213
 1200WAT     H1 3842   3.321   4.423   4.235
 1200WAT     H2 3843   3.429   4.541   4.262
 1201WAT      O 3844   2.011   8.314   7.044
 1201WAT     H1 3845   1.916   8.314   7.076
 1201WAT     H2 3846   2.040   8.407   7.026
 1202WAT      O 3847   7.392   3.171   0.311
 1202WAT     H1 3848   7.301   3.129   0.304
 1202WAT     H2 3849   7.398   3.224   0.395
 1203WAT      O 3850   8.038   1.059   7.789
 1203WAT     H1 3851   7.949   1.104   7.787
 1203WAT     H2 3852   8.102   1.114   7.843
 1204WAT      O 3853   8.626   8.179   5.201
 1204WAT     H1 3854   8.589   8.195   5.292
 1204WAT     H2 3855   8.725   8.165   5.207
 1205WAT      O 3856   0.234   6.117   6.027
 1205WAT     H1 3857   0.195   6.123   5.936
 1205WAT     H2 3858   0.278   6.204   6.050
 1206WAT      O 3859   9.006   8.248   6.628
 1206WAT     H1 3860   9.104   8.235   6.644
 1206WAT     H2 3861   8.988   8.343   6.604
 1207WAT      O 3862   7.812   3.792   8.231
 1207WAT     H1 3863   7.816   3.721   8.160
 1207WAT     H2 3864   7.791   3.880   8.189
 1208WAT      O 3865   8.350   4.544   7.426
 1208WAT     H1 3866   8.375   4.634   7.462
 1208WAT     H2 3867   8.431   4.500   7.387
 1209WAT      O 3868   2.366   6.096   6.671
 1209WAT     H1 3869   2.336   6.091   6.766
 1209WAT     H2 3870   2.286   6.090   6.611
 1210WAT      O 3871   4.960   7.413   1.993
 1210WAT     H1 3872   4.863   7.416   2.017
 1210WAT     H2 3873   4.980   7.329   1.943
 1211WAT      O 3874   4.803   1.375   1.607
 1211WAT     H1 3875   4.805   1.287   1.655
 1211WAT     H2 3876   4.711   1.413   1.611
 1212WAT      O 3877   6.917   7.856   6.681
 1212WAT     H1 3878   6.879   7.880   6.592
 1212WAT     H2 3879   6.988   7.922   6.707
 1213WAT      O 3880   7.678   3.952   4.516
 1213WAT     H1 3881   7.662   4.003   4.601
 1213WAT     H2 3882   7.690   3.855   4.536
 1214WAT      O 3883   7.922   6.146   9.700
 1214WAT     H1 3884   7.836   6.160   9.750
 1214WAT     H2 3885   7.995   6.126   9.765
 1215WAT      O 3886   0.553   0.217   9.017
 1215WAT     H1 3887   0.522   0.289   8.955
 1215WAT     H2 3888   0.624   0.163   8.971
 1216WAT      O 3889   0.390   5.525   2.884
 1216WAT     H1 3890   0.461   5.510   2.816
 1216WAT     H2 3891   0.302   5.494   2.849
 1217WAT      O 3892   0.099   6.425   6.958
 1217WAT     H1 3893   0.096   6.478   6.874
 1217WAT     H2 3894   0.176   6.455   7.014
 1218WAT      O 3895   2.867   9.142   9.789
 1218WAT     H1 3896   2.770   9.142   9.814
 1218WAT     H2 3897   2.878   9.179   9.697
 1219WAT      O 3898   5.858   8.193   0.204
 1219WAT     H1 3899   5.767   8.185   0.244
 1219WAT     H2 3900   5.910   8.263   0.253
 1220WAT      O 3901   1.705   6.322   0.273
 1220WAT     H1 3902   1.725   6.301   0.177
 1220WAT     H2 3903   1.668   6.415   0.279
 1221WAT      O 3904   1.732   2.689   5.898
 1221WAT     H1 3905   1.763   2.716   5.989
 1221WAT     H2 3906   1.783   2.741   5.829
 1222WAT      O 3907   0.866   8.269   1.946
 1222WAT     H1 3908   0.781   8.313   1.975
 1222WAT     H2 3909   0.846   8.191   1.888
 1223WAT      O 3910   4.808   8.677   4.376
 1223WAT     H1 3911   4.895   8.652   4.335
 1223WAT     H2 3912   4.744   8.600   4.369
 1224WAT      O 3913   4.997   8.996   4.437
 1224WAT     H1 3914   4.909   8.961   4.406
 1224WAT     H2 3915   5.017   8.962   4.529
 1225WAT      O 3916   0.861   4.325   7.188
 1225WAT     H1 3917   0.949   4.338   7.233
 1225WAT     H2 3918   0.811   4.412   7.186
 1226WAT      O 3919   1.385   1.746   4.402
 1226WAT     H1 3920   1.352   1.665   4.451
 1226WAT     H2 3921   1.358   1.828   4.453
 1227WAT      O 3922   1.952   4.321   2.346
 1227WAT     H1 3923   1.997   4.265   2.276
 1227WAT     H2 3924   2.012   4.330   2.425
 1228WAT      O 3925   7.007   0.287   8.956
 1228WAT     H1 3926   6.978   0.197   8.987
 1228WAT     H2 3927   7.083   0.278   8.892
 1229WAT      O 3928   5.067   1.013   5.034
 1229WAT     H1 3929   5.068   0.920   5.069
 1229WAT     H2 3930   5.156   1.056   5.053
 1230WAT      O 3931   2.624   5.480   2.233
 1230WAT     H1 3932   2.701   5.506   2.291
 1230WAT     H2 3933   2.655   5.476   2.137
 1231WAT      O 3934   4.296   1.883   7.493
 1231WAT     H1 3935   4.289   1.935   7.578
 1231WAT     H2 3936   4.213   1.830   7.480
 1232WAT      O 3937   2.525   2.767   3.275
 1232WAT     H1 3938   2.426   2.779   3.267
 1232WAT     H2 3939   2.571   2.853   3.256
 1233WAT      O 3940   1.636   1.617   2.368
 1233WAT     H1 3941   1.572   1.563   2.314
 1233WAT     H2 3942   1.712   1.559   2.398
 1234WAT      O 3943   0.659   4.547   8.943
 1234WAT     H1 3944   0.755   4.558   8.918
 1234WAT     H2 3945   0.652   4.508   9.035
 1235WAT      O 3946   5.656   3.750   3.891
 1235WAT     H1 3947   5.598   3.670   3.907
 1235WAT     H2 3948   5.739   3.722   3.842
 1236WAT      O 3949   4.404   4.487   7.077
 1236WAT     H1 3950   4.459   4.518   7.000
 1236WAT     H2 3951   4.456   4.500   7.162
 1237WAT      O 3952   1.635   8.999   4.968
 1237WAT     H1 3953   1.550   9.048   4.948
 1237WAT     H2 3954   1.713   9.048   4.928
 1238WAT      O 3955   4.360   6.851   6.800
 1238WAT     H1 3956   4.329   6.856   6.705
 1238WAT     H2 3957   4.299   6.905   6.858
 1239WAT      O 3958   9.796   8.212   1.751
 1239WAT     H1 3959   9.808   8.231   1.849
 1239WAT     H2 3960   9.718   8.151   1.738
 1240WAT      O 3961   7.971   2.911   2.042
 1240WAT     H1 3962   8.010   2.835   1.991
 1240WAT     H2 3963   7.979   2.893   2.140
 1241WAT      O 3964   8.233   2.329   4.989
 1241WAT     H1 3965   8.173   2.301   4.914
 1241WAT     H2 3966   8.187   2.399   5.044
 1242WAT      O 3967   2.010   4.595   6.588
 1242WAT     H1 3968   1.973   4.671   6.640
 1242WAT     H2 3969   1.962   4.511   6.614
 1243WAT      O 3970   0.060   4.181   2.960
 1243WAT     H1 3971   0.005   4.218   3.035
 1243WAT     H2 3972   0.129   4.248   2.934
 1244WAT      O 3973   7.879   6.626   8.754
 1244WAT     H1 3974   7.841   6.569   8.826
 1244WAT     H2 3975   7.817   6.702   8.735
 1245WAT      O 3976   8.657   2.645   4.149
 1245WAT     H1 3977   8.675   2.741   4.129
 1245WAT     H2 3978   8.619   2.637   4.241
 1246WAT      O 3979   3.407   0.018   2.430
 1246WAT     H1 3980   3.411   0.088   2.358
 1246WAT     H2 3981   3.382  -0.070   2.389
 1247WAT      O 3982   7.379   7.522   2.235
 1247WAT     H1 3983   7.316   7.449   2.261
 1247WAT     H2 3984   7.451   7.531   2.305
 1248WAT      O 3985   8.024   0.493   1.845
 1248WAT     H1 3986   7.952   0.561   1.861
 1248WAT     H2 3987   8.086   0.527   1.774
 1249WAT      O 3988   5.515   6.115   3.905
 1249WAT     H1 3989   5.446   6.058   3.859
 1249WAT     H2 3990   5.597   6.121   3.848
 1250WAT      O 3991   0.686   5.719   6.937
 1250WAT     H1 3992   0.637   5.803   6.962
 1250WAT     H2 3993   0.712   5.670   7.020
 1251WAT      O 3994   8.627   4.343   0.370
 1251WAT     H1 3995   8.617   4.392   0.456
 1251WAT     H2 3996   8.610   4.246   0.385
 1252WAT      O 3997   3.667   3.552   5.172
 1252WAT     H1 3998   3.695   3.504   5.255
 1252WAT     H2 3999   3.568   3.567   5.173
 1253WAT      O 4000   8.514   7.829   9.382
 1253WAT     H1 4001   8.567   7.876   9.312
 1253WAT     H2 4002   8.429   7.879   9.399
 1254WAT      O 4003   8.739   4.483   8.249
 1254WAT     H1 4004   8.752   4.397   8.200
 1254WAT     H2 4005   8.708   4.554   8.185
 1255WAT      O 4006   0.328   4.615   2.780
 1255WAT     H1 4007   0.411   4.637   2.833
 1255WAT     H2 4008   0.354   4.572   2.694
 1256WAT      O 4009   3.951   0.903   1.478
 1256WAT     H1 4010   3.980   0.970   1.410
 1256WAT     H2 4011   4.022   0.834   1.490
 1257WAT      O 4012   7.973   0.644   4.179
 1257WAT     H1 4013   7.918   0.669   4.099
 1257WAT     H2 4014   7.920   0.584   4.239
 1258WAT      O 4015   9.656   2.179   8.667
 1258WAT     H1 4016   9.748   2.150   8.640
 1258WAT     H2 4017   9.624   2.123   8.743
 1259WAT      O 4018   4.543   0.359   5.827
 1259WAT     H1 4019   4.529   0.448   5.869
 1259WAT     H2 4020   4.546   0.288   5.897
 1260WAT      O 4021   1.725   3.694   3.952
 1260WAT     H1 4022   1.625   3.687   3.955
 1260WAT     H2 4023   1.751   3.790   3.956
 1261WAT      O 4024   5.672   7.351   3.338
 1261WAT     H1 4025   5.735   7.359   3.416
 1261WAT     H2 4026   5.579   7.340   3.372
 1262WAT      O 4027   2.379   4.425   6.214
 1262WAT     H1 4028   2.283   4.398   6.208
 1262WAT     H2 4029   2.433   4.373   6.148
 1263WAT      O 4030   4.389   8.546   4.752
 1263WAT     H1 4031   4.466   8.588   4.704
 1263WAT     H2 4032   4.376   8.453   4.719
 1264WAT      O 4033   9.594   5.244   7.997
 1264WAT     H1 4034   9.634   5.332   8.019
 1264WAT     H2 4035   9.564   5.198   8.081
 1265WAT      O 4036   8.475   5.303   3.078
 1265WAT     H1 4037   8.403   5.320   3.011
 1265WAT     H2 4038   8.554   5.263   3.032
 1266WAT      O 4039   2.974   7.076   4.957
 1266WAT     H1 4040   2.909   7.001   4.951
 1266WAT     H2 4041   3.065   7.040   4.974
 1267WAT      O 4042   1.941   9.436   1.910
 1267WAT     H1 4043   2.021   9.466   1.858
 1267WAT     H2 4044   1.917   9.342   1.884
 1268WAT      O 4045   5.369   2.322   1.273
 1268WAT     H1 4046   5.316   2.237   1.268
 1268WAT     H2 4047   5.308   2.400   1.256
 1269WAT      O 4048   2.502   7.372   6.878
 1269WAT     H1 4049   2.592   7.391   6.916
 1269WAT     H2 4050   2.502   7.280   6.838
 1270WAT      O 4051   0.150   5.023   3.494
 1270WAT     H1 4052   0.057   4.991   3.473
 1270WAT     H2 4053   0.216   4.966   3.445
 1271WAT      O 4054   1.665   4.383   9.073
 1271WAT     H1 4055   1.706   4.405   9.161
 1271WAT     H2 4056   1.726   4.413   8.999
 1272WAT      O 4057   4.091   8.885   8.303
 1272WAT     H1 4058   4.101   8.924   8.394
 1272WAT     H2 4059   4.180   8.878   8.259
 1273WAT      O 4060   2.115   1.775   9.005
 1273WAT     H1 4061   2.212   1.757   8.989
 1273WAT     H2 4062   2.100   1.788   9.103
 1274WAT      O 4063   8.616   0.066   7.369
 1274WAT     H1 4064   8.667   0.114   7.441
 1274WAT     H2 4065   8.532   0.116   7.348
 1275WAT      O 4066   4.493   5.610   1.509
 1275WAT     H1 4067   4.532   5.598   1.600
 1275WAT     H2 4068   4.489   5.521   1.463
 1276WAT      O 4069   9.838   1.049   5.662
 1276WAT     H1 4070   9.752   1.012   5.625
 1276WAT     H2 4071   9.817   1.127   5.721
 1277WAT      O 4072   2.209   0.212   0.613
 1277WAT     H1 4073   2.281   0.259   0.561
 1277WAT     H2 4074   2.245   0.125   0.648
 1278WAT      O 4075   4.399   4.181   2.279
 1278WAT     H1 4076   4.422   4.120   2.355
 1278WAT     H2 4077   4.299   4.187   2.270
 1279WAT      O 4078   2.040   9.770   4.125
 1279WAT     H1 4079   2.138   9.776   4.143
 1279WAT     H2 4080   2.008   9.676   4.140
 1280WAT      O 4081   7.772   2.021   5.108
 1280WAT     H1 4082   7.771   1.952   5.037
 1280WAT     H2 4083   7.680   2.059   5.119
 1281WAT      O 4084   7.823   8.748   2.195
 1281WAT     H1 4085   7.818   8.649   2.213
 1281WAT     H2 4086   7.841   8.795   2.281
 1282WAT      O 4087   9.399   5.111   0.630
 1282WAT     H1 4088   9.462   5.141   0.702
 1282WAT     H2 4089   9.307   5.144   0.650
 1283WAT      O 4090   6.976   7.255   0.807
 1283WAT     H1 4091   7.075   7.262   0.796
 1283WAT     H2 4092   6.949   7.159   0.802
 1284WAT      O 4093   0.025   0.380   8.181
 1284WAT     H1 4094   0.019   0.315   8.106
 1284WAT     H2 4095   0.109   0.434   8.171
 1285WAT      O 4096   1.217   6.252   3.557
 1285WAT     H1 4097   1.200   6.154   3.564
 1285WAT     H2 4098   1.156   6.291   3.488
 1286WAT      O 4099   9.805   7.959   2.501
 1286WAT     H1 4100   9.808   7.928   2.406
 1286WAT     H2 4101   9.787   8.057   2.504
 1287WAT      O 4102   3.911   7.097   1.774
 1287WAT     H1 4103   3.955   7.185   1.757
 1287WAT     H2 4104   3.939   7.031   1.704
 1288WAT      O 4105   3.487   8.042   2.757
 1288WAT     H1 4106   3.401   8.013   2.799
 1288WAT     H2 4107   3.559   7.975   2.778
 1289WAT      O 4108   3.845   7.203   7.562
 1289WAT     H1 4109   3.848   7.125   7.626
 1289WAT     H2 4110   3.913   7.189   7.490
 1290WAT      O 4111   1.550   3.790   0.362
 1290WAT     H1 4112   1.610   3.823   0.434
 1290WAT     H2 4113   1.528   3.866   0.300
 1291WAT      O 4114   4.029   9.751   3.302
 1291WAT     H1 4115   3.965   9.788   3.235
 1291WAT     H2 4116   4.122   9.779   3.278
 1292WAT      O 4117   1.455   4.967   7.480
 1292WAT     H1 4118   1.471   4.889   7.541
 1292WAT     H2 4119   1.510   5.044   7.510
 1293WAT      O 4120   4.544   7.856   7.542
 1293WAT     H1 4121   4.529   7.903   7.455
 1293WAT     H2 4122   4.488   7.773   7.545
 1294WAT      O 4123   8.335   2.019   7.586
 1294WAT     H1 4124   8.308   2.102   7.635
 1294WAT     H2 4125   8.359   1.948   7.652
 1295WAT      O 4126   9.233   6.085   8.255
 1295WAT     H1 4127   9.268   6.147   8.184
 1295WAT     H2 4128   9.167   6.134   8.312
 1296WAT      O 4129   7.165   6.468   7.148
 1296WAT     H1 4130   7.098   6.523   7.099
 1296WAT     H2 4131   7.251   6.465   7.097
 1297WAT      O 4132   9.365   2.740   2.453
 1297WAT     H1 4133   9.294   2.765   2.518
 1297WAT     H2 4134   9.395   2.821   2.402
 1298WAT      O 4135   6.126   2.492   9.615
 1298WAT     H1 4136   6.087   2.522   9.702
 1298WAT     H2 4137   6.053   2.460   9.555
 1299WAT      O 4138   2.315   0.141   8.934
 1299WAT     H1 4139   2.379   0.201   8.886
 1299WAT     H2 4140   2.252   0.197   8.988
 1300WAT      O 4141   8.660   3.501   9.732
 1300WAT     H1 4142   8.584   3.444   9.764
 1300WAT     H2 4143   8.626   3.564   9.662
 1301WAT      O 4144   6.715   2.419   3.365
 1301WAT     H1 4145   6.683   2.497   3.418
 1301WAT     H2 4146   6.733   2.448   3.271
 1302WAT      O 4147   3.436   0.819   0.529
 1302WAT     H1 4148   3.432   0.721   0.548
 1302WAT     H2 4149   3.385   0.839   0.446
 1303WAT      O 4150   1.914   7.994   3.686
 1303WAT     H1 4151   1.923   7.948   3.774
 1303WAT     H2 4152   1.995   7.976   3.630
 1304WAT      O 4153   9.706   2.737   5.891
 1304WAT     H1 4154   9.689   2.639   5.879
 1304WAT     H2 4155   9.756   2.752   5.976
 1305WAT      O 4156   7.252   3.989   8.104
 1305WAT     H1 4157   7.330   3.989   8.166
 1305WAT     H2 4158   7.284   4.008   8.011
 1306WAT      O 4159   0.629   3.588   3.541
 1306WAT     H1 4160   0.633   3.515   3.472
 1306WAT     H2 4161   0.636   3.677   3.497
 1307WAT      O 4162   5.150   4.201   4.394
 1307WAT     H1 4163   5.071   4.251   4.430
 1307WAT     H2 4164   5.123   4.107   4.374
 1308WAT      O 4165   4.902   9.275   9.639
 1308WAT     H1 4166   4.977   9.209   9.629
 1308WAT     H2 4167   4.875   9.309   9.549
 1309WAT      O 4168   4.524   4.660   1.058
 1309WAT     H1 4169   4.572   4.579   1.093
 1309WAT     H2 4170   4.510   4.650   0.959
 1310WAT      O 4171   9.303   5.100   1.453
 1310WAT     H1 4172   9.297   5.001   1.451
 1310WAT     H2 4173   9.211   5.139   1.451
 1311WAT      O 4174   4.318   6.094   3.248
 1311WAT     H1 4175   4.258   6.101   3.169
 1311WAT     H2 4176   4.271   6.130   3.329
 1312WAT      O 4177   0.653   6.348   8.291
 1312WAT     H1 4178   0.662   6.415   8.365
 1312WAT     H2 4179   0.605   6.391   8.214
 1313WAT      O 4180   1.155   4.301   9.403
 1313WAT     H1 4181   1.111   4.256   9.326
 1313WAT     H2 4182   1.117   4.267   9.489
 1314WAT      O 4183   3.817   2.064   0.032
 1314WAT     H1 4184   3.903   2.036   0.075
 1314WAT     H2 4185   3.760   2.109   0.100
 1315WAT      O 4186   7.722   8.787   1.771
 1315WAT     H1 4187   7.654   8.713   1.765
 1315WAT     H2 4188   7.813   8.750   1.753
 1316WAT      O 4189   4.497   4.206   8.011
 1316WAT     H1 4190   4.548   4.132   7.967
 1316WAT     H2 4191   4.403   4.208   7.976
 1317WAT      O 4192   7.752   1.996   0.874
 1317WAT     H1 4193   7.821   1.927   0.848
 1317WAT     H2 4194   7.752   2.007   0.973
 1318WAT      O 4195   7.994   3.870   2.580
 1318WAT     H1 4196   8.085   3.889   2.542
 1318WAT     H2 4197   8.003   3.852   2.678
 1319WAT      O 4198   8.462   5.369   4.895
 1319WAT     H1 4199   8.409   5.454   4.889
 1319WAT     H2 4200   8.405   5.297   4.933
 1320WAT      O 4201   3.513   4.606   7.136
 1320WAT     H1 4202   3.432   4.560   7.097
 1320WAT     H2 4203   3.485   4.665   7.211
 1321WAT      O 4204   5.346   4.328   9.124
 1321WAT     H1 4205   5.254   4.365   9.126
 1321WAT     H2 4206   5.359   4.273   9.041
 1322WAT      O 4207   2.309   6.173   2.623
 1322WAT     H1 4208   2.392   6.204   2.670
 1322WAT     H2 4209   2.287   6.238   2.550
 1323WAT      O 4210   6.805   1.940   8.245
 1323WAT     H1 4211   6.761   1.900   8.326
 1323WAT     H2 4212   6.904   1.934   8.255
 1324WAT      O 4213   4.011   0.141   6.118
 1324WAT     H1 4214   4.054   0.147   6.208
 1324WAT     H2 4215   4.079   0.118   6.050
 1325WAT      O 4216   3.436   7.320   8.320
 1325WAT     H1 4217   3.526   7.354   8.293
 1325WAT     H2 4218   3.382   7.300   8.238
 1326WAT      O 4219   0.439   6.186   3.068
 1326WAT     H1 4220   0.429   6.284   3.088
 1326WAT     H2 4221   0.349   6.148   3.044
 1327WAT      O 4222   0.920   0.429   2.515
 1327WAT     H1 4223   1.012   0.455   2.546
 1327WAT     H2 4224   0.902   0.472   2.426
 1328WAT      O 4225   4.160   4.752   8.069
 1328WAT     H1 4226   4.226   4.727   7.998
 1328WAT     H2 4227   4.108   4.832   8.040
 1329WAT      O 4228   7.049   0.663   5.256
 1329WAT     H1 4229   6.977   0.622   5.311
 1329WAT     H2 4230   7.121   0.699   5.315
 1330WAT      O 4231   8.539   0.636   2.574
 1330WAT     H1 4232   8.515   0.664   2.667
 1330WAT     H2 4233   8.592   0.551   2.578
 1331WAT      O 4234   6.671   8.771   7.997
 1331WAT     H1 4235   6.764   8.740   7.976
 1331WAT     H2 4236   6.648   8.743   8.090
 1332WAT      O 4237   1.509   4.315   1.059
 1332WAT     H1 4238   1.510   4.349   0.965
 1332WAT     H2 4239   1.585   4.356   1.110
 1333WAT      O 4240   7.444   8.110   7.627
 1333WAT     H1 4241   7.385   8.113   7.707
 1333WAT     H2 4242   7.455   8.203   7.591
 1334WAT      O 4243   8.148   8.560   7.559
 1334WAT     H1 4244   8.121   8.488   7.623
 1334WAT     H2 4245   8.236   8.599   7.588
 1335WAT      O 4246   2.550   9.410   6.816
 1335WAT     H1 4247   2.615   9.485   6.828
 1335WAT     H2 4248   2.595   9.323   6.837
 1336WAT      O 4249   9.231   3.025   1.600
 1336WAT     H1 4250   9.306   3.091   1.600
 1336WAT     H2 4251   9.190   3.020   1.691
 1337WAT      O 4252   2.383   1.009   4.773
 1337WAT     H1 4253   2.450   1.036   4.842
 1337WAT     H2 4254   2.427   0.953   4.703
 1338WAT      O 4255   6.711   4.505   5.147
 1338WAT     H1 4256   6.677   4.473   5.059
 1338WAT     H2 4257   6.689   4.436   5.217
 1339WAT      O 4258   9.820   3.798   7.372
 1339WAT     H1 4259   9.783   3.863   7.306
 1339WAT     H2 4260   9.745   3.748   7.415
 1340WAT      O 4261   5.897   0.235   8.738
 1340WAT     H1 4262   5.905   0.138   8.758
 1340WAT     H2 4263   5.901   0.288   8.823
 1341WAT      O 4264   8.020   0.855   8.285
 1341WAT     H1 4265   8.081   0.783   8.253
 1341WAT     H2 4266   7.976   0.900   8.207
 1342WAT      O 4267   6.271   1.276   4.596
 1342WAT     H1 4268   6.258   1.269   4.695
 1342WAT     H2 4269   6.232   1.363   4.564
 1343WAT      O 4270   7.713   5.768   0.982
 1343WAT     H1 4271   7.716   5.717   0.896
 1343WAT     H2 4272   7.770   5.849   0.976
 1344WAT      O 4273   1.217   2.091   4.294
 1344WAT     H1 4274   1.181   2.056   4.381
 1344WAT     H2 4275   1.155   2.067   4.220
 1345WAT      O 4276   9.690   5.353   3.688
 1345WAT     H1 4277   9.662   5.430   3.746
 1345WAT     H2 4278   9.617   5.285   3.686
 1346WAT      O 4279   9.534   8.602   7.808
 1346WAT     H1 4280   9.437   8.625   7.811
 1346WAT     H2 4281   9.570   8.622   7.717
 1347WAT      O 4282   1.129   1.676   5.539
 1347WAT     H1 4283   1.055   1.741   5.523
 1347WAT     H2 4284   1.204   1.695   5.476
 1348WAT      O 4285   6.432   4.676   0.143
 1348WAT     H1 4286   6.502   4.739   0.109
 1348WAT     H2 4287   6.427   4.682   0.242
 1349WAT      O 4288   6.924   0.336   7.142
 1349WAT     H1 4289   6.915   0.405   7.070
 1349WAT     H2 4290   7.006   0.282   7.126
 1350WAT      O 4291   6.408   9.784   6.209
 1350WAT     H1 4292   6.442   9.762   6.118
 1350WAT     H2 4293   6.480   9.827   6.263
 1351WAT      O 4294   6.807   5.074   1.320
 1351WAT     H1 4295   6.852   5.042   1.237
 1351WAT     H2 4296   6.856   5.154   1.356
 1352WAT      O 4297   0.741   2.826   1.991
 1352WAT     H1 4298   0.819   2.888   1.983
 1352WAT     H2 4299   0.769   2.734   1.962
 1353WAT      O 4300   4.274   3.139   7.611
 1353WAT     H1 4301   4.328   3.098   7.684
 1353WAT     H2 4302   4.181   3.103   7.613
 1354WAT      O 4303   7.766   1.356   5.394
 1354WAT     H1 4304   7.722   1.367   5.483
 1354WAT     H2 4305   7.863   1.379   5.402
 1355WAT      O 4306   1.662   7.919   3.892
 1355WAT     H1 4307   1.750   7.872   3.886
 1355WAT     H2 4308   1.665   7.987   3.965
 1356WAT      O 4309   8.992   3.378   8.012
 1356WAT     H1 4310   9.062   3.436   8.054
 1356WAT     H2 4311   9.030   3.331   7.933
 1357WAT      O 4312   5.366   0.106   0.287
 1357WAT     H1 4313   5.375   0.100   0.188
 1357WAT     H2 4314   5.449   0.143   0.327
 1358WAT      O 4315   6.504   5.394   8.990
 1358WAT     H1 4316   6.413   5.368   9.024
 1358WAT     H2 4317   6.552   5.447   9.060
 1359WAT      O 4318   6.269   6.320   0.846
 1359WAT     H1 4319   6.257   6.383   0.923
 1359WAT     H2 4320   6.186   6.319   0.791
 1360WAT      O 4321   8.895   9.273   7.363
 1360WAT     H1 4322   8.908   9.228   7.274
 1360WAT     H2 4323   8.805   9.316   7.365
 1361WAT      O 4324   5.707   9.639   6.966
 1361WAT     H1 4325   5.677   9.543   6.962
 1361WAT     H2 4326   5.750   9.664   6.879
 1362WAT      O 4327   6.429   5.589   0.067
 1362WAT     H1 4328   6.494   5.532   0.016
 1362WAT     H2 4329   6.343   5.540   0.077
 1363WAT      O 4330   5.834   0.984   6.484
 1363WAT     H1 4331   5.863   1.028   6.569
 1363WAT     H2 4332   5.835   0.885   6.496
 1364WAT      O 4333   6.574   1.987   6.406
 1364WAT     H1 4334   6.563   1.967   6.503
 1364WAT     H2 4335   6.540   1.911   6.352
 1365WAT      O 4336   0.090   5.114   5.482
 1365WAT     H1 4337  -0.009   5.116   5.497
 1365WAT     H2 4338   0.136   5.151   5.563
 1366WAT      O 4339   2.670   7.319   5.833
 1366WAT     H1 4340   2.766   7.304   5.808
 1366WAT     H2 4341   2.616   7.239   5.804
 1367WAT      O 4342   6.251   8.785   7.205
 1367WAT     H1 4343   6.273   8.802   7.109
 1367WAT     H2 4344   6.188   8.856   7.238
 1368WAT      O 4345   0.490   2.823   9.368
 1368WAT     H1 4346   0.513   2.908   9.321
 1368WAT     H2 4347   0.395   2.798   9.348
 1369WAT      O 4348   1.785   4.386   5.039
 1369WAT     H1 4349   1.700   4.367   5.088
 1369WAT     H2 4350   1.813   4.305   4.987
 1370WAT      O 4351   5.526   7.847   5.609
 1370WAT     H1 4352   5.445   7.882   5.563
 1370WAT     H2 4353   5.517   7.862   5.708
 1371WAT      O 4354   6.969   5.143   5.856
 1371WAT     H1 4355   6.936   5.065   5.803
 1371WAT     H2 4356   7.056   5.174   5.819
 1372WAT      O 4357   3.507   8.033   5.104
 1372WAT     H1 4358   3.544   8.120   5.071
 1372WAT     H2 4359   3.408   8.040   5.113
 1373WAT      O 4360   4.294   3.015   4.617
 1373WAT     H1 4361   4.332   3.107   4.613
 1373WAT     H2 4362   4.197   3.019   4.594
 1374WAT      O 4363   7.921   6.850   0.929
 1374WAT     H1 4364   7.853   6.781   0.956
 1374WAT     H2 4365   7.937   6.844   0.830
 1375WAT      O 4366   8.433   9.768   7.523
 1375WAT     H1 4367   8.351   9.809   7.482
 1375WAT     H2 4368   8.514   9.801   7.475
 1376WAT      O 4369   8.603   0.165   1.796
 1376WAT     H1 4370   8.539   0.225   1.843
 1376WAT     H2 4371   8.563   0.074   1.786
 1377WAT      O 4372   9.318   0.678   7.329
 1377WAT     H1 4373   9.319   0.580   7.311
 1377WAT     H2 4374   9.228   0.704   7.363
 1378WAT      O 4375   7.697   6.163   9.313
 1378WAT     H1 4376   7.753   6.210   9.381
 1378WAT     H2 4377   7.649   6.087   9.356
 1379WAT      O 4378   2.081   8.121   8.009
 1379WAT     H1 4379   2.020   8.108   7.931
 1379WAT     H2 4380   2.032   8.100   8.093
 1380WAT      O 4381   5.989   1.960   1.224
 1380WAT     H1 4382   5.941   1.877   1.252
 1380WAT     H2 4383   5.988   2.027   1.299
 1381WAT      O 4384   3.273   3.544   4.418
 1381WAT     H1 4385   3.326   3.605   4.477
 1381WAT     H2 4386   3.263   3.455   4.463
 1382WAT      O 4387   1.789   2.376   6.173
 1382WAT     H1 4388   1.840   2.426   6.102
 1382WAT     H2 4389   1.725   2.439   6.217
 1383WAT      O 4390   6.969   7.295   4.716
 1383WAT     H1 4391   6.874   7.311   4.690
 1383WAT     H2 4392   7.014   7.240   4.645
 1384WAT      O 4393   5.419   6.965   2.944
 1384WAT     H1 4394   5.483   6.893   2.973
 1384WAT     H2 4395   5.334   6.956   2.996
 1385WAT      O 4396   1.486   8.968   6.617
 1385WAT     H1 4397   1.434   9.047   6.584
 1385WAT     H2 4398   1.500   8.903   6.543
 1386WAT      O 4399   8.442   6.477   8.294
 1386WAT     H1 4400   8.430   6.378   8.284
 1386WAT     H2 4401   8.359   6.518   8.331
 1387WAT      O 4402   2.812   4.928   7.889
 1387WAT     H1 4403   2.803   4.983   7.806
 1387WAT     H2 4404   2.899   4.879   7.887
 1388WAT      O 4405   2.472   9.470   6.118
 1388WAT     H1 4406   2.509   9.427   6.035
 1388WAT     H2 4407   2.547   9.489   6.181
 1389WAT      O 4408   3.519   8.376   4.202
 1389WAT     H1 4409   3.558   8.354   4.112
 1389WAT     H2 4410   3.420   8.360   4.200
 1390WAT      O 4411   5.641   3.699   1.729
 1390WAT     H1 4412   5.725   3.744   1.759
 1390WAT     H2 4413   5.663   3.612   1.685
 1391WAT      O 4414   0.200   8.058   0.908
 1391WAT     H1 4415   0.151   8.068   0.821
 1391WAT     H2 4416   0.145   8.097   0.982
 1392WAT      O 4417   8.038   3.925   4.520
 1392WAT     H1 4418   8.024   4.006   4.577
 1392WAT     H2 4419   7.998   3.940   4.430
 1393WAT      O 4420   6.100   3.218   8.534
 1393WAT     H1 4421   6.086   3.229   8.633
 1393WAT     H2 4422   6.169   3.147   8.519
 1394WAT      O 4423   3.092   7.519   4.873
 1394WAT     H1 4424   3.085   7.464   4.789
 1394WAT     H2 4425   3.169   7.582   4.864
 1395WAT      O 4426   5.636   5.010   4.007
 1395WAT     H1 4427   5.543   5.047   4.019
 1395WAT     H2 4428   5.682   5.005   4.096
 1396WAT      O 4429   5.443   9.752   9.492
 1396WAT     H1 4430   5.353   9.744   9.449
 1396WAT     H2 4431   5.501   9.812   9.436
 1397WAT      O 4432   1.956   0.754   8.017
 1397WAT     H1 4433   1.920   0.717   7.931
 1397WAT     H2 4434   2.055   0.765   8.009
 1398WAT      O 4435   0.939   9.210   3.537
 1398WAT     H1 4436   0.989   9.190   3.453
 1398WAT     H2 4437   0.842   9.223   3.516
 1399WAT      O 4438   6.932   6.408   6.430
 1399WAT     H1 4439   7.024   6.433   6.398
 1399WAT     H2 4440   6.938   6.373   6.524
 1400WAT      O 4441   3.863   5.285   0.456
 1400WAT     H1 4442   3.952   5.325   0.434
 1400WAT     H2 4443   3.835   5.313   0.548
 1401WAT      O 4444   4.450   4.361   5.011
 1401WAT     H1 4445   4.503   4.305   4.947
 1401WAT     H2 4446   4.358   4.322   5.020
 1402WAT      O 4447   1.725   8.134   4.042
 1402WAT     H1 4448   1.737   8.086   4.129
 1402WAT     H2 4449   1.814   8.148   3.999
 1403WAT      O 4450   3.569   4.842   8.448
 1403WAT     H1 4451   3.562   4.899   8.366
 1403WAT     H2 4452   3.525   4.888   8.525
 1404WAT      O 4453   3.352   3.367   7.688
 1404WAT     H1 4454   3.402   3.453   7.680
 1404WAT     H2 4455   3.407   3.301   7.739
 1405WAT      O 4456   6.077   1.590   0.192
 1405WAT     H1 4457   6.092   1.502   0.147
 1405WAT     H2 4458   5.980   1.601   0.214
 1406WAT      O 4459   8.721   4.467   5.875
 1406WAT     H1 4460   8.728   4.368   5.863
 1406WAT     H2 4461   8.642   4.501   5.824
 1407WAT      O 4462   0.415   9.775   2.663
 1407WAT     H1 4463   0.423   9.743   2.569
 1407WAT     H2 4464   0.499   9.824   2.689
 1408WAT      O 4465   8.966   9.595   1.522
 1408WAT     H1 4466   8.964   9.639   1.432
 1408WAT     H2 4467   8.939   9.661   1.592
 1409WAT      O 4468   5.175   0.124   3.548
 1409WAT     H1 4469   5.256   0.071   3.573
 1409WAT     H2 4470   5.098   0.063   3.533
 1410WAT      O 4471   2.287   3.941   5.427
 1410WAT     H1 4472   2.385   3.961   5.434
 1410WAT     H2 4473   2.273   3.842   5.426
 1411WAT      O 4474   1.759   8.436   6.646
 1411WAT     H1 4475   1.739   8.452   6.742
 1411WAT     H2 4476   1.858   8.439   6.632
 1412WAT      O 4477   6.081   0.880   7.321
 1412WAT     H1 4478   6.176   0.889   7.293
 1412WAT     H2 4479   6.038   0.805   7.271
 1413WAT      O 4480   0.856   7.350   1.134
 1413WAT     H1 4481   0.928   7.342   1.202
 1413WAT     H2 4482   0.803   7.264   1.131
 1414WAT      O 4483   6.955   1.593   5.877
 1414WAT     H1 4484   6.940   1.692   5.878
 1414WAT     H2 4485   7.054   1.575   5.878
 1415WAT      O 4486   1.375   1.855   1.283
 1415WAT     H1 4487   1.469   1.885   1.292
 1415WAT     H2 4488   1.322   1.885   1.363
 1416WAT      O 4489   9.115   1.232   1.193
 1416WAT     H1 4490   9.173   1.245   1.273
 1416WAT     H2 4491   9.069   1.318   1.170
 1417WAT      O 4492   8.551   1.624   4.540
 1417WAT     H1 4493   8.564   1.526   4.522
 1417WAT     H2 4494   8.618   1.677   4.488
 1418WAT      O 4495   3.064   2.677   3.274
 1418WAT     H1 4496   3.090   2.590   3.316
 1418WAT     H2 4497   2.968   2.672   3.246
 1419WAT      O 4498   2.929   5.483   8.078
 1419WAT     H1 4499   2.932   5.438   7.989
 1419WAT     H2 4500   3.006   5.453   8.133
 1420WAT      O 4501   6.651   1.853   9.620
 1420WAT     H1 4502   6.691   1.766   9.593
 1420WAT     H2 4503   6.676   1.875   9.714
 1421WAT      O 4504   6.638   5.072   1.705
 1421WAT     H1 4505   6.616   4.977   1.684
 1421WAT     H2 4506   6.559   5.130   1.687
 1422WAT      O 4507   2.291   7.874   0.738
 1422WAT     H1 4508   2.329   7.782   0.729
 1422WAT     H2 4509   2.329   7.918   0.819
 1423WAT      O 4510   8.738   0.860   2.964
 1423WAT     H1 4511   8.711   0.774   3.008
 1423WAT     H2 4512   8.656   0.913   2.941
 1424WAT      O 4513   8.579   1.850   4.775
 1424WAT     H1 4514   8.502   1.913   4.759
 1424WAT     H2 4515   8.566   1.767   4.721
 1425WAT      O 4516   4.856   2.431   4.325
 1425WAT     H1 4517   4.806   2.449   4.410
 1425WAT     H2 4518   4.804   2.468   4.248
 1426WAT      O 4519   5.593   7.292   5.894
 1426WAT     H1 4520   5.499   7.325   5.882
 1426WAT     H2 4521   5.617   7.233   5.817
 1427WAT      O 4522   4.106   8.099   9.609
 1427WAT     H1 4523   4.043   8.151   9.552
 1427WAT     H2 4524   4.079   8.003   9.610
 1428WAT      O 4525   2.709   8.058   5.568
 1428WAT     H1 4526   2.677   7.968   5.537
 1428WAT     H2 4527   2.797   8.079   5.526
 1429WAT      O 4528   3.879   1.424   5.521
 1429WAT     H1 4529   3.890   1.492   5.594
 1429WAT     H2 4530   3.964   1.372   5.511
 1430WAT      O 4531   3.642   7.075   7.446
 1430WAT     H1 4532   3.548   7.102   7.468
 1430WAT     H2 4533   3.705   7.141   7.487
 1431WAT      O 4534   1.265   7.675   3.088
 1431WAT     H1 4535   1.175   7.719   3.075
 1431WAT     H2 4536   1.290   7.679   3.185
 1432WAT      O 4537   4.491   7.642   9.352
 1432WAT     H1 4538   4.574   7.648   9.407
 1432WAT     H2 4539   4.514   7.649   9.255
 1433WAT      O 4540   7.212   9.394   5.690
 1433WAT     H1 4541   7.177   9.395   5.597
 1433WAT     H2 4542   7.191   9.306   5.733
 1434WAT      O 4543   3.923   4.326   5.959
 1434WAT     H1 4544   3.973   4.411   5.946
 1434WAT     H2 4545   3.983   4.257   5.999
 1435WAT      O 4546   4.773   4.287   7.717
 1435WAT     H1 4547   4.784   4.328   7.627
 1435WAT     H2 4548   4.765   4.359   7.786
 1436WAT      O 4549   0.704   4.680   4.270
 1436WAT     H1 4550   0.802   4.671   4.288
 1436WAT     H2 4551   0.654   4.683   4.356
 1437WAT      O 4552   8.166   1.414   8.256
 1437WAT     H1 4553   8.207   1.457   8.176
 1437WAT     H2 4554   8.234   1.358   8.303
 1438WAT      O 4555   7.468   0.964   0.702
 1438WAT     H1 4556   7.555   1.011   0.719
 1438WAT     H2 4557   7.442   0.911   0.783
 1439WAT      O 4558   8.262   5.642   3.917
 1439WAT     H1 4559   8.276   5.578   3.841
 1439WAT     H2 4560   8.219   5.725   3.883
 1440WAT      O 4561   3.672   1.000   2.275
 1440WAT     H1 4562   3.768   1.009   2.302
 1440WAT     H2 4563   3.644   1.080   2.223
 1441WAT      O 4564   9.658   6.830   9.621
 1441WAT     H1 4565   9.651   6.730   9.614
 1441WAT     H2 4566   9.566   6.869   9.627
 1442WAT      O 4567   0.443   6.827   6.199
 1442WAT     H1 4568   0.511   6.868   6.139
 1442WAT     H2 4569   0.363   6.799   6.145
 1443WAT      O 4570   0.858   8.592   0.326
 1443WAT     H1 4571   0.783   8.608   0.263
 1443WAT     H2 4572   0.927   8.535   0.282
 1444WAT      O 4573   9.250   3.998   8.584
 1444WAT     H1 4574   9.280   3.940   8.659
 1444WAT     H2 4575   9.207   4.081   8.621
 1445WAT      O 4576   2.492   7.390   0.559
 1445WAT     H1 4577   2.573   7.358   0.510
 1445WAT     H2 4578   2.448   7.313   0.606
 1446WAT      O 4579   6.927   8.154   1.285
 1446WAT     H1 4580   6.906   8.166   1.382
 1446WAT     H2 4581   6.971   8.236   1.249
 1447WAT      O 4582   7.754   4.636   9.353
 1447WAT     H1 4583   7.706   4.574   9.290
 1447WAT     H2 4584   7.692   4.709   9.381
 1448WAT      O 4585   5.801   1.113   8.088
 1448WAT     H1 4586   5.761   1.069   8.168
 1448WAT     H2 4587   5.817   1.210   8.108
 1449WAT      O 4588   5.305   2.849   8.436
 1449WAT     H1 4589   5.250   2.893   8.508
 1449WAT     H2 4590   5.292   2.750   8.440
 1450WAT      O 4591   8.065   6.420   0.153
 1450WAT     H1 4592   7.979   6.384   0.118
 1450WAT     H2 4593   8.118   6.345   0.194
 1451WAT      O 4594   5.011   6.760   3.719
 1451WAT     H1 4595   4.983   6.693   3.787
 1451WAT     H2 4596   5.010   6.852   3.760
 1452WAT      O 4597   5.202   6.353   3.910
 1452WAT     H1 4598   5.115   6.312   3.880
 1452WAT     H2 4599   5.248   6.290   3.972
 1453WAT      O 4600   1.690   6.681   5.991
 1453WAT     H1 4601   1.606   6.704   5.942
 1453WAT     H2 4602   1.670   6.610   6.059
 1454WAT      O 4603   8.854   3.061   9.084
 1454WAT     H1 4604   8.810   3.139   9.040
 1454WAT     H2 4605   8.948   3.051   9.050
 1455WAT      O 4606   4.750   3.935   8.661
 1455WAT     H1 4607   4.668   3.895   8.620
 1455WAT     H2 4608   4.831   3.888   8.625
 1456WAT      O 4609   2.093   7.207   6.379
 1456WAT     H1 4610   2.149   7.136   6.336
 1456WAT     H2 4611   2.003   7.210   6.334
 1457WAT      O 4612   1.235   1.503   2.966
 1457WAT     H1 4613   1.165   1.524   3.035
 1457WAT     H2 4614   1.310   1.568   2.973
 1458WAT      O 4615   6.474   4.395   6.476
 1458WAT     H1 4616   6.521   4.473   6.435
 1458WAT     H2 4617   6.450   4.329   6.405
 1459WAT      O 4618   1.244   8.894   6.353
 1459WAT     H1 4619   1.258   8.834   6.431
 1459WAT     H2 4620   1.294   8.980   6.367
 1460WAT      O 4621   0.845   2.844   1.681
 1460WAT     H1 4622   0.838   2.756   1.728
 1460WAT     H2 4623   0.776   2.907   1.716
 1461WAT      O 4624   5.947   2.924   5.800
 1461WAT     H1 4625   5.940   3.010   5.849
 1461WAT     H2 4626   5.926   2.848   5.862
 1462WAT      O 4627   5.391   3.019   2.498
 1462WAT     H1 4628   5.319   3.071   2.545
 1462WAT     H2 4629   5.436   2.959   2.564
 1463WAT      O 4630   6.211   8.253   2.403
 1463WAT     H1 4631   6.279   8.182   2.388
 1463WAT     H2 4632   6.119   8.214   2.393
 1464WAT      O 4633   9.768   5.509   1.533
 1464WAT     H1 4634   9.800   5.433   1.590
 1464WAT     H2 4635   9.808   5.595   1.566
 1465WAT      O 4636   1.316   1.731   2.210
 1465WAT     H1 4637   1.389   1.756   2.274
 1465WAT     H2 4638   1.274   1.814   2.173
 1466WAT      O 4639   2.800   8.651   0.520
 1466WAT     H1 4640   2.728   8.591   0.484
 1466WAT     H2 4641   2.784   8.668   0.617
 1467WAT      O 4642   6.179   4.212   4.702
 1467WAT     H1 4643   6.229   4.298   4.693
 1467WAT     H2 4644   6.081   4.229   4.693
 1468WAT      O 4645   0.984   5.522   5.858
 1468WAT     H1 4646   1.008   5.427   5.875
 1468WAT     H2 4647   1.038   5.557   5.781
 1469WAT      O 4648   8.088   8.949   5.766
 1469WAT     H1 4649   8.182   8.939   5.733
 1469WAT     H2 4650   8.081   9.031   5.822
 1470WAT      O 4651   4.634   7.194   9.298
 1470WAT     H1 4652   4.626   7.165   9.394
 1470WAT     H2 4653   4.730   7.188   9.270
 1471WAT      O 4654   6.937   1.207   8.232
 1471WAT     H1 4655   6.992   1.272   8.181
 1471WAT     H2 4656   6.989   1.123   8.247
 1472WAT      O 4657   9.578   2.127   9.222
 1472WAT     H1 4658   9.548   2.119   9.317
 1472WAT     H2 4659   9.569   2.039   9.176
 1473WAT      O 4660   9.160   1.123   4.462
 1473WAT     H1 4661   9.258   1.123   4.485
 1473WAT     H2 4662   9.138   1.039   4.413
 1474WAT      O 4663   0.904   2.239   4.188
 1474WAT     H1 4664   0.859   2.259   4.275
 1474WAT     H2 4665   0.932   2.143   4.186
 1475WAT      O 4666   0.697   7.463   1.993
 1475WAT     H1 4667   0.604   7.445   2.025
 1475WAT     H2 4668   0.706   7.560   1.971
 1476WAT      O 4669   8.633   7.007   0.535
 1476WAT     H1 4670   8.691   7.050   0.604
 1476WAT     H2 4671   8.537   7.028   0.552
 1477WAT      O 4672   0.338   3.108   2.664
 1477WAT     H1 4673   0.306   3.188   2.613
 1477WAT     H2 4674   0.379   3.043   2.600
 1478WAT      O 4675   6.341   5.093   2.882
 1478WAT     H1 4676   6.258   5.102   2.937
 1478WAT     H2 4677   6.322   5.125   2.789
 1479WAT      O 4678   6.318   5.494   0.517
 1479WAT     H1 4679   6.296   5.446   0.432
 1479WAT     H2 4680   6.359   5.429   0.581
 1480WAT      O 4681   3.544   6.890   7.136
 1480WAT     H1 4682   3.540   6.832   7.217
 1480WAT     H2 4683   3.460   6.881   7.083
 1481WAT      O 4684   2.801   3.346   2.117
 1481WAT     H1 4685   2.839   3.264   2.074
 1481WAT     H2 4686   2.874   3.413   2.130
 1482WAT      O 4687   8.351   4.800   3.490
 1482WAT     H1 4688   8.435   4.845   3.462
 1482WAT     H2 4689   8.285   4.800   3.415
 1483WAT      O 4690   7.061   0.567   4.808
 1483WAT     H1 4691   7.069   0.627   4.729
 1483WAT     H2 4692   7.139   0.582   4.869
 1484WAT      O 4693   8.240   1.374   6.243
 1484WAT     H1 4694   8.271   1.291   6.289
 1484WAT     H2 4695   8.201   1.437   6.310
 1485WAT      O 4696   7.293   5.517   9.520
 1485WAT     H1 4697   7.259   5.581   9.588
 1485WAT     H2 4698   7.257   5.425   9.539
 1486WAT      O 4699   6.367   5.345   4.850
 1486WAT     H1 4700   6.342   5.388   4.937
 1486WAT     H2 4701   6.314   5.261   4.838
 1487WAT      O 4702   1.181   4.928   9.056
 1487WAT     H1 4703   1.181   4.970   9.147
 1487WAT     H2 4704   1.205   4.997   8.988
 1488WAT      O 4705   2.432   7.462   7.223
 1488WAT     H1 4706   2.514   7.516   7.237
 1488WAT     H2 4707   2.457   7.368   7.199
 1489WAT      O 4708   4.388   1.780   1.192
 1489WAT     H1 4709   4.423   1.823   1.276
 1489WAT     H2 4710   4.333   1.845   1.141
 1490WAT      O 4711   4.518   1.337   3.739
 1490WAT     H1 4712   4.426   1.329   3.776
 1490WAT     H2 4713   4.584   1.300   3.805
 1491WAT      O 4714   7.609   3.288   2.336
 1491WAT     H1 4715   7.573   3.230   2.409
 1491WAT     H2 4716   7.693   3.247   2.300
 1492WAT      O 4717   4.531   6.404   2.543
 1492WAT     H1 4718   4.630   6.403   2.551
 1492WAT     H2 4719   4.504   6.474   2.477
 1493WAT      O 4720   0.639   1.031   7.612
 1493WAT     H1 4721   0.572   0.980   7.558
 1493WAT     H2 4722   0.594   1.075   7.689
 1494WAT      O 4723   4.293   6.154   6.303
 1494WAT     H1 4724   4.306   6.090   6.227
 1494WAT     H2 4725   4.382   6.193   6.328
 1495WAT      O 4726   2.576   1.684   1.752
 1495WAT     H1 4727   2.657   1.710   1.699
 1495WAT     H2 4728   2.603   1.664   1.846
 1496WAT      O 4729   2.902   6.304   2.416
 1496WAT     H1 4730   2.946   6.320   2.327
 1496WAT     H2 4731   2.967   6.258   2.477
 1497WAT      O 4732   1.961   0.561   6.018
 1497WAT     H1 4733   1.974   0.471   5.977
 1497WAT     H2 4734   1.884   0.556   6.082
 1498WAT      O 4735   1.249   5.997   5.105
 1498WAT     H1 4736   1.175   5.935   5.132
 1498WAT     H2 4737   1.332   5.971   5.153
 1499WAT      O 4738   5.846   2.301   1.906
 1499WAT     H1 4739   5.778   2.229   1.895
 1499WAT     H2 4740   5.912   2.297   1.831
 1500WAT      O 4741   0.836   1.505   7.340
 1500WAT     H1 4742   0.821   1.447   7.420
 1500WAT     H2 4743   0.748   1.534   7.303
 1501WAT      O 4744   4.109   7.780   1.761
 1501WAT     H1 4745   4.134   7.760   1.666
 1501WAT     H2 4746   4.119   7.878   1.777
 1502WAT      O 4747   8.794   3.931   2.411
 1502WAT     H1 4748   8.868   3.865   2.405
 1502WAT     H2 4749   8.769   3.946   2.506
 1503WAT      O 4750   8.688   7.977   8.090
 1503WAT     H1 4751   8.751   8.043   8.131
 1503WAT     H2 4752   8.728   7.941   8.006
 1504WAT      O 4753   2.194   2.822   4.267
 1504WAT     H1 4754   2.199   2.787   4.173
 1504WAT     H2 4755   2.157   2.915   4.265
 1505WAT      O 4756   5.308   6.433   6.057
 1505WAT     H1 4757   5.361   6.366   6.004
 1505WAT     H2 4758   5.213   6.403   6.063
 1506WAT      O 4759   5.060   4.625   4.996
 1506WAT     H1 4760   5.026   4.592   5.084
 1506WAT     H2 4761   5.149   4.585   4.977
 1507WAT      O 4762   6.723   0.719   7.179
 1507WAT     H1 4763   6.701   0.633   7.134
 1507WAT     H2 4764   6.651   0.786   7.159
 1508WAT      O 4765   8.319   0.260   1.660
 1508WAT     H1 4766   8.327   0.319   1.579
 1508WAT     H2 4767   8.319   0.164   1.631
 1509WAT      O 4768   4.141   2.142   0.503
 1509WAT     H1 4769   4.136   2.203   0.424
 1509WAT     H2 4770   4.128   2.048   0.473
 1510WAT      O 4771   2.114   4.711   7.878
 1510WAT     H1 4772   2.133   4.655   7.959
 1510WAT     H2 4773   2.200   4.737   7.834
 1511WAT      O 4774   6.779   3.797   2.368
 1511WAT     H1 4775   6.823   3.887   2.375
 1511WAT     H2 4776   6.800   3.756   2.279
 1512WAT      O 4777   0.862   6.437   3.349
 1512WAT     H1 4778   0.940   6.384   3.315
 1512WAT     H2 4779   0.888   6.485   3.432
 1513WAT      O 4780   9.676   7.834   8.298
 1513WAT     H1 4781   9.578   7.843   8.277
 1513WAT     H2 4782   9.709   7.747   8.262
 1514WAT      O 4783   6.472   1.577   4.142
 1514WAT     H1 4784   6.497   1.663   4.186
 1514WAT     H2 4785   6.411   1.595   4.066
 1515WAT      O 4786   1.538   6.521   2.502
 1515WAT     H1 4787   1.506   6.610   2.532
 1515WAT     H2 4788   1.580   6.529   2.411
 1516WAT      O 4789   3.365   4.707   1.905
 1516WAT     H1 4790   3.373   4.799   1.944
 1516WAT     H2 4791   3.405   4.707   1.814
 1517WAT      O 4792   3.364   9.300   4.812
 1517WAT     H1 4793   3.464   9.295   4.813
 1517WAT     H2 4794   3.330   9.273   4.722
 1518WAT      O 4795   1.866   7.081   9.261
 1518WAT     H1 4796   1.796   7.133   9.212
 1518WAT     H2 4797   1.855   7.094   9.359
 1519WAT      O 4798   5.260   9.365   3.569
 1519WAT     H1 4799   5.200   9.440   3.598
 1519WAT     H2 4800   5.348   9.402   3.540
 1520WAT      O 4801   4.694   2.593   3.289
 1520WAT     H1 4802   4.785   2.629   3.268
 1520WAT     H2 4803   4.626   2.644   3.236
 1521WAT      O 4804   4.688   5.488   7.845
 1521WAT     H1 4805   4.766   5.455   7.792
 1521WAT     H2 4806   4.629   5.411   7.870
 1522WAT      O 4807   8.734   3.630   0.690
 1522WAT     H1 4808   8.650   3.659   0.736
 1522WAT     H2 4809   8.804   3.699   0.701
 1523WAT      O 4810   6.443   8.043   5.473
 1523WAT     H1 4811   6.411   8.135   5.449
 1523WAT     H2 4812   6.505   8.049   5.550
 1524WAT      O 4813   3.035   0.928   5.541
 1524WAT     H1 4814   2.972   0.921   5.464
 1524WAT     H2 4815   3.111   0.988   5.516
 1525WAT      O 4816   5.405   4.963   7.843
 1525WAT     H1 4817   5.454   4.888   7.888
 1525WAT     H2 4818   5.393   4.941   7.746
 1526WAT      O 4819   4.276   6.912   3.410
 1526WAT     H1 4820   4.363   6.867   3.389
 1526WAT     H2 4821   4.229   6.862   3.482
 1527WAT      O 4822   6.285   6.207   5.387
 1527WAT     H1 4823   6.202   6.163   5.354
 1527WAT     H2 4824   6.262   6.275   5.456
 1528WAT      O 4825   6.229   9.244   7.894
 1528WAT     H1 4826   6.322   9.226   7.926
 1528WAT     H2 4827   6.205   9.339   7.913
 1529WAT      O 4828   4.686   4.660   9.079
 1529WAT     H1 4829   4.684   4.655   8.980
 1529WAT     H2 4830   4.640   4.580   9.118
 1530WAT      O 4831   1.092   1.278   1.112
 1530WAT     H1 4832   1.153   1.357   1.107
 1530WAT     H2 4833   1.105   1.221   1.031
 1531WAT      O 4834   3.498   3.701   0.761
 1531WAT     H1 4835   3.479   3.800   0.766
 1531WAT     H2 4836   3.508   3.664   0.853
 1532WAT      O 4837   4.642   4.199   6.130
 1532WAT     H1 4838   4.691   4.123   6.172
 1532WAT     H2 4839   4.691   4.285   6.148
 1533WAT      O 4840   8.033   6.870   2.744
 1533WAT     H1 4841   7.944   6.872   2.791
 1533WAT     H2 4842   8.041   6.785   2.693
 1534WAT      O 4843   3.912   0.921   8.197
 1534WAT     H1 4844   3.854   0.931   8.278
 1534WAT     H2 4845   3.880   0.984   8.126
 1535WAT      O 4846   0.141   3.642   9.174
 1535WAT     H1 4847   0.076   3.692   9.231
 1535WAT     H2 4848   0.100   3.556   9.143
 1536WAT      O 4849   8.330   2.518   5.792
 1536WAT     H1 4850   8.368   2.457   5.723
 1536WAT     H2 4851   8.267   2.583   5.748
 1537WAT      O 4852   7.047   1.062   2.670
 1537WAT     H1 4853   7.139   1.084   2.704
 1537WAT     H2 4854   6.980   1.123   2.714
 1538WAT      O 4855   9.236   2.899   2.619
 1538WAT     H1 4856   9.161   2.916   2.684
 1538WAT     H2 4857   9.295   2.979   2.615
 1539WAT      O 4858   8.865   8.722   7.577
 1539WAT     H1 4859   8.927   8.789   7.536
 1539WAT     H2 4860   8.820   8.670   7.505
 1540WAT      O 4861   0.161   1.813   2.476
 1540WAT     H1 4862   0.110   1.757   2.411
 1540WAT     H2 4863   0.220   1.755   2.532
 1541WAT      O 4864   1.164   1.302   9.170
 1541WAT     H1 4865   1.073   1.343   9.167
 1541WAT     H2 4866   1.181   1.265   9.261
 1542WAT      O 4867   2.195   5.402   1.574
 1542WAT     H1 4868   2.286   5.396   1.533
 1542WAT     H2 4869   2.138   5.326   1.540
 1543WAT      O 4870   4.239   5.358   7.752
 1543WAT     H1 4871   4.145   5.387   7.771
 1543WAT     H2 4872   4.243   5.258   7.755
 1544WAT      O 4873   0.822   8.412   3.824
 1544WAT     H1 4874   0.908   8.368   3.799
 1544WAT     H2 4875   0.834   8.511   3.823
 1545WAT      O 4876   1.760   4.144   9.015
 1545WAT     H1 4877   1.726   4.073   9.077
 1545WAT     H2 4878   1.716   4.231   9.037
 1546WAT      O 4879   6.707   8.238   9.309
 1546WAT     H1 4880   6.629   8.184   9.277
 1546WAT     H2 4881   6.733   8.304   9.239
 1547WAT      O 4882   5.944   1.396   5.209
 1547WAT     H1 4883   5.997   1.419   5.128
 1547WAT     H2 4884   5.998   1.414   5.291
 1548WAT      O 4885   8.207   4.847   9.411
 1548WAT     H1 4886   8.144   4.775   9.384
 1548WAT     H2 4887   8.245   4.892   9.330
 1549WAT      O 4888   8.941   0.508   9.315
 1549WAT     H1 4889   9.026   0.455   9.319
 1549WAT     H2 4890   8.961   0.605   9.327
 1550WAT      O 4891   9.774   1.836   7.330
 1550WAT     H1 4892   9.830   1.759   7.300
 1550WAT     H2 4893   9.825   1.921   7.317
 1551WAT      O 4894   1.069   5.646   9.380
 1551WAT     H1 4895   1.078   5.745   9.370
 1551WAT     H2 4896   1.111   5.601   9.301
 1552WAT      O 4897   0.153   7.658   2.465
 1552WAT     H1 4898   0.129   7.583   2.404
 1552WAT     H2 4899   0.210   7.724   2.415
 1553WAT      O 4900   1.723   6.879   7.086
 1553WAT     H1 4901   1.693   6.974   7.095
 1553WAT     H2 4902   1.777   6.869   7.002
 1554WAT      O 4903   8.755   4.954   9.270
 1554WAT     H1 4904   8.689   5.010   9.220
 1554WAT     H2 4905   8.821   4.916   9.205
 1555WAT      O 4906   8.112   8.013   7.791
 1555WAT     H1 4907   8.171   7.970   7.722
 1555WAT     H2 4908   8.019   7.978   7.781
 1556WAT      O 4909   7.279   2.230   5.724
 1556WAT     H1 4910   7.313   2.145   5.765
 1556WAT     H2 4911   7.267   2.299   5.796
 1557WAT      O 4912   8.473   9.675   7.765
 1557WAT     H1 4913   8.405   9.721   7.822
 1557WAT     H2 4914   8.484   9.725   7.679
 1558WAT      O 4915   4.236   4.973   7.213
 1558WAT     H1 4916   4.171   5.046   7.236
 1558WAT     H2 4917   4.231   4.901   7.282
 1559WAT      O 4918   4.129   2.169   2.085
 1559WAT     H1 4919   4.031   2.166   2.105
 1559WAT     H2 4920   4.142   2.165   1.986
 1560WAT      O 4921   8.539   5.721   9.704
 1560WAT     H1 4922   8.605   5.795   9.711
 1560WAT     H2 4923   8.563   5.661   9.628
 1561WAT      O 4924   4.012   7.386   4.035
 1561WAT     H1 4925   4.026   7.463   4.097
 1561WAT     H2 4926   4.097   7.364   3.989
 1562WAT      O 4927   7.352   6.537   1.191
 1562WAT     H1 4928   7.446   6.544   1.225
 1562WAT     H2 4929   7.304   6.464   1.240
 1563WAT      O 4930   4.328   7.791   8.974
 1563WAT     H1 4931   4.232   7.771   8.997
 1563WAT     H2 4932   4.333   7.875   8.921
 1564WAT      O 4933   8.673   7.494   3.534
 1564WAT     H1 4934   8.594   7.474   3.592
 1564WAT     H2 4935   8.684   7.594   3.527
 1565WAT      O 4936   6.300   7.284   7.444
 1565WAT     H1 4937   6.239   7.208   7.468
 1565WAT     H2 4938   6.387   7.247   7.412
 1566WAT      O 4939   9.489   0.436   9.356
 1566WAT     H1 4940   9.421   0.471   9.291
 1566WAT     H2 4941   9.542   0.512   9.393
 1567WAT      O 4942   3.271   3.966   9.879
 1567WAT     H1 4943   3.364   3.994   9.856
 1567WAT     H2 4944   3.257   3.973   9.978
 1568WAT      O 4945   0.565   4.296   8.145
 1568WAT     H1 4946   0.498   4.306   8.071
 1568WAT     H2 4947   0.622   4.216   8.128
 1569WAT      O 4948   0.790   1.716   7.610
 1569WAT     H1 4949   0.767   1.659   7.689
 1569WAT     H2 4950   0.818   1.657   7.534
 1570WAT      O 4951   3.310   5.197   7.389
 1570WAT     H1 4952   3.228   5.171   7.440
 1570WAT     H2 4953   3.383   5.221   7.453
 1571WAT      O 4954   5.257   0.115   0.009
 1571WAT     H1 4955   5.271   0.214   0.013
 1571WAT     H2 4956   5.167   0.096  -0.031
 1572WAT      O 4957   2.863   7.137   1.279
 1572WAT     H1 4958   2.821   7.165   1.192
 1572WAT     H2 4959   2.792   7.110   1.343
 1573WAT      O 4960   2.924   1.299   8.583
 1573WAT     H1 4961   2.858   1.307   8.657
 1573WAT     H2 4962   3.003   1.357   8.602
 1574WAT      O 4963   8.988   8.463   4.740
 1574WAT     H1 4964   8.932   8.403   4.683
 1574WAT     H2 4965   8.934   8.495   4.818
 1575WAT      O 4966   8.729   5.866   3.321
 1575WAT     H1 4967   8.657   5.838   3.385
 1575WAT     H2 4968   8.688   5.887   3.233
 1576WAT      O 4969   3.304   5.292   8.713
 1576WAT     H1 4970   3.285   5.388   8.694
 1576WAT     H2 4971   3.220   5.239   8.702
 1577WAT      O 4972   6.999   5.484   4.277
 1577WAT     H1 4973   7.095   5.466   4.297
 1577WAT     H2 4974   6.960   5.407   4.226
 1578WAT      O 4975   0.003   8.375   6.802
 1578WAT     H1 4976   0.098   8.364   6.770
 1578WAT     H2 4977  -0.059   8.370   6.724
 1579WAT      O 4978   3.406   0.370   4.194
 1579WAT     H1 4979   3.472   0.303   4.163
 1579WAT     H2 4980   3.450   0.433   4.259
 1580WAT      O 4981   2.423   6.710   8.587
 1580WAT     H1 4982   2.377   6.774   8.524
 1580WAT     H2 4983   2.494   6.759   8.636
 1581WAT      O 4984   5.683   6.921   6.645
 1581WAT     H1 4985   5.775   6.959   6.635
 1581WAT     H2 4986   5.667   6.898   6.741
 1582WAT      O 4987   8.795   1.212   4.197
 1582WAT     H1 4988   8.700   1.225   4.167
 1582WAT     H2 4989   8.801   1.128   4.252
 1583WAT      O 4990   8.475   1.377   7.343
 1583WAT     H1 4991   8.462   1.278   7.338
 1583WAT     H2 4992   8.503   1.412   7.254
 1584WAT      O 4993   1.474   4.236   1.893
 1584WAT     H1 4994   1.471   4.322   1.842
 1584WAT     H2 4995   1.528   4.169   1.841
 1585WAT      O 4996   0.563   6.957   5.623
 1585WAT     H1 4997   0.576   7.044   5.672
 1585WAT     H2 4998   0.651   6.919   5.598
 1586WAT      O 4999   0.231   5.911   9.305
 1586WAT     H1 5000   0.304   5.893   9.238
 1586WAT     H2 5001   0.158   5.962   9.260
 1587WAT      O 5002   6.892   0.481   6.459
 1587WAT     H1 5003   6.808   0.471   6.405
 1587WAT     H2 5004   6.934   0.569   6.440
 1588WAT      O 5005   4.332   9.112   8.096
 1588WAT     H1 5006   4.245   9.134   8.141
 1588WAT     H2 5007   4.348   9.014   8.100
 1589WAT      O 5008   5.332   2.376   0.855
 1589WAT     H1 5009   5.271   2.334   0.923
 1589WAT     H2 5010   5.314   2.474   0.851
 1590WAT      O 5011   6.883   2.459   0.436
 1590WAT     H1 5012   6.895   2.381   0.498
 1590WAT     H2 5013   6.861   2.541   0.490
 1591WAT      O 5014   7.243   1.703   8.833
 1591WAT     H1 5015   7.323   1.650   8.860
 1591WAT     H2 5016   7.166   1.641   8.814
 1592WAT      O 5017   0.103   7.064   6.547
 1592WAT     H1 5018   0.101   7.090   6.450
 1592WAT     H2 5019   0.010   7.063   6.583
 1593WAT      O 5020   7.196   0.856   0.276
 1593WAT     H1 5021   7.273   0.874   0.338
 1593WAT     H2 5022   7.223   0.878   0.183
 1594WAT      O 5023   8.060   5.887   7.143
 1594WAT     H1 5024   8.095   5.858   7.232
 1594WAT     H2 5025   8.085   5.983   7.127
 1595WAT      O 5026   1.105   3.821   2.285
 1595WAT     H1 5027   1.067   3.738   2.243
 1595WAT     H2 5028   1.051   3.844   2.366
 1596WAT      O 5029   9.847   3.401   7.971
 1596WAT     H1 5030   9.786   3.477   7.993
 1596WAT     H2 5031   9.858   3.395   7.872
 1597WAT      O 5032   7.776   5.744   5.782
 1597WAT     H1 5033   7.806   5.676   5.715
 1597WAT     H2 5034   7.825   5.730   5.868
 1598WAT      O 5035   9.521   9.502   6.248
 1598WAT     H1 5036   9.611   9.467   6.274
 1598WAT     H2 5037   9.524   9.539   6.155
 1599WAT      O 5038   1.746   3.865   8.053
 1599WAT     H1 5039   1.654   3.898   8.029
 1599WAT     H2 5040   1.759   3.871   8.152
 1600WAT      O 5041   2.861   1.692   4.283
 1600WAT     H1 5042   2.883   1.779   4.239
 1600WAT     H2 5043   2.944   1.636   4.289
 1601WAT      O 5044   4.119   4.522   1.413
 1601WAT     H1 5045   4.159   4.527   1.322
 1601WAT     H2 5046   4.095   4.614   1.444
 1602WAT      O 5047   7.685   9.777   4.799
 1602WAT     H1 5048   7.621   9.778   4.722
 1602WAT     H2 5049   7.650   9.836   4.872
 1603WAT      O 5050   8.364   3.330   3.699
 1603WAT     H1 5051   8.333   3.315   3.793
 1603WAT     H2 5052   8.344   3.424   3.671
 1604WAT      O 5053   1.659   8.973   2.485
 1604WAT     H1 5054   1.600   9.040   2.441
 1604WAT     H2 5055   1.622   8.948   2.574
 1605WAT      O 5056   7.538   3.259   3.505
 1605WAT     H1 5057   7.608   3.195   3.538
 1605WAT     H2 5058   7.489   3.218   3.428
 1606WAT      O 5059   3.237   0.712   1.898
 1606WAT     H1 5060   3.261   0.808   1.912
 1606WAT     H2 5061   3.138   0.703   1.886
 1607WAT      O 5062   5.912   8.026   9.645
 1607WAT     H1 5063   5.890   8.070   9.732
 1607WAT     H2 5064   5.978   8.081   9.595
 1608WAT      O 5065   2.321   9.584   4.921
 1608WAT     H1 5066   2.341   9.566   4.824
 1608WAT     H2 5067   2.246   9.526   4.951
 1609WAT      O 5068   9.016   1.709   7.755
 1609WAT     H1 5069   9.031   1.743   7.848
 1609WAT     H2 5070   8.992   1.612   7.758
 1610WAT      O 5071   7.047   7.803   5.644
 1610WAT     H1 5072   7.016   7.867   5.574
 1610WAT     H2 5073   7.128   7.754   5.612
 1611WAT      O 5074   0.435   5.260   3.976
 1611WAT     H1 5075   0.480   5.199   3.911
 1611WAT     H2 5076   0.340   5.230   3.990
 1612WAT      O 5077   5.388   9.038   3.874
 1612WAT     H1 5078   5.365   8.976   3.950
 1612WAT     H2 5079   5.483   9.025   3.849
 1613WAT      O 5080   4.827   5.846   3.667
 1613WAT     H1 5081   4.776   5.932   3.669
 1613WAT     H2 5082   4.809   5.794   3.751
 1614WAT      O 5083   0.937   1.032   4.216
 1614WAT     H1 5084   0.958   1.079   4.131
 1614WAT     H2 5085   0.875   1.088   4.271
 1615WAT      O 5086   8.164   0.578   3.241
 1615WAT     H1 5087   8.108   0.496   3.227
 1615WAT     H2 5088   8.104   0.657   3.251
 1616WAT      O 5089   9.435   7.920   0.916
 1616WAT     H1 5090   9.388   7.999   0.954
 1616WAT     H2 5091   9.402   7.837   0.961
 1617WAT      O 5092   5.330   0.591   6.477
 1617WAT     H1 5093   5.298   0.569   6.569
 1617WAT     H2 5094   5.316   0.513   6.416
 1618WAT      O 5095   0.717   9.219   3.904
 1618WAT     H1 5096   0.633   9.171   3.931
 1618WAT     H2 5097   0.747   9.277   3.980
 1619WAT      O 5098   1.961   8.095   6.289
 1619WAT     H1 5099   1.926   8.016   6.339
 1619WAT     H2 5100   1.987   8.068   6.197
 1620WAT      O 5101   9.569   7.648   6.386
 1620WAT     H1 5102   9.557   7.606   6.476
 1620WAT     H2 5103   9.663   7.680   6.376
 1621WAT      O 5104   0.615   8.529   3.649
 1621WAT     H1 5105   0.670   8.469   3.707
 1621WAT     H2 5106   0.533   8.558   3.699
 1622WAT      O 5107   2.049   9.773   1.425
 1622WAT     H1 5108   2.055   9.695   1.487
 1622WAT     H2 5109   1.954   9.805   1.420
 1623WAT      O 5110   4.467   9.126   9.852
 1623WAT     H1 5111   4.515   9.208   9.882
 1623WAT     H2 5112   4.510   9.046   9.893
 1624WAT      O 5113   0.662   2.843   0.415
 1624WAT     H1 5114   0.680   2.745   0.423
 1624WAT     H2 5115   0.711   2.892   0.487
 1625WAT      O 5116   9.217   6.658   9.593
 1625WAT     H1 5117   9.159   6.703   9.526
 1625WAT     H2 5118   9.161   6.600   9.652
 1626WAT      O 5119   0.559   5.172   8.202
 1626WAT     H1 5120   0.646   5.124   8.197
 1626WAT     H2 5121   0.490   5.112   8.243
 1627WAT      O 5122   8.322   1.001   1.186
 1627WAT     H1 5123   8.355   1.000   1.280
 1627WAT     H2 5124   8.260   1.078   1.173
 1628WAT      O 5125   6.079   5.125   2.990
 1628WAT     H1 5126   6.050   5.214   2.957
 1628WAT     H2 5127   6.044   5.110   3.082
 1629WAT      O 5128   5.802   9.504   2.060
 1629WAT     H1 5129   5.889   9.456   2.052
 1629WAT     H2 5130   5.731   9.450   2.014
 1630WAT      O 5131   5.319   2.627   4.466
 1630WAT     H1 5132   5.364   2.548   4.507
 1630WAT     H2 5133   5.387   2.698   4.446
 1631WAT      O 5134   8.945   6.319   5.892
 1631WAT     H1 5135   8.945   6.221   5.874
 1631WAT     H2 5136   8.859   6.359   5.859
 1632WAT      O 5137   9.510   8.198   4.812
 1632WAT     H1 5138   9.534   8.133   4.884
 1632WAT     H2 5139   9.525   8.155   4.723
 1633WAT      O 5140   9.238   3.162   7.894
 1633WAT     H1 5141   9.207   3.234   7.833
 1633WAT     H2 5142   9.319   3.193   7.944
 1634WAT      O 5143   7.152   0.501   1.766
 1634WAT     H1 5144   7.175   0.417   1.718
 1634WAT     H2 5145   7.113   0.478   1.856
 1635WAT      O 5146   5.336   6.116   8.920
 1635WAT     H1 5147   5.264   6.162   8.972
 1635WAT     H2 5148   5.363   6.032   8.967
 1636WAT      O 5149   8.141   0.964   5.229
 1636WAT     H1 5150   8.106   1.033   5.293
 1636WAT     H2 5151   8.172   1.008   5.145
 1637WAT      O 5152   7.202   0.497   3.380
 1637WAT     H1 5153   7.192   0.593   3.408
 1637WAT     H2 5154   7.297   0.480   3.352
 1638WAT      O 5155   2.482   1.704   8.050
 1638WAT     H1 5156   2.393   1.748   8.046
 1638WAT     H2 5157   2.537   1.746   8.122
 1639WAT      O 5158   9.453   2.063   0.887
 1639WAT     H1 5159   9.403   2.148   0.876
 1639WAT     H2 5160   9.517   2.071   0.963
 1640WAT      O 5161   2.721   6.504   0.577
 1640WAT     H1 5162   2.819   6.522   0.585
 1640WAT     H2 5163   2.705   6.406   0.573
 1641WAT      O 5164   0.311   8.830   3.096
 1641WAT     H1 5165   0.278   8.921   3.071
 1641WAT     H2 5166   0.296   8.815   3.194
 1642WAT      O 5167   0.556   3.659   4.190
 1642WAT     H1 5168   0.550   3.759   4.187
 1642WAT     H2 5169   0.497   3.625   4.263
 1643WAT      O 5170   2.845   3.996   6.727
 1643WAT     H1 5171   2.941   4.024   6.738
 1643WAT     H2 5172   2.841   3.902   6.695
 1644WAT      O 5173   3.605   1.900   2.970
 1644WAT     H1 5174   3.699   1.929   2.988
 1644WAT     H2 5175   3.600   1.800   2.974
 1645WAT      O 5176   5.510   5.892   8.140
 1645WAT     H1 5177   5.419   5.901   8.179
 1645WAT     H2 5178   5.503   5.853   8.048
 1646WAT      O 5179   8.876   6.560   9.040
 1646WAT     H1 5180   8.888   6.533   9.136
 1646WAT     H2 5181   8.944   6.629   9.017
 1647WAT      O 5182   6.714   7.986   3.823
 1647WAT     H1 5183   6.759   7.925   3.889
 1647WAT     H2 5184   6.780   8.013   3.752
 1648WAT      O 5185   3.832   8.843   8.356
 1648WAT     H1 5186   3.762   8.890   8.302
 1648WAT     H2 5187   3.922   8.860   8.314
 1649WAT      O 5188   0.270   0.587   0.712
 1649WAT     H1 5189   0.291   0.684   0.706
 1649WAT     H2 5190   0.318   0.548   0.791
 1650WAT      O 5191   1.269   0.807   2.979
 1650WAT     H1 5192   1.192   0.861   3.012
 1650WAT     H2 5193   1.308   0.754   3.055
 1651WAT      O 5194   4.811   8.127   1.028
 1651WAT     H1 5195   4.882   8.093   1.089
 1651WAT     H2 5196   4.777   8.051   0.972
 1652WAT      O 5197   8.738   9.573   7.598
 1652WAT     H1 5198   8.759   9.626   7.680
 1652WAT     H2 5199   8.810   9.586   7.530
 1653WAT      O 5200   2.437   9.480   6.545
 1653WAT     H1 5201   2.463   9.461   6.639
 1653WAT     H2 5202   2.423   9.394   6.495
 1654WAT      O 5203   2.105   4.168   2.161
 1654WAT     H1 5204   2.186   4.220   2.133
 1654WAT     H2 5205   2.054   4.141   2.079
 1655WAT      O 5206   2.937   1.752   5.710
 1655WAT     H1 5207   2.876   1.687   5.665
 1655WAT     H2 5208   3.031   1.717   5.708
 1656WAT      O 5209   4.989   9.747   7.024
 1656WAT     H1 5210   5.049   9.803   6.966
 1656WAT     H2 5211   4.902   9.733   6.977
 1657WAT      O 5212   5.759   3.078   3.323
 1657WAT     H1 5213   5.827   3.086   3.250
 1657WAT     H2 5214   5.699   2.999   3.304
 1658WAT      O 5215   9.576   4.827   7.229
 1658WAT     H1 5216   9.506   4.758   7.247
 1658WAT     H2 5217   9.651   4.787   7.176
 1659WAT      O 5218   6.046   0.572   3.823
 1659WAT     H1 5219   6.040   0.597   3.727
 1659WAT     H2 5220   6.139   0.588   3.857
 1660WAT      O 5221   6.630   1.107   2.494
 1660WAT     H1 5222   6.618   1.009   2.505
 1660WAT     H2 5223   6.604   1.134   2.401
 1661WAT      O 5224   8.043   5.246   1.630
 1661WAT     H1 5225   7.950   5.251   1.593
 1661WAT     H2 5226   8.053   5.161   1.682
 1662WAT      O 5227   0.274   6.059   8.935
 1662WAT     H1 5228   0.204   6.131   8.941
 1662WAT     H2 5229   0.364   6.102   8.929
 1663WAT      O 5230   1.748   4.679   4.484
 1663WAT     H1 5231   1.726   4.776   4.497
 1663WAT     H2 5232   1.847   4.668   4.476
 1664WAT      O 5233   7.750   5.032   6.606
 1664WAT     H1 5234   7.693   5.108   6.637
 1664WAT     H2 5235   7.845   5.062   6.600
 1665WAT      O 5236   3.437   9.015   5.516
 1665WAT     H1 5237   3.481   9.072   5.446
 1665WAT     H2 5238   3.345   8.989   5.486
 1666WAT      O 5239   7.450   4.928   1.495
 1666WAT     H1 5240   7.474   4.837   1.529
 1666WAT     H2 5241   7.456   4.994   1.569
 1667WAT      O 5242   2.851   8.507   8.495
 1667WAT     H1 5243   2.811   8.446   8.427
 1667WAT     H2 5244   2.949   8.489   8.502
 1668WAT      O 5245   2.934   0.001   8.057
 1668WAT     H1 5246   2.840   0.018   8.086
 1668WAT     H2 5247   2.938  -0.010   7.958
 1669WAT      O 5248   2.781   5.925   6.527
 1669WAT     H1 5249   2.854   5.856   6.521
 1669WAT     H2 5250   2.701   5.893   6.477
 1670WAT      O 5251   3.017   1.225   6.036
 1670WAT     H1 5252   3.116   1.224   6.049
 1670WAT     H2 5253   2.991   1.301   5.978
 1671WAT      O 5254   4.591   2.876   6.686
 1671WAT     H1 5255   4.534   2.905   6.763
 1671WAT     H2 5256   4.535   2.868   6.604
 1672WAT      O 5257   4.042   9.568   3.712
 1672WAT     H1 5258   3.992   9.619   3.642
 1672WAT     H2 5259   4.066   9.478   3.677
 1673WAT      O 5260   0.636   6.383   9.451
 1673WAT     H1 5261   0.669   6.306   9.506
 1673WAT     H2 5262   0.684   6.467   9.478
 1674WAT      O 5263   1.832   5.512   4.441
 1674WAT     H1 5264   1.747   5.551   4.404
 1674WAT     H2 5265   1.876   5.578   4.501
 1675WAT      O 5266   3.849   4.203   7.933
 1675WAT     H1 5267   3.753   4.175   7.934
 1675WAT     H2 5268   3.899   4.151   7.864
 1676WAT      O 5269   2.594   2.829   4.083
 1676WAT     H1 5270   2.688   2.852   4.061
 1676WAT     H2 5271   2.573   2.859   4.176
 1677WAT      O 5272   2.176   4.896   9.103
 1677WAT     H1 5273   2.261   4.930   9.062
 1677WAT     H2 5274   2.198   4.833   9.177
 1678WAT      O 5275   9.735   7.868   8.828
 1678WAT     H1 5276   9.698   7.795   8.770
 1678WAT     H2 5277   9.707   7.957   8.792
 1679WAT      O 5278   3.817   3.458   3.289
 1679WAT     H1 5279   3.773   3.390   3.347
 1679WAT     H2 5280   3.791   3.550   3.320
 1680WAT      O 5281   1.117   8.963   7.988
 1680WAT     H1 5282   1.036   8.949   8.045
 1680WAT     H2 5283   1.152   9.056   8.001
 1681WAT      O 5284   3.898   5.241   2.424
 1681WAT     H1 5285   3.893   5.280   2.515
 1681WAT     H2 5286   3.822   5.176   2.411
 1682WAT      O 5287   0.650   6.792   7.367
 1682WAT     H1 5288   0.735   6.838   7.341
 1682WAT     H2 5289   0.572   6.852   7.347
 1683WAT      O 5290   1.786   0.825   9.826
 1683WAT     H1 5291   1.757   0.835   9.921
 1683WAT     H2 5292   1.810   0.915   9.789
 1684WAT      O 5293   7.374   6.595   4.030
 1684WAT     H1 5294   7.402   6.690   4.017
 1684WAT     H2 5295   7.440   6.535   3.986
 1685WAT      O 5296   5.306   5.939   3.814
 1685WAT     H1 5297   5.297   5.841   3.795
 1685WAT     H2 5298   5.261   5.991   3.740
 1686WAT      O 5299   1.730   7.055   5.180
 1686WAT     H1 5300   1.827   7.038   5.198
 1686WAT     H2 5301   1.700   7.000   5.103
 1687WAT      O 5302   7.704   3.327   0.125
 1687WAT     H1 5303   7.632   3.266   0.094
 1687WAT     H2 5304   7.693   3.417   0.083
 1688WAT      O 5305   3.956   2.148   1.818
 1688WAT     H1 5306   3.928   2.228   1.765
 1688WAT     H2 5307   3.906   2.147   1.905
 1689WAT      O 5308   1.176   8.671   8.114
 1689WAT     H1 5309   1.226   8.706   8.034
 1689WAT     H2 5310   1.186   8.572   8.119
 1690WAT      O 5311   1.104   2.573   9.822
 1690WAT     H1 5312   1.187   2.537   9.781
 1690WAT     H2 5313   1.033   2.582   9.752
 1691WAT      O 5314   5.878   8.978   4.518
 1691WAT     H1 5315   5.780   8.993   4.528
 1691WAT     H2 5316   5.928   9.039   4.579
 1692WAT      O 5317   7.480   7.260   4.141
 1692WAT     H1 5318   7.481   7.263   4.241
 1692WAT     H2 5319   7.514   7.346   4.105
 1693WAT      O 5320   9.348   5.697   7.984
 1693WAT     H1 5321   9.279   5.626   7.965
 1693WAT     H2 5322   9.426   5.684   7.923
 1694WAT      O 5323   4.544   5.164   6.170
 1694WAT     H1 5324   4.530   5.142   6.267
 1694WAT     H2 5325   4.527   5.261   6.155
 1695WAT      O 5326   5.019   2.702   8.699
 1695WAT     H1 5327   4.968   2.684   8.615
 1695WAT     H2 5328   5.008   2.626   8.763
 1696WAT      O 5329   3.393   2.623   8.659
 1696WAT     H1 5330   3.462   2.647   8.591
 1696WAT     H2 5331   3.379   2.701   8.720
 1697WAT      O 5332   8.356   5.689   7.184
 1697WAT     H1 5333   8.280   5.712   7.244
 1697WAT     H2 5334   8.327   5.619   7.118
 1698WAT      O 5335   1.530   8.472   8.127
 1698WAT     H1 5336   1.554   8.556   8.079
 1698WAT     H2 5337   1.431   8.469   8.142
 1699WAT      O 5338   7.328   5.185   8.014
 1699WAT     H1 5339   7.337   5.171   8.113
 1699WAT     H2 5340   7.330   5.097   7.968
 1700WAT      O 5341   2.662   7.554   2.015
 1700WAT     H1 5342   2.586   7.596   2.066
 1700WAT     H2 5343   2.748   7.592   2.049
 1701WAT      O 5344   4.327   4.081   6.812
 1701WAT     H1 5345   4.410   4.030   6.833
 1701WAT     H2 5346   4.328   4.168   6.861
 1702WAT      O 5347   7.049   3.419   5.706
 1702WAT     H1 5348   7.013   3.367   5.783
 1702WAT     H2 5349   6.974   3.465   5.659
 1703WAT      O 5350   3.530   5.715   4.846
 1703WAT     H1 5351   3.570   5.798   4.807
 1703WAT     H2 5352   3.603   5.651   4.869
 1704WAT      O 5353   2.728   4.256   6.903
 1704WAT     H1 5354   2.825   4.252   6.881
 1704WAT     H2 5355   2.684   4.328   6.849
 1705WAT      O 5356   8.245   3.881   3.769
 1705WAT     H1 5357   8.337   3.848   3.790
 1705WAT     H2 5358   8.250   3.976   3.737
 1706WAT      O 5359   4.680   2.145   4.857
 1706WAT     H1 5360   4.603   2.168   4.916
 1706WAT     H2 5361   4.731   2.229   4.837
 1707WAT      O 5362   9.680   4.589   8.084
 1707WAT     H1 5363   9.633   4.576   8.172
 1707WAT     H2 5364   9.612   4.601   8.012
 1708WAT      O 5365   9.098   6.534   8.596
 1708WAT     H1 5366   9.064   6.484   8.676
 1708WAT     H2 5367   9.189   6.502   8.572
 1709WAT      O 5368   4.477   4.755   8.384
 1709WAT     H1 5369   4.384   4.773   8.353
 1709WAT     H2 5370   4.499   4.658   8.370
 1710WAT      O 5371   1.879   7.992   6.638
 1710WAT     H1 5372   1.876   8.045   6.722
 1710WAT     H2 5373   1.970   7.953   6.626
 1711WAT      O 5374   7.354   5.073   2.559
 1711WAT     H1 5375   7.343   5.014   2.639
 1711WAT     H2 5376   7.428   5.038   2.502
 1712WAT      O 5377   0.254   3.743   2.510
 1712WAT     H1 5378   0.200   3.732   2.593
 1712WAT     H2 5379   0.351   3.745   2.533
 1713WAT      O 5380   5.210   5.597   9.462
 1713WAT     H1 5381   5.113   5.616   9.473
 1713WAT     H2 5382   5.246   5.652   9.386
 1714WAT      O 5383   2.917   9.171   5.522
 1714WAT     H1 5384   2.879   9.103   5.585
 1714WAT     H2 5385   2.843   9.230   5.488
 1715WAT      O 5386   7.337   2.650   1.645
 1715WAT     H1 5387   7.301   2.602   1.725
 1715WAT     H2 5388   7.429   2.616   1.625
 1716WAT      O 5389   8.823   3.344   3.918
 1716WAT     H1 5390   8.760   3.268   3.928
 1716WAT     H2 5391   8.892   3.322   3.849
 1717WAT      O 5392   2.570   8.055   5.806
 1717WAT     H1 5393   2.626   8.059   5.723
 1717WAT     H2 5394   2.606   7.985   5.867
 1718WAT      O 5395   0.276   6.397   6.374
 1718WAT     H1 5396   0.238   6.310   6.405
 1718WAT     H2 5397   0.315   6.386   6.283
 1719WAT      O 5398   7.971   3.338   7.711
 1719WAT     H1 5399   7.895   3.273   7.717
 1719WAT     H2 5400   7.966   3.386   7.624
 1720WAT      O 5401   8.128   5.654   8.006
 1720WAT     H1 5402   8.059   5.705   7.957
 1720WAT     H2 5403   8.125   5.678   8.103
 1721WAT      O 5404   2.116   5.112   7.771
 1721WAT     H1 5405   2.046   5.183   7.765
 1721WAT     H2 5406   2.080   5.026   7.734
 1722WAT      O 5407   6.172   2.602   3.275
 1722WAT     H1 5408   6.270   2.587   3.264
 1722WAT     H2 5409   6.156   2.696   3.306
 1723WAT      O 5410   4.955   2.685   9.347
 1723WAT     H1 5411   4.876   2.706   9.289
 1723WAT     H2 5412   4.975   2.587   9.341
 1724WAT      O 5413   6.784   7.054   4.404
 1724WAT     H1 5414   6.846   7.086   4.332
 1724WAT     H2 5415   6.707   7.118   4.413
 1725WAT      O 5416   6.650   4.446   2.399
 1725WAT     H1 5417   6.622   4.391   2.477
 1725WAT     H2 5418   6.675   4.537   2.429
 1726WAT      O 5419   0.274   9.263   9.665
 1726WAT     H1 5420   0.306   9.266   9.759
 1726WAT     H2 5421   0.176   9.249   9.663
 1727WAT      O 5422   9.049   3.776   8.152
 1727WAT     H1 5423   8.961   3.743   8.115
 1727WAT     H2 5424   9.032   3.838   8.228
 1728WAT      O 5425   1.701   5.541   5.368
 1728WAT     H1 5426   1.727   5.478   5.442
 1728WAT     H2 5427   1.680   5.631   5.407
 1729WAT      O 5428   2.892   1.670   8.382
 1729WAT     H1 5429   2.888   1.693   8.479
 1729WAT     H2 5430   2.862   1.576   8.369
 1730WAT      O 5431   1.171   5.047   2.276
 1730WAT     H1 5432   1.188   5.115   2.204
 1730WAT     H2 5433   1.082   5.003   2.260
 1731WAT      O 5434   8.313   6.343   1.550
 1731WAT     H1 5435   8.289   6.277   1.479
 1731WAT     H2 5436   8.340   6.429   1.507
 1732WAT      O 5437   3.859   3.072   6.998
 1732WAT     H1 5438   3.769   3.116   6.992
 1732WAT     H2 5439   3.857   2.985   6.949
 1733WAT      O 5440   6.385   4.670   5.628
 1733WAT     H1 5441   6.288   4.653   5.645
 1733WAT     H2 5442   6.435   4.666   5.715
 1734WAT      O 5443   0.474   0.896   4.605
 1734WAT     H1 5444   0.383   0.928   4.633
 1734WAT     H2 5445   0.515   0.843   4.680
 1735WAT      O 5446   8.636   4.800   9.868
 1735WAT     H1 5447   8.537   4.807   9.869
 1735WAT     H2 5448   8.670   4.819   9.776
 1736WAT      O 5449   2.936   9.415   1.191
 1736WAT     H1 5450   3.008   9.346   1.184
 1736WAT     H2 5451   2.884   9.400   1.275
 1737WAT      O 5452   2.109   4.341   6.258
 1737WAT     H1 5453   2.062   4.259   6.225
 1737WAT     H2 5454   2.089   4.417   6.196
 1738WAT      O 5455   3.691   8.689   0.227
 1738WAT     H1 5456   3.781   8.734   0.223
 1738WAT     H2 5457   3.620   8.758   0.235
 1739WAT      O 5458   0.035   3.567   0.681
 1739WAT     H1 5459  -0.010   3.645   0.723
 1739WAT     H2 5460  -0.033   3.501   0.651
 1740WAT      O 5461   2.184   7.881   7.461
 1740WAT     H1 5462   2.281   7.888   7.437
 1740WAT     H2 5463   2.173   7.815   7.536
 1741WAT      O 5464   6.546   6.421   3.654
 1741WAT     H1 5465   6.483   6.349   3.685
 1741WAT     H2 5466   6.501   6.510   3.659
 1742WAT      O 5467   9.516   7.209   1.186
 1742WAT     H1 5468   9.431   7.251   1.154
 1742WAT     H2 5469   9.519   7.113   1.157
 1743WAT      O 5470   8.421   9.067   1.635
 1743WAT     H1 5471   8.327   9.091   1.611
 1743WAT     H2 5472   8.483   9.139   1.604
 1744WAT      O 5473   4.768   7.352   3.295
 1744WAT     H1 5474   4.866   7.365   3.306
 1744WAT     H2 5475   4.738   7.275   3.353
 1745WAT      O 5476   6.833   0.230   9.229
 1745WAT     H1 5477   6.866   0.324   9.216
 1745WAT     H2 5478   6.770   0.207   9.154
 1746WAT      O 5479   1.170   4.789   6.801
 1746WAT     H1 5480   1.268   4.777   6.816
 1746WAT     H2 5481   1.150   4.885   6.782
 1747WAT      O 5482   2.936   3.733   6.618
 1747WAT     H1 5483   2.910   3.679   6.537
 1747WAT     H2 5484   3.013   3.792   6.594
 1748WAT      O 5485   0.899   8.835   0.421
 1748WAT     H1 5486   0.891   8.751   0.368
 1748WAT     H2 5487   0.996   8.853   0.441
 1749WAT      O 5488   3.377   2.509   3.597
 1749WAT     H1 5489   3.300   2.509   3.661
 1749WAT     H2 5490   3.350   2.462   3.513
 1750WAT      O 5491   0.700   9.163   6.447
 1750WAT     H1 5492   0.707   9.074   6.492
 1750WAT     H2 5493   0.636   9.157   6.371
 1751WAT      O 5494   2.852   2.066   3.696
 1751WAT     H1 5495   2.930   2.058   3.634
 1751WAT     H2 5496   2.779   2.005   3.666
 1752WAT      O 5497   2.177   1.809   9.285
 1752WAT     H1 5498   2.221   1.738   9.340
 1752WAT     H2 5499   2.208   1.899   9.316
 1753WAT      O 5500   9.288   2.385   2.794
 1753WAT     H1 5501   9.236   2.329   2.730
 1753WAT     H2 5502   9.249   2.477   2.797
 1754WAT      O 5503   1.990   7.424   0.280
 1754WAT     H1 5504   2.085   7.402   0.255
 1754WAT     H2 5505   1.965   7.374   0.362
 1755WAT      O 5506   0.286   0.735   6.430
 1755WAT     H1 5507   0.304   0.830   6.404
 1755WAT     H2 5508   0.361   0.677   6.398
 1756WAT      O 5509   6.873   5.007   7.174
 1756WAT     H1 5510   6.864   5.005   7.274
 1756WAT     H2 5511   6.956   5.058   7.150
 1757WAT      O 5512   2.861   1.463   4.030
 1757WAT     H1 5513   2.957   1.493   4.026
 1757WAT     H2 5514   2.854   1.379   4.083
 1758WAT      O 5515   4.505   0.690   7.094
 1758WAT     H1 5516   4.570   0.620   7.065
 1758WAT     H2 5517   4.549   0.780   7.094
 1759WAT      O 5518   1.693   9.260   7.803
 1759WAT     H1 5519   1.789   9.272   7.779
 1759WAT     H2 5520   1.684   9.249   7.902
 1760WAT      O 5521   3.400   7.699   4.599
 1760WAT     H1 5522   3.365   7.732   4.512
 1760WAT     H2 5523   3.450   7.613   4.584
 1761WAT      O 5524   7.493   1.671   6.369
 1761WAT     H1 5525   7.590   1.659   6.394
 1761WAT     H2 5526   7.436   1.651   6.448
 1762WAT      O 5527   4.417   9.612   5.319
 1762WAT     H1 5528   4.507   9.588   5.355
 1762WAT     H2 5529   4.353   9.626   5.395
 1763WAT      O 5530   6.434   7.070   0.882
 1763WAT     H1 5531   6.385   7.138   0.828
 1763WAT     H2 5532   6.517   7.111   0.919
 1764WAT      O 5533   9.138   5.143   6.661
 1764WAT     H1 5534   9.105   5.202   6.588
 1764WAT     H2 5535   9.168   5.056   6.622
 1765WAT      O 5536   8.560   9.370   9.594
 1765WAT     H1 5537   8.543   9.382   9.692
 1765WAT     H2 5538   8.484   9.319   9.553
 1766WAT      O 5539   9.111   9.546   6.549
 1766WAT     H1 5540   9.087   9.450   6.540
 1766WAT     H2 5541   9.197   9.554   6.600
 1767WAT      O 5542   2.899   8.259   1.098
 1767WAT     H1 5543   2.863   8.346   1.065
 1767WAT     H2 5544   2.870   8.245   1.193
 1768WAT      O 5545   7.215   9.283   8.797
 1768WAT     H1 5546   7.308   9.283   8.761
 1768WAT     H2 5547   7.182   9.189   8.802
 1769WAT      O 5548   4.323   5.302   2.448
 1769WAT     H1 5549   4.285   5.385   2.490
 1769WAT     H2 5550   4.422   5.299   2.464
 1770WAT      O 5551   5.663   9.835   8.007
 1770WAT     H1 5552   5.730   9.777   7.960
 1770WAT     H2 5553   5.622   9.898   7.942
 1771WAT      O 5554   1.323   8.219   8.832
 1771WAT     H1 5555   1.326   8.221   8.932
 1771WAT     H2 5556   1.404   8.171   8.797
 1772WAT      O 5557   4.411   7.220   7.328
 1772WAT     H1 5558   4.406   7.310   7.371
 1772WAT     H2 5559   4.427   7.150   7.397
 1773WAT      O 5560   2.203   9.677   1.228
 1773WAT     H1 5561   2.138   9.721   1.291
 1773WAT     H2 5562   2.288   9.731   1.226
 1774WAT      O 5563   9.256   5.766   2.687
 1774WAT     H1 5564   9.320   5.838   2.715
 1774WAT     H2 5565   9.166   5.806   2.671
 1775WAT      O 5566   0.362   4.610   3.703
 1775WAT     H1 5567   0.263   4.611   3.690
 1775WAT     H2 5568   0.395   4.516   3.706
 1776WAT      O 5569   8.324   9.040   5.993
 1776WAT     H1 5570   8.336   8.997   6.083
 1776WAT     H2 5571   8.271   9.124   6.003
 1777WAT      O 5572   8.492   3.281   0.865
 1777WAT     H1 5573   8.513   3.344   0.940
 1777WAT     H2 5574   8.441   3.203   0.901
 1778WAT      O 5575   4.181   2.220   3.768
 1778WAT     H1 5576   4.088   2.196   3.796
 1778WAT     H2 5577   4.193   2.319   3.775
 1779WAT      O 5578   6.198   7.388   7.008
 1779WAT     H1 5579   6.181   7.470   6.954
 1779WAT     H2 5580   6.185   7.408   7.105
 1780WAT      O 5581   8.527   0.827   1.829
 1780WAT     H1 5582   8.494   0.903   1.773
 1780WAT     H2 5583   8.452   0.790   1.883
 1781WAT      O 5584   4.104   8.343   3.237
 1781WAT     H1 5585   4.087   8.406   3.313
 1781WAT     H2 5586   4.172   8.275   3.265
 1782WAT      O 5587   8.787   7.545   4.907
 1782WAT     H1 5588   8.830   7.543   4.817
 1782WAT     H2 5589   8.737   7.460   4.923
 1783WAT      O 5590   9.227   3.345   8.371
 1783WAT     H1 5591   9.189   3.253   8.377
 1783WAT     H2 5592   9.209   3.394   8.456
 1784WAT      O 5593   1.202   3.532   6.313
 1784WAT     H1 5594   1.206   3.632   6.317
 1784WAT     H2 5595   1.114   3.504   6.275
 1785WAT      O 5596   1.860   9.836   4.884
 1785WAT     H1 5597   1.897   9.896   4.814
 1785WAT     H2 5598   1.935   9.786   4.928
 1786WAT      O 5599   2.583   9.324   5.696
 1786WAT     H1 5600   2.607   9.312   5.599
 1786WAT     H2 5601   2.513   9.258   5.721
 1787WAT      O 5602   1.582   5.893   1.381
 1787WAT     H1 5603   1.570   5.896   1.480
 1787WAT     H2 5604   1.647   5.819   1.358
 1788WAT      O 5605   3.790   1.350   3.357
 1788WAT     H1 5606   3.883   1.346   3.392
 1788WAT     H2 5607   3.735   1.410   3.416
 1789WAT      O 5608   8.256   1.828   9.108
 1789WAT     H1 5609   8.338   1.794   9.061
 1789WAT     H2 5610   8.237   1.771   9.187
 1790WAT      O 5611   9.308   7.710   7.601
 1790WAT     H1 5612   9.271   7.794   7.642
 1790WAT     H2 5613   9.237   7.640   7.597
 1791WAT      O 5614   9.214   1.596   1.377
 1791WAT     H1 5615   9.303   1.568   1.412
 1791WAT     H2 5616   9.206   1.568   1.281
 1792WAT      O 5617   6.485   6.249   6.012
 1792WAT     H1 5618   6.497   6.327   6.072
 1792WAT     H2 5619   6.401   6.201   6.036
 1793WAT      O 5620   9.188   9.503   4.513
 1793WAT     H1 5621   9.199   9.600   4.534
 1793WAT     H2 5622   9.091   9.480   4.515
 1794WAT      O 5623   0.155   5.602   8.206
 1794WAT     H1 5624   0.210   5.681   8.177
 1794WAT     H2 5625   0.059   5.628   8.213
 1795WAT      O 5626   0.209   2.801   6.914
 1795WAT     H1 5627   0.209   2.897   6.943
 1795WAT     H2 5628   0.300   2.776   6.883
 1796WAT      O 5629   5.365   7.631   2.200
 1796WAT     H1 5630   5.376   7.533   2.183
 1796WAT     H2 5631   5.362   7.680   2.113
 1797WAT      O 5632   6.902   6.394   2.048
 1797WAT     H1 5633   6.918   6.401   2.146
 1797WAT     H2 5634   6.814   6.350   2.031
 1798WAT      O 5635   3.245   9.132   5.226
 1798WAT     H1 5636   3.297   9.213   5.200
 1798WAT     H2 5637   3.169   9.119   5.162
 1799WAT      O 5638   4.635   6.895   5.694
 1799WAT     H1 5639   4.588   6.971   5.739
 1799WAT     H2 5640   4.734   6.909   5.702
 1800WAT      O 5641   1.221   5.965   2.259
 1800WAT     H1 5642   1.313   5.960   2.220
 1800WAT     H2 5643   1.209   6.054   2.303
 1801WAT      O 5644   7.038   0.794   7.850
 1801WAT     H1 5645   7.030   0.838   7.940
 1801WAT     H2 5646   6.957   0.813   7.796
 1802WAT      O 5647   1.973   7.833   9.727
 1802WAT     H1 5648   1.985   7.749   9.779
 1802WAT     H2 5649   1.992   7.815   9.630
 1803WAT      O 5650   0.707   5.623   7.943
 1803WAT     H1 5651   0.643   5.691   7.979
 1803WAT     H2 5652   0.798   5.640   7.981
 1804WAT      O 5653   8.212   4.808   2.293
 1804WAT     H1 5654   8.116   4.812   2.266
 1804WAT     H2 5655   8.223   4.845   2.385
 1805WAT      O 5656   1.609   5.164   5.246
 1805WAT     H1 5657   1.694   5.148   5.296
 1805WAT     H2 5658   1.610   5.112   5.161
 1806WAT      O 5659   5.674   8.178   3.376
 1806WAT     H1 5660   5.762   8.133   3.387
 1806WAT     H2 5661   5.628   8.184   3.465
 1807WAT      O 5662   3.687   5.577   7.545
 1807WAT     H1 5663   3.727   5.517   7.475
 1807WAT     H2 5664   3.752   5.588   7.620
 1808WAT      O 5665   6.917   7.963   9.361
 1808WAT     H1 5666   6.832   7.928   9.402
 1808WAT     H2 5667   6.978   7.886   9.341
 1809WAT      O 5668   2.845   4.872   8.149
 1809WAT     H1 5669   2.820   4.913   8.062
 1809WAT     H2 5670   2.791   4.789   8.164
 1810WAT      O 5671   7.157   6.534   6.562
 1810WAT     H1 5672   7.191   6.446   6.594
 1810WAT     H2 5673   7.077   6.561   6.616
 1811WAT      O 5674   3.311   8.874   8.259
 1811WAT     H1 5675   3.326   8.914   8.350
 1811WAT     H2 5676   3.241   8.803   8.265
 1812WAT      O 5677   1.361   4.446   8.308
 1812WAT     H1 5678   1.292   4.374   8.309
 1812WAT     H2 5679   1.441   4.415   8.360
 1813WAT      O 5680   0.956   2.320   0.602
 1813WAT     H1 5681   0.942   2.385   0.528
 1813WAT     H2 5682   0.942   2.227   0.567
 1814WAT      O 5683   6.167   2.125   6.136
 1814WAT     H1 5684   6.206   2.179   6.062
 1814WAT     H2 5685   6.189   2.168   6.224
 1815WAT      O 5686   5.951   2.829   6.605
 1815WAT     H1 5687   5.925   2.886   6.683
 1815WAT     H2 5688   6.036   2.782   6.626
 1816WAT      O 5689   3.041   7.644   7.940
 1816WAT     H1 5690   2.978   7.608   8.008
 1816WAT     H2 5691   2.994   7.713   7.884
 1817WAT      O 5692   0.578   3.286   8.233
 1817WAT     H1 5693   0.647   3.234   8.184
 1817WAT     H2 5694   0.593   3.384   8.218
 1818WAT      O 5695   0.554   8.994   4.258
 1818WAT     H1 5696   0.484   9.064   4.243
 1818WAT     H2 5697   0.556   8.970   4.355
 1819WAT      O 5698   7.365   7.277   0.800
 1819WAT     H1 5699   7.327   7.219   0.872
 1819WAT     H2 5700   7.459   7.249   0.782
 1820WAT      O 5701   4.467   3.995   9.831
 1820WAT     H1 5702   4.447   3.911   9.882
 1820WAT     H2 5703   4.566   4.013   9.835
 1821WAT      O 5704   1.266   8.272   5.995
 1821WAT     H1 5705   1.244   8.288   6.091
 1821WAT     H2 5706   1.185   8.237   5.947
 1822WAT      O 5707   4.309   9.285   2.071
 1822WAT     H1 5708   4.380   9.352   2.048
 1822WAT     H2 5709   4.323   9.201   2.019
 1823WAT      O 5710   3.906   1.968   9.694
 1823WAT     H1 5711   3.861   1.987   9.781
 1823WAT     H2 5712   3.907   2.052   9.639
 1824WAT      O 5713   9.839   0.763   2.794
 1824WAT     H1 5714   9.869   0.668   2.804
 1824WAT     H2 5715   9.881   0.803   2.713
 1825WAT      O 5716   7.296   0.522   1.050
 1825WAT     H1 5717   7.383   0.477   1.072
 1825WAT     H2 5718   7.276   0.591   1.119
 1826WAT      O 5719   6.092   4.101   1.524
 1826WAT     H1 5720   6.038   4.100   1.608
 1826WAT     H2 5721   6.105   4.195   1.494
 1827WAT      O 5722   7.208   5.981   4.012
 1827WAT     H1 5723   7.182   5.993   4.108
 1827WAT     H2 5724   7.205   6.069   3.965
 1828WAT      O 5725   5.534   2.310   3.879
 1828WAT     H1 5726   5.594   2.361   3.941
 1828WAT     H2 5727   5.440   2.317   3.911
 1829WAT      O 5728   7.053   6.957   8.322
 1829WAT     H1 5729   6.992   6.890   8.278
 1829WAT     H2 5730   7.023   7.050   8.298
 1830WAT      O 5731   1.120   9.369   1.649
 1830WAT     H1 5732   1.203   9.340   1.696
 1830WAT     H2 5733   1.081   9.291   1.599
 1831WAT      O 5734   0.926   5.825   9.830
 1831WAT     H1 5735   0.851   5.806   9.894
 1831WAT     H2 5736   0.960   5.918   9.845
 1832WAT      O 5737   4.521   2.731   3.150
 1832WAT     H1 5738   4.511   2.688   3.060
 1832WAT     H2 5739   4.465   2.814   3.154
 1833WAT      O 5740   3.333   3.833   6.826
 1833WAT     H1 5741   3.291   3.797   6.743
 1833WAT     H2 5742   3.431   3.817   6.824
 1834WAT      O 5743   6.589   6.479   6.125
 1834WAT     H1 5744   6.572   6.491   6.223
 1834WAT     H2 5745   6.687   6.486   6.107
 1835WAT      O 5746   4.518   6.095   0.129
 1835WAT     H1 5747   4.614   6.089   0.156
 1835WAT     H2 5748   4.486   6.189   0.141
 1836WAT      O 5749   0.644   9.013   1.632
 1836WAT     H1 5750   0.699   8.962   1.566
 1836WAT     H2 5751   0.556   9.036   1.591
 1837WAT      O 5752   9.659   6.673   3.584
 1837WAT     H1 5753   9.593   6.747   3.588
 1837WAT     H2 5754   9.674   6.646   3.489
 1838WAT      O 5755   8.913   2.508   3.427
 1838WAT     H1 5756   8.863   2.423   3.415
 1838WAT     H2 5757   8.925   2.553   3.338
 1839WAT      O 5758   7.087   7.106   9.863
 1839WAT     H1 5759   7.146   7.181   9.834
 1839WAT     H2 5760   7.117   7.021   9.820
 1840WAT      O 5761   9.207   2.681   8.071
 1840WAT     H1 5762   9.158   2.649   7.990
 1840WAT     H2 5763   9.142   2.697   8.146
 1841WAT      O 5764   2.379   9.276   6.340
 1841WAT     H1 5765   2.315   9.205   6.369
 1841WAT     H2 5766   2.342   9.325   6.261
 1842WAT      O 5767   4.484   5.117   7.157
 1842WAT     H1 5768   4.477   5.127   7.257
 1842WAT     H2 5769   4.429   5.039   7.128
 1843WAT      O 5770   9.795   7.430   3.581
 1843WAT     H1 5771   9.810   7.416   3.483
 1843WAT     H2 5772   9.769   7.343   3.623
 1844WAT      O 5773   2.987   4.737   5.583
 1844WAT     H1 5774   3.016   4.749   5.487
 1844WAT     H2 5775   3.063   4.764   5.643
 1845WAT      O 5776   1.244   1.969   7.201
 1845WAT     H1 5777   1.317   2.008   7.257
 1845WAT     H2 5778   1.160   2.021   7.215
 1846WAT      O 5779   8.916   3.873   2.004
 1846WAT     H1 5780   8.976   3.952   1.993
 1846WAT     H2 5781   8.849   3.891   2.075
 1847WAT      O 5782   7.050   8.334   9.278
 1847WAT     H1 5783   7.038   8.282   9.363
 1847WAT     H2 5784   7.099   8.419   9.298
 1848WAT      O 5785   1.127   1.085   6.635
 1848WAT     H1 5786   1.117   1.180   6.605
 1848WAT     H2 5787   1.080   1.073   6.723
 1849WAT      O 5788   9.042   4.194   3.868
 1849WAT     H1 5789   9.046   4.095   3.873
 1849WAT     H2 5790   8.954   4.223   3.832
 1850WAT      O 5791   4.660   9.320   5.025
 1850WAT     H1 5792   4.724   9.371   5.082
 1850WAT     H2 5793   4.656   9.225   5.056
 1851WAT      O 5794   8.208   8.690   7.059
 1851WAT     H1 5795   8.140   8.619   7.075
 1851WAT     H2 5796   8.181   8.745   6.980
 1852WAT      O 5797   4.783   3.350   7.827
 1852WAT     H1 5798   4.814   3.360   7.733
 1852WAT     H2 5799   4.752   3.439   7.862
 1853WAT      O 5800   6.598   4.923   2.373
 1853WAT     H1 5801   6.523   4.936   2.308
 1853WAT     H2 5802   6.642   5.011   2.391
 1854WAT      O 5803   1.593   5.231   3.506
 1854WAT     H1 5804   1.578   5.317   3.457
 1854WAT     H2 5805   1.674   5.186   3.468
 1855WAT      O 5806   4.053   1.923   9.411
 1855WAT     H1 5807   4.122   1.854   9.433
 1855WAT     H2 5808   4.086   2.013   9.440
 1856WAT      O 5809   0.294   4.154   0.793
 1856WAT     H1 5810   0.270   4.240   0.838
 1856WAT     H2 5811   0.381   4.164   0.746
 1857WAT      O 5812   8.379   3.355   2.047
 1857WAT     H1 5813   8.457   3.321   2.099
 1857WAT     H2 5814   8.382   3.455   2.044
 1858WAT      O 5815   0.879   3.182   6.548
 1858WAT     H1 5816   0.864   3.102   6.491
 1858WAT     H2 5817   0.905   3.153   6.640
 1859WAT      O 5818   8.544   6.932   4.301
 1859WAT     H1 5819   8.540   6.996   4.377
 1859WAT     H2 5820   8.508   6.843   4.330
 1860WAT      O 5821   5.153   3.077   4.824
 1860WAT     H1 5822   5.127   2.983   4.803
 1860WAT     H2 5823   5.131   3.135   4.746
 1861WAT      O 5824   7.714   7.468   3.652
 1861WAT     H1 5825   7.743   7.373   3.657
 1861WAT     H2 5826   7.672   7.486   3.562
 1862WAT      O 5827   9.477   4.767   5.077
 1862WAT     H1 5828   9.392   4.724   5.107
 1862WAT     H2 5829   9.510   4.829   5.149
 1863WAT      O 5830   9.167   0.890   4.317
 1863WAT     H1 5831   9.250   0.837   4.336
 1863WAT     H2 5832   9.141   0.879   4.221
 1864WAT      O 5833   6.125   3.019   9.663
 1864WAT     H1 5834   6.054   3.088   9.649
 1864WAT     H2 5835   6.129   2.959   9.583
 1865WAT      O 5836   9.543   3.168   3.780
 1865WAT     H1 5837   9.556   3.185   3.877
 1865WAT     H2 5838   9.622   3.202   3.729
 1866WAT      O 5839   7.310   8.155   0.026
 1866WAT     H1 5840   7.272   8.087   0.089
 1866WAT     H2 5841   7.396   8.189   0.063
 1867WAT      O 5842   6.764   7.465   5.055
 1867WAT     H1 5843   6.698   7.535   5.028
 1867WAT     H2 5844   6.745   7.380   5.006
 1868WAT      O 5845   3.479   1.573   2.760
 1868WAT     H1 5846   3.486   1.490   2.815
 1868WAT     H2 5847   3.554   1.575   2.693
 1869WAT      O 5848   6.779   6.840   3.772
 1869WAT     H1 5849   6.821   6.927   3.798
 1869WAT     H2 5850   6.682   6.855   3.750
 1870WAT      O 5851   3.021   1.533   9.756
 1870WAT     H1 5852   2.993   1.628   9.739
 1870WAT     H2 5853   3.118   1.524   9.738
 1871WAT      O 5854   3.132   3.236   6.182
 1871WAT     H1 5855   3.121   3.335   6.193
 1871WAT     H2 5856   3.228   3.212   6.198
 1872WAT      O 5857   3.123   9.010   1.466
 1872WAT     H1 5858   3.213   8.980   1.500
 1872WAT     H2 5859   3.052   8.963   1.518
 1873WAT      O 5860   4.118   8.012   0.822
 1873WAT     H1 5861   4.217   7.998   0.821
 1873WAT     H2 5862   4.097   8.092   0.878
 1874WAT      O 5863   0.066   3.230   6.330
 1874WAT     H1 5864   0.055   3.327   6.310
 1874WAT     H2 5865   0.134   3.190   6.269
 1875WAT      O 5866   2.062   2.348   7.159
 1875WAT     H1 5867   2.073   2.353   7.258
 1875WAT     H2 5868   2.040   2.255   7.132
 1876WAT      O 5869   8.355   2.105   9.244
 1876WAT     H1 5870   8.322   2.057   9.326
 1876WAT     H2 5871   8.279   2.120   9.181
 1877WAT      O 5872   8.710   2.519   4.856
 1877WAT     H1 5873   8.633   2.465   4.890
 1877WAT     H2 5874   8.708   2.610   4.898
 1878WAT      O 5875   7.058   4.071   7.906
 1878WAT     H1 5876   7.117   4.044   7.981
 1878WAT     H2 5877   6.964   4.080   7.938
 1879WAT      O 5878   0.750   5.726   8.352
 1879WAT     H1 5879   0.658   5.705   8.321
 1879WAT     H2 5880   0.798   5.642   8.375
 1880WAT      O 5881   9.415   2.016   1.863
 1880WAT     H1 5882   9.452   2.080   1.796
 1880WAT     H2 5883   9.341   1.963   1.822
 1881WAT      O 5884   6.223   1.978   5.450
 1881WAT     H1 5885   6.225   2.057   5.389
 1881WAT     H2 5886   6.227   2.010   5.545
 1882WAT      O 5887   7.463   0.063   9.277
 1882WAT     H1 5888   7.481   0.052   9.179
 1882WAT     H2 5889   7.459  -0.028   9.320
 1883WAT      O 5890   0.364   7.814   9.797
 1883WAT     H1 5891   0.375   7.736   9.735
 1883WAT     H2 5892   0.377   7.899   9.746
 1884WAT      O 5893   7.377   7.489   1.959
 1884WAT     H1 5894   7.386   7.500   2.058
 1884WAT     H2 5895   7.424   7.406   1.930
 1885WAT      O 5896   8.185   8.850   2.257
 1885WAT     H1 5897   8.141   8.869   2.169
 1885WAT     H2 5898   8.115   8.822   2.324
 1886WAT      O 5899   1.673   2.102   0.980
 1886WAT     H1 5900   1.611   2.038   1.026
 1886WAT     H2 5901   1.620   2.173   0.933
 1887WAT      O 5902   2.441   5.514   7.131
 1887WAT     H1 5903   2.387   5.549   7.054
 1887WAT     H2 5904   2.395   5.534   7.217
 1888WAT      O 5905   0.739   3.451   4.166
 1888WAT     H1 5906   0.734   3.431   4.068
 1888WAT     H2 5907   0.696   3.539   4.184
 1889WAT      O 5908   1.202   8.700   6.184
 1889WAT     H1 5909   1.217   8.776   6.248
 1889WAT     H2 5910   1.291   8.664   6.154
 1890WAT      O 5911   9.458   6.066   8.929
 1890WAT     H1 5912   9.433   6.123   9.008
 1890WAT     H2 5913   9.521   6.117   8.871
 1891WAT      O 5914   6.727   5.285   5.874
 1891WAT     H1 5915   6.705   5.269   5.778
 1891WAT     H2 5916   6.809   5.234   5.899
 1892WAT      O 5917   4.216   5.078   3.341
 1892WAT     H1 5918   4.198   5.062   3.438
 1892WAT     H2 5919   4.156   5.151   3.308
 1893WAT      O 5920   1.490   1.543   1.375
 1893WAT     H1 5921   1.452   1.561   1.284
 1893WAT     H2 5922   1.576   1.593   1.386
 1894WAT      O 5923   6.560   9.151   1.524
 1894WAT     H1 5924   6.583   9.217   1.453
 1894WAT     H2 5925   6.507   9.076   1.485
 1895WAT      O 5926   0.329   1.733   9.445
 1895WAT     H1 5927   0.230   1.736   9.436
 1895WAT     H2 5928   0.358   1.640   9.465
 1896WAT      O 5929   3.236   6.337   3.650
 1896WAT     H1 5930   3.288   6.254   3.630
 1896WAT     H2 5931   3.255   6.367   3.744
 1897WAT      O 5932   3.269   0.399   4.639
 1897WAT     H1 5933   3.268   0.470   4.709
 1897WAT     H2 5934   3.264   0.309   4.683
 1898WAT      O 5935   0.295   2.351   3.541
 1898WAT     H1 5936   0.386   2.315   3.561
 1898WAT     H2 5937   0.226   2.294   3.585
 1899WAT      O 5938   0.812   4.517   0.683
 1899WAT     H1 5939   0.759   4.462   0.747
 1899WAT     H2 5940   0.900   4.543   0.724
 1900WAT      O 5941   8.000   4.131   4.903
 1900WAT     H1 5942   7.971   4.166   4.992
 1900WAT     H2 5943   8.100   4.133   4.897
 1901WAT      O 5944   6.376   7.926   0.683
 1901WAT     H1 5945   6.475   7.944   0.679
 1901WAT     H2 5946   6.356   7.868   0.762
 1902WAT      O 5947   9.423   9.357   6.908
 1902WAT     H1 5948   9.505   9.400   6.943
 1902WAT     H2 5949   9.379   9.304   6.981
 1903WAT      O 5950   0.516   0.825   1.891
 1903WAT     H1 5951   0.429   0.834   1.843
 1903WAT     H2 5952   0.503   0.769   1.973
 1904WAT      O 5953   7.220   2.171   3.534
 1904WAT     H1 5954   7.178   2.259   3.515
 1904WAT     H2 5955   7.169   2.099   3.487
 1905WAT      O 5956   0.721   3.733   2.324
 1905WAT     H1 5957   0.653   3.756   2.393
 1905WAT     H2 5958   0.812   3.758   2.358
 1906WAT      O 5959   2.604   8.126   0.726
 1906WAT     H1 5960   2.619   8.078   0.640
 1906WAT     H2 5961   2.532   8.080   0.778
 1907WAT      O 5962   3.370   4.039   2.109
 1907WAT     H1 5963   3.317   4.096   2.046
 1907WAT     H2 5964   3.317   3.957   2.132
 1908WAT      O 5965   2.939   8.462   1.823
 1908WAT     H1 5966   3.009   8.533   1.822
 1908WAT     H2 5967   2.892   8.463   1.912
 1909WAT      O 5968   0.236   8.669   5.102
 1909WAT     H1 5969   0.139   8.672   5.127
 1909WAT     H2 5970   0.246   8.618   5.017
 1910WAT      O 5971   6.649   5.986   2.383
 1910WAT     H1 5972   6.568   5.984   2.326
 1910WAT     H2 5973   6.725   5.943   2.335
 1911WAT      O 5974   5.336   1.508   8.973
 1911WAT     H1 5975   5.426   1.463   8.971
 1911WAT     H2 5976   5.309   1.532   8.880
 1912WAT      O 5977   0.742   5.827   0.921
 1912WAT     H1 5978   0.668   5.864   0.865
 1912WAT     H2 5979   0.729   5.858   1.016
 1913WAT      O 5980   9.077   4.208   8.686
 1913WAT     H1 5981   8.985   4.172   8.668
 1913WAT     H2 5982   9.110   4.172   8.773
 1914WAT      O 5983   3.623   6.218   0.753
 1914WAT     H1 5984   3.563   6.275   0.809
 1914WAT     H2 5985   3.573   6.138   0.721
 1915WAT      O 5986   8.928   9.111   4.092
 1915WAT     H1 5987   9.015   9.095   4.139
 1915WAT     H2 5988   8.937   9.188   4.029
 1916WAT      O 5989   5.868   7.071   9.465
 1916WAT     H1 5990   5.929   6.994   9.483
 1916WAT     H2 5991   5.800   7.044   9.398
 1917WAT      O 5992   8.424   1.103   5.808
 1917WAT     H1 5993   8.521   1.121   5.793
 1917WAT     H2 5994   8.411   1.005   5.826
 1918WAT      O 5995   9.701   0.736   3.738
 1918WAT     H1 5996   9.628   0.765   3.677
 1918WAT     H2 5997   9.671   0.657   3.791
 1919WAT      O 5998   8.999   7.106   5.796
 1919WAT     H1 5999   9.093   7.138   5.799
 1919WAT     H2 6000   8.998   7.006   5.796
 1920WAT      O 6001   1.574   0.895   6.836
 1920WAT     H1 6002   1.507   0.935   6.774
 1920WAT     H2 6003   1.633   0.833   6.784
 1921WAT      O 6004   0.308   5.327   9.150
 1921WAT     H1 6005   0.315   5.267   9.070
 1921WAT     H2 6006   0.227   5.303   9.203
 1922WAT      O 6007   9.668   8.548   5.796
 1922WAT     H1 6008   9.660   8.467   5.737
 1922WAT     H2 6009   9.715   8.522   5.881
 1923WAT      O 6010   3.789   6.533   4.104
 1923WAT     H1 6011   3.847   6.547   4.184
 1923WAT     H2 6012   3.808   6.443   4.064
 1924WAT      O 6013   3.847   8.391   7.018
 1924WAT     H1 6014   3.852   8.353   7.110
 1924WAT     H2 6015   3.803   8.480   7.020
 1925WAT      O 6016   3.591   5.935   5.496
 1925WAT     H1 6017   3.605   5.955   5.399
 1925WAT     H2 6018   3.541   5.849   5.506
 1926WAT      O 6019   5.842   7.168   8.187
 1926WAT     H1 6020   5.785   7.235   8.235
 1926WAT     H2 6021   5.888   7.109   8.254
 1927WAT      O 6022   8.501   1.641   3.510
 1927WAT     H1 6023   8.463   1.732   3.499
 1927WAT     H2 6024   8.581   1.645   3.571
 1928WAT      O 6025   7.619   0.025   5.623
 1928WAT     H1 6026   7.604  -0.063   5.669
 1928WAT     H2 6027   7.573   0.097   5.673
 1929WAT      O 6028   0.609   6.384   9.772
 1929WAT     H1 6029   0.572   6.295   9.746
 1929WAT     H2 6030   0.703   6.372   9.805
 1930WAT      O 6031   5.081   3.385   9.430
 1930WAT     H1 6032   5.118   3.457   9.488
 1930WAT     H2 6033   5.010   3.335   9.480
 1931WAT      O 6034   7.342   5.190   0.258
 1931WAT     H1 6035   7.303   5.282   0.255
 1931WAT     H2 6036   7.271   5.124   0.281
 1932WAT      O 6037   2.182   8.607   7.567
 1932WAT     H1 6038   2.104   8.584   7.510
 1932WAT     H2 6039   2.225   8.691   7.532
 1933WAT      O 6040   5.309   0.096   6.725
 1933WAT     H1 6041   5.221   0.092   6.774
 1933WAT     H2 6042   5.339   0.003   6.704
 1934WAT      O 6043   7.870   6.417   6.868
 1934WAT     H1 6044   7.849   6.326   6.905
 1934WAT     H2 6045   7.828   6.427   6.778
 1935WAT      O 6046   7.087   1.076   5.472
 1935WAT     H1 6047   7.022   1.116   5.538
 1935WAT     H2 6048   7.148   1.148   5.439
 1936WAT      O 6049   7.673   6.016   2.821
 1936WAT     H1 6050   7.688   5.937   2.881
 1936WAT     H2 6051   7.756   6.071   2.818
 1937WAT      O 6052   7.530   5.230   0.468
 1937WAT     H1 6053   7.494   5.201   0.557
 1937WAT     H2 6054   7.459   5.218   0.399
 1938WAT      O 6055   1.443   3.619   7.835
 1938WAT     H1 6056   1.433   3.599   7.933
 1938WAT     H2 6057   1.536   3.597   7.806
 1939WAT      O 6058   0.739   2.420   9.378
 1939WAT     H1 6059   0.824   2.471   9.395
 1939WAT     H2 6060   0.661   2.481   9.391
 1940WAT      O 6061   6.490   3.882   7.234
 1940WAT     H1 6062   6.493   3.980   7.212
 1940WAT     H2 6063   6.583   3.849   7.250
 1941WAT      O 6064   7.696   7.445   2.774
 1941WAT     H1 6065   7.677   7.348   2.788
 1941WAT     H2 6066   7.611   7.497   2.779
 1942WAT      O 6067   4.583   1.315   0.440
 1942WAT     H1 6068   4.485   1.329   0.421
 1942WAT     H2 6069   4.612   1.376   0.514
 1943WAT      O 6070   5.891   6.426   5.573
 1943WAT     H1 6071   5.900   6.387   5.481
 1943WAT     H2 6072   5.862   6.521   5.566
 1944WAT      O 6073   8.571   7.732   6.843
 1944WAT     H1 6074   8.566   7.819   6.891
 1944WAT     H2 6075   8.621   7.666   6.899
 1945WAT      O 6076   9.227   7.241   9.401
 1945WAT     H1 6077   9.214   7.324   9.347
 1945WAT     H2 6078   9.204   7.161   9.345
 1946WAT      O 6079   2.727   1.322   3.174
 1946WAT     H1 6080   2.756   1.293   3.082
 1946WAT     H2 6081   2.650   1.266   3.203
 1947WAT      O 6082   2.358   3.182   4.650
 1947WAT     H1 6083   2.454   3.157   4.660
 1947WAT     H2 6084   2.335   3.257   4.712
 1948WAT      O 6085   0.332   8.888   9.615
 1948WAT     H1 6086   0.388   8.887   9.698
 1948WAT     H2 6087   0.355   8.808   9.559
 1949WAT      O 6088   1.879   5.544   7.771
 1949WAT     H1 6089   1.841   5.488   7.844
 1949WAT     H2 6090   1.907   5.632   7.809
 1950WAT      O 6091   8.924   1.685   9.110
 1950WAT     H1 6092   8.865   1.764   9.132
 1950WAT     H2 6093   8.964   1.698   9.019
 1951WAT      O 6094   8.916   8.528   1.040
 1951WAT     H1 6095   8.946   8.457   1.103
 1951WAT     H2 6096   8.982   8.603   1.041
 1952WAT      O 6097   3.617   4.941   5.682
 1952WAT     H1 6098   3.583   4.849   5.661
 1952WAT     H2 6099   3.567   4.978   5.760
 1953WAT      O 6100   3.638   3.278   2.029
 1953WAT     H1 6101   3.627   3.332   1.946
 1953WAT     H2 6102   3.677   3.189   2.006
 1954WAT      O 6103   6.751   7.301   2.469
 1954WAT     H1 6104   6.802   7.380   2.436
 1954WAT     H2 6105   6.653   7.321   2.467
 1955WAT      O 6106   3.915   4.159   9.065
 1955WAT     H1 6107   3.980   4.116   9.128
 1955WAT     H2 6108   3.933   4.128   8.972
 1956WAT      O 6109   7.807   4.552   6.020
 1956WAT     H1 6110   7.771   4.643   6.001
 1956WAT     H2 6111   7.801   4.496   5.938
 1957WAT      O 6112   7.756   6.242   4.833
 1957WAT     H1 6113   7.692   6.280   4.901
 1957WAT     H2 6114   7.827   6.309   4.812
 1958WAT      O 6115   0.824   1.235   4.348
 1958WAT     H1 6116   0.768   1.178   4.408
 1958WAT     H2 6117   0.920   1.229   4.376
 1959WAT      O 6118   3.372   0.908   4.296
 1959WAT     H1 6119   3.336   0.820   4.325
 1959WAT     H2 6120   3.328   0.981   4.348
 1960WAT      O 6121   2.933   5.544   6.887
 1960WAT     H1 6122   3.019   5.530   6.935
 1960WAT     H2 6123   2.857   5.536   6.952
 1961WAT      O 6124   5.475   0.800   1.088
 1961WAT     H1 6125   5.469   0.900   1.094
 1961WAT     H2 6126   5.386   0.760   1.110
 1962WAT      O 6127   0.340   7.449   7.736
 1962WAT     H1 6128   0.280   7.516   7.781
 1962WAT     H2 6129   0.344   7.468   7.638
 1963WAT      O 6130   4.880   1.968   4.060
 1963WAT     H1 6131   4.969   1.992   4.100
 1963WAT     H2 6132   4.894   1.911   3.979
 1964WAT      O 6133   9.419   7.745   3.102
 1964WAT     H1 6134   9.512   7.758   3.068
 1964WAT     H2 6135   9.370   7.832   3.103
 1965WAT      O 6136   2.269   0.468   7.179
 1965WAT     H1 6137   2.253   0.508   7.088
 1965WAT     H2 6138   2.306   0.376   7.169
 1966WAT      O 6139   7.250   7.752   1.108
 1966WAT     H1 6140   7.176   7.700   1.150
 1966WAT     H2 6141   7.245   7.847   1.137
 1967WAT      O 6142   0.046   6.210   0.404
 1967WAT     H1 6143   0.074   6.279   0.471
 1967WAT     H2 6144   0.085   6.232   0.315
 1968WAT      O 6145   0.848   9.836   5.954
 1968WAT     H1 6146   0.765   9.783   5.970
 1968WAT     H2 6147   0.859   9.853   5.857
 1969WAT      O 6148   3.991   7.531   0.816
 1969WAT     H1 6149   4.066   7.591   0.843
 1969WAT     H2 6150   4.027   7.452   0.766
 1970WAT      O 6151   2.264   0.348   0.223
 1970WAT     H1 6152   2.252   0.446   0.209
 1970WAT     H2 6153   2.176   0.308   0.250
 1971WAT      O 6154   6.597   1.276   3.083
 1971WAT     H1 6155   6.696   1.263   3.081
 1971WAT     H2 6156   6.552   1.205   3.030
 1972WAT      O 6157   4.211   7.492   4.367
 1972WAT     H1 6158   4.226   7.402   4.409
 1972WAT     H2 6159   4.286   7.513   4.305
 1973WAT      O 6160   5.687   7.268   8.462
 1973WAT     H1 6161   5.673   7.367   8.457
 1973WAT     H2 6162   5.780   7.248   8.494
 1974WAT      O 6163   2.844   6.690   8.098
 1974WAT     H1 6164   2.895   6.626   8.155
 1974WAT     H2 6165   2.775   6.641   8.045
 1975WAT      O 6166   3.519   3.160   7.435
 1975WAT     H1 6167   3.556   3.246   7.470
 1975WAT     H2 6168   3.492   3.171   7.339
 1976WAT      O 6169   3.937   8.600   8.947
 1976WAT     H1 6170   3.952   8.618   9.044
 1976WAT     H2 6171   4.022   8.567   8.906
 1977WAT      O 6172   9.163   0.098   0.468
 1977WAT     H1 6173   9.213   0.135   0.546
 1977WAT     H2 6174   9.208   0.125   0.383
 1978WAT      O 6175   3.440   7.198   3.672
 1978WAT     H1 6176   3.447   7.231   3.578
 1978WAT     H2 6177   3.415   7.101   3.672
 1979WAT      O 6178   3.183   1.542   6.743
 1979WAT     H1 6179   3.088   1.539   6.773
 1979WAT     H2 6180   3.187   1.537   6.643
 1980WAT      O 6181   0.400   6.938   0.582
 1980WAT     H1 6182   0.350   6.980   0.507
 1980WAT     H2 6183   0.351   6.857   0.614
 1981WAT      O 6184   4.529   8.973   4.530
 1981WAT     H1 6185   4.603   8.955   4.465
 1981WAT     H2 6186   4.490   9.063   4.512
 1982WAT      O 6187   2.229   2.321   5.437
 1982WAT     H1 6188   2.179   2.405   5.455
 1982WAT     H2 6189   2.171   2.257   5.388
 1983WAT      O 6190   4.870   5.825   8.059
 1983WAT     H1 6191   4.783   5.776   8.060
 1983WAT     H2 6192   4.914   5.816   8.148
 1984WAT      O 6193   4.610   0.852   9.714
 1984WAT     H1 6194   4.605   0.916   9.638
 1984WAT     H2 6195   4.578   0.896   9.798
 1985WAT      O 6196   3.219   4.114   9.028
 1985WAT     H1 6197   3.296   4.071   9.074
 1985WAT     H2 6198   3.166   4.167   9.094
 1986WAT      O 6199   4.496   2.346   8.586
 1986WAT     H1 6200   4.572   2.367   8.647
 1986WAT     H2 6201   4.464   2.430   8.542
 1987WAT      O 6202   6.597   7.528   6.561
 1987WAT     H1 6203   6.683   7.564   6.598
 1987WAT     H2 6204   6.590   7.430   6.582
 1988WAT      O 6205   4.255   3.659   0.880
 1988WAT     H1 6206   4.253   3.741   0.823
 1988WAT     H2 6207   4.300   3.680   0.967
 1989WAT      O 6208   7.311   3.961   4.420
 1989WAT     H1 6209   7.250   3.886   4.445
 1989WAT     H2 6210   7.394   3.925   4.379
 1990WAT      O 6211   7.920   9.021   6.059
 1990WAT     H1 6212   7.953   8.937   6.102
 1990WAT     H2 6213   7.993   9.062   6.004
 1991WAT      O 6214   4.806   7.006   3.241
 1991WAT     H1 6215   4.728   7.053   3.283
 1991WAT     H2 6216   4.795   7.004   3.142
 1992WAT      O 6217   3.072   7.954   5.902
 1992WAT     H1 6218   3.017   8.019   5.850
 1992WAT     H2 6219   3.071   7.979   5.999
 1993WAT      O 6220   9.293   8.095   2.117
 1993WAT     H1 6221   9.246   8.076   2.204
 1993WAT     H2 6222   9.284   8.016   2.057
 1994WAT      O 6223   1.599   5.000   2.629
 1994WAT     H1 6224   1.617   4.945   2.548
 1994WAT     H2 6225   1.557   5.086   2.602
 1995WAT      O 6226   6.326   9.513   7.098
 1995WAT     H1 6227   6.235   9.531   7.138
 1995WAT     H2 6228   6.359   9.595   7.053
 1996WAT      O 6229   5.059   5.890   1.140
 1996WAT     H1 6230   4.987   5.845   1.087
 1996WAT     H2 6231   5.148   5.859   1.107
 1997WAT      O 6232   3.437   4.274   2.212
 1997WAT     H1 6233   3.511   4.257   2.278
 1997WAT     H2 6234   3.411   4.188   2.169
 1998WAT      O 6235   0.085   9.372   8.932
 1998WAT     H1 6236  -0.003   9.391   8.975
 1998WAT     H2 6237   0.158   9.382   9.000
 1999WAT      O 6238   4.633   7.490   6.467
 1999WAT     H1 6239   4.656   7.403   6.422
 1999WAT     H2 6240   4.533   7.498   6.472
 2000WAT      O 6241   5.496   7.976   1.918
 2000WAT     H1 6242   5.532   8.056   1.967
 2000WAT     H2 6243   5.422   7.936   1.972
 2001WAT      O 6244   6.877   8.631   6.173
 2001WAT     H1 6245   6.844   8.556   6.230
 2001WAT     H2 6246   6.800   8.691   6.150
 2002WAT      O 6247   9.451   3.110   8.512
 2002WAT     H1 6248   9.370   3.069   8.552
 2002WAT     H2 6249   9.528   3.102   8.575
 2003WAT      O 6250   1.507   7.207   2.531
 2003WAT     H1 6251   1.544   7.121   2.497
 2003WAT     H2 6252   1.459   7.191   2.618
 2004WAT      O 6253   2.494   7.013   0.084
 2004WAT     H1 6254   2.422   6.949   0.110
 2004WAT     H2 6255   2.466   7.063   0.002
 2005WAT      O 6256   3.611   0.561   3.634
 2005WAT     H1 6257   3.534   0.577   3.696
 2005WAT     H2 6258   3.683   0.627   3.653
 2006WAT      O 6259   5.954   6.994   6.511
 2006WAT     H1 6260   5.963   7.048   6.427
 2006WAT     H2 6261   6.017   7.031   6.580
 2007WAT      O 6262   6.544   1.855   8.744
 2007WAT     H1 6263   6.595   1.940   8.758
 2007WAT     H2 6264   6.464   1.873   8.688
 2008WAT      O 6265   8.702   5.187   6.059
 2008WAT     H1 6266   8.771   5.150   5.996
 2008WAT     H2 6267   8.722   5.155   6.151
 2009WAT      O 6268   5.167   8.136   7.373
 2009WAT     H1 6269   5.163   8.152   7.274
 2009WAT     H2 6270   5.082   8.095   7.404
 2010WAT      O 6271   2.583   4.804   2.496
 2010WAT     H1 6272   2.618   4.792   2.589
 2010WAT     H2 6273   2.647   4.860   2.443
 2011WAT      O 6274   7.398   6.156   3.657
 2011WAT     H1 6275   7.383   6.057   3.665
 2011WAT     H2 6276   7.490   6.173   3.622
 2012WAT      O 6277   4.182   5.645   2.272
 2012WAT     H1 6278   4.188   5.685   2.180
 2012WAT     H2 6279   4.137   5.556   2.267
 2013WAT      O 6280   6.427   5.955   6.324
 2013WAT     H1 6281   6.492   5.884   6.295
 2013WAT     H2 6282   6.335   5.928   6.298
 2014WAT      O 6283   2.398   8.671   5.013
 2014WAT     H1 6284   2.381   8.689   5.110
 2014WAT     H2 6285   2.313   8.640   4.971
 2015WAT      O 6286   2.210   4.762   2.778
 2015WAT     H1 6287   2.287   4.798   2.830
 2015WAT     H2 6288   2.167   4.835   2.725
 2016WAT      O 6289   9.760   0.791   4.437
 2016WAT     H1 6290   9.857   0.768   4.445
 2016WAT     H2 6291   9.740   0.871   4.495
 2017WAT      O 6292   2.062   8.542   4.247
 2017WAT     H1 6293   2.158   8.539   4.276
 2017WAT     H2 6294   2.013   8.611   4.301
 2018WAT      O 6295   8.605   0.817   6.646
 2018WAT     H1 6296   8.644   0.889   6.703
 2018WAT     H2 6297   8.627   0.728   6.685
 2019WAT      O 6298   7.979   2.746   2.730
 2019WAT     H1 6299   7.924   2.811   2.783
 2019WAT     H2 6300   8.038   2.797   2.667
 2020WAT      O 6301   9.708   1.895   4.798
 2020WAT     H1 6302   9.791   1.889   4.853
 2020WAT     H2 6303   9.628   1.887   4.858
 2021WAT      O 6304   6.087   1.531   4.928
 2021WAT     H1 6305   5.996   1.498   4.901
 2021WAT     H2 6306   6.125   1.472   4.999
 2022WAT      O 6307   9.528   5.821   4.986
 2022WAT     H1 6308   9.626   5.806   5.001
 2022WAT     H2 6309   9.515   5.866   4.898
 2023WAT      O 6310   1.875   7.418   8.588
 2023WAT     H1 6311   1.853   7.513   8.612
 2023WAT     H2 6312   1.955   7.416   8.529
 2024WAT      O 6313   2.610   3.033   3.215
 2024WAT     H1 6314   2.605   3.032   3.115
 2024WAT     H2 6315   2.567   3.117   3.249
 2025WAT      O 6316   4.969   9.110   2.575
 2025WAT     H1 6317   5.061   9.107   2.614
 2025WAT     H2 6318   4.947   9.021   2.534
 2026WAT      O 6319   1.411   7.785   8.504
 2026WAT     H1 6320   1.322   7.785   8.459
 2026WAT     H2 6321   1.468   7.712   8.465
 2027WAT      O 6322   8.306   7.014   1.567
 2027WAT     H1 6323   8.238   6.947   1.599
 2027WAT     H2 6324   8.295   7.027   1.469
 2028WAT      O 6325   7.834   0.850   2.530
 2028WAT     H1 6326   7.900   0.775   2.532
 2028WAT     H2 6327   7.819   0.884   2.623
 2029WAT      O 6328   2.960   0.282   2.674
 2029WAT     H1 6329   3.059   0.284   2.691
 2029WAT     H2 6330   2.943   0.304   2.578
 2030WAT      O 6331   7.354   7.338   6.709
 2030WAT     H1 6332   7.427   7.280   6.745
 2030WAT     H2 6333   7.388   7.388   6.629
 2031WAT      O 6334   4.218   6.153   8.115
 2031WAT     H1 6335   4.127   6.193   8.127
 2031WAT     H2 6336   4.236   6.140   8.017
 2032WAT      O 6337   2.868   9.161   1.761
 2032WAT     H1 6338   2.816   9.084   1.724
 2032WAT     H2 6339   2.818   9.200   1.839
 2033WAT      O 6340   0.436   2.442   5.168
 2033WAT     H1 6341   0.523   2.467   5.126
 2033WAT     H2 6342   0.453   2.381   5.246
 2034WAT      O 6343   8.727   5.874   7.461
 2034WAT     H1 6344   8.807   5.869   7.401
 2034WAT     H2 6345   8.655   5.814   7.426
 2035WAT      O 6346   3.968   1.427   1.650
 2035WAT     H1 6347   3.984   1.423   1.749
 2035WAT     H2 6348   3.888   1.372   1.628
 2036WAT      O 6349   3.565   3.901   3.452
 2036WAT     H1 6350   3.638   3.881   3.518
 2036WAT     H2 6351   3.561   3.999   3.436
 2037WAT      O 6352   6.495   1.991   1.014
 2037WAT     H1 6353   6.443   2.006   1.098
 2037WAT     H2 6354   6.457   1.912   0.966
 2038WAT      O 6355   1.276   8.212   0.592
 2038WAT     H1 6356   1.356   8.152   0.597
 2038WAT     H2 6357   1.289   8.278   0.518
 2039WAT      O 6358   3.922   2.756   2.041
 2039WAT     H1 6359   3.900   2.674   1.988
 2039WAT     H2 6360   3.850   2.824   2.030
 2040WAT      O 6361   8.918   2.731   0.901
 2040WAT     H1 6362   8.929   2.649   0.957
 2040WAT     H2 6363   8.892   2.808   0.960
 2041WAT      O 6364   6.093   0.547   1.083
 2041WAT     H1 6365   6.014   0.486   1.080
 2041WAT     H2 6366   6.092   0.607   1.004
 2042WAT      O 6367   6.809   2.947   6.107
 2042WAT     H1 6368   6.810   2.917   6.011
 2042WAT     H2 6369   6.890   3.002   6.125
 2043WAT      O 6370   9.326   2.056   2.704
 2043WAT     H1 6371   9.250   2.074   2.642
 2043WAT     H2 6372   9.305   1.976   2.761
 2044WAT      O 6373   4.803   4.431   4.089
 2044WAT     H1 6374   4.900   4.439   4.065
 2044WAT     H2 6375   4.786   4.342   4.131
 2045WAT      O 6376   8.399   4.272   1.839
 2045WAT     H1 6377   8.312   4.320   1.845
 2045WAT     H2 6378   8.384   4.177   1.810
 2046WAT      O 6379   8.194   4.682   1.961
 2046WAT     H1 6380   8.106   4.636   1.960
 2046WAT     H2 6381   8.253   4.641   2.031
 2047WAT      O 6382   4.705   9.245   0.139
 2047WAT     H1 6383   4.749   9.155   0.141
 2047WAT     H2 6384   4.759   9.307   0.081
 2048WAT      O 6385   2.897   6.200   1.929
 2048WAT     H1 6386   2.895   6.171   1.834
 2048WAT     H2 6387   2.921   6.122   1.987
 2049WAT      O 6388   7.951   4.318   7.621
 2049WAT     H1 6389   8.031   4.331   7.679
 2049WAT     H2 6390   7.977   4.263   7.541
 2050WAT      O 6391   0.794   2.450   8.497
 2050WAT     H1 6392   0.777   2.464   8.594
 2050WAT     H2 6393   0.859   2.375   8.484
 2051WAT      O 6394   4.033   4.087   8.834
 2051WAT     H1 6395   4.037   4.081   8.734
 2051WAT     H2 6396   4.125   4.076   8.872
 2052WAT      O 6397   5.745   8.546   2.988
 2052WAT     H1 6398   5.657   8.591   3.001
 2052WAT     H2 6399   5.734   8.467   2.928
 2053WAT      O 6400   6.905   0.202   6.060
 2053WAT     H1 6401   6.873   0.225   5.967
 2053WAT     H2 6402   6.828   0.205   6.123
 2054WAT      O 6403   9.617   7.553   5.543
 2054WAT     H1 6404   9.527   7.596   5.555
 2054WAT     H2 6405   9.609   7.455   5.563
 2055WAT      O 6406   0.542   0.354   2.363
 2055WAT     H1 6407   0.599   0.436   2.364
 2055WAT     H2 6408   0.556   0.304   2.277
 2056WAT      O 6409   9.707   0.621   9.714
 2056WAT     H1 6410   9.702   0.570   9.800
 2056WAT     H2 6411   9.755   0.566   9.646
 2057WAT      O 6412   6.927   4.383   6.418
 2057WAT     H1 6413   6.916   4.470   6.369
 2057WAT     H2 6414   6.853   4.321   6.392
 2058WAT      O 6415   8.545   5.640   7.637
 2058WAT     H1 6416   8.554   5.634   7.538
 2058WAT     H2 6417   8.492   5.722   7.661
 2059WAT      O 6418   4.585   2.820   0.401
 2059WAT     H1 6419   4.655   2.845   0.334
 2059WAT     H2 6420   4.565   2.723   0.394
 2060WAT      O 6421   2.071   5.553   4.275
 2060WAT     H1 6422   2.126   5.586   4.352
 2060WAT     H2 6423   1.985   5.515   4.310
 2061WAT      O 6424   9.356   8.426   5.723
 2061WAT     H1 6425   9.444   8.379   5.716
 2061WAT     H2 6426   9.372   8.521   5.750
 2062WAT      O 6427   6.663   3.767   0.401
 2062WAT     H1 6428   6.696   3.791   0.310
 2062WAT     H2 6429   6.680   3.843   0.464
 2063WAT      O 6430   6.005   0.330   8.482
 2063WAT     H1 6431   5.989   0.428   8.483
 2063WAT     H2 6432   5.983   0.292   8.572
 2064WAT      O 6433   4.075   4.534   3.231
 2064WAT     H1 6434   4.000   4.547   3.167
 2064WAT     H2 6435   4.037   4.516   3.322
 2065WAT      O 6436   5.060   1.874   0.352
 2065WAT     H1 6437   4.961   1.863   0.340
 2065WAT     H2 6438   5.078   1.924   0.437
 2066WAT      O 6439   2.753   5.020   0.772
 2066WAT     H1 6440   2.717   5.103   0.814
 2066WAT     H2 6441   2.685   4.947   0.778
 2067WAT      O 6442   3.381   4.007   9.447
 2067WAT     H1 6443   3.344   4.099   9.433
 2067WAT     H2 6444   3.438   3.983   9.369
 2068WAT      O 6445   4.137   1.795   8.471
 2068WAT     H1 6446   4.221   1.754   8.437
 2068WAT     H2 6447   4.105   1.864   8.407
 2069WAT      O 6448   4.293   1.267   5.729
 2069WAT     H1 6449   4.386   1.236   5.710
 2069WAT     H2 6450   4.252   1.303   5.646
 2070WAT      O 6451   2.233   9.056   6.777
 2070WAT     H1 6452   2.260   9.144   6.816
 2070WAT     H2 6453   2.135   9.058   6.758
 2071WAT      O 6454   4.451   5.440   8.548
 2071WAT     H1 6455   4.420   5.480   8.462
 2071WAT     H2 6456   4.551   5.443   8.552
 2072WAT      O 6457   5.146   8.694   8.869
 2072WAT     H1 6458   5.147   8.595   8.881
 2072WAT     H2 6459   5.055   8.724   8.840
 2073WAT      O 6460   1.946   1.561   6.969
 2073WAT     H1 6461   1.861   1.511   6.953
 2073WAT     H2 6462   1.933   1.625   7.045
 2074WAT      O 6463   0.672   1.779   4.564
 2074WAT     H1 6464   0.721   1.714   4.623
 2074WAT     H2 6465   0.721   1.789   4.477
 2075WAT      O 6466   2.650   8.953   9.002
 2075WAT     H1 6467   2.661   8.893   9.082
 2075WAT     H2 6468   2.729   8.943   8.941
 2076WAT      O 6469   8.250   2.868   5.948
 2076WAT     H1 6470   8.175   2.933   5.956
 2076WAT     H2 6471   8.234   2.806   5.871
 2077WAT      O 6472   0.037   4.626   1.230
 2077WAT     H1 6473   0.057   4.721   1.205
 2077WAT     H2 6474   0.120   4.571   1.223
 2078WAT      O 6475   2.179   6.778   6.440
 2078WAT     H1 6476   2.079   6.787   6.446
 2078WAT     H2 6477   2.208   6.797   6.347
 2079WAT      O 6478   8.806   3.287   5.774
 2079WAT     H1 6479   8.708   3.307   5.783
 2079WAT     H2 6480   8.841   3.256   5.863
 2080WAT      O 6481   4.564   9.203   7.397
 2080WAT     H1 6482   4.654   9.168   7.371
 2080WAT     H2 6483   4.499   9.127   7.402
 2081WAT      O 6484   6.475   8.665   6.662
 2081WAT     H1 6485   6.557   8.722   6.664
 2081WAT     H2 6486   6.495   8.576   6.703
 2082WAT      O 6487   0.032   1.984   5.328
 2082WAT     H1 6488   0.096   1.907   5.336
 2082WAT     H2 6489   0.020   2.009   5.232
 2083WAT      O 6490   5.997   9.256   9.187
 2083WAT     H1 6491   6.063   9.318   9.145
 2083WAT     H2 6492   6.042   9.202   9.257
 2084WAT      O 6493   7.777   1.459   6.002
 2084WAT     H1 6494   7.872   1.469   6.030
 2084WAT     H2 6495   7.745   1.543   5.959
 2085WAT      O 6496   3.011   0.278   1.576
 2085WAT     H1 6497   2.987   0.267   1.480
 2085WAT     H2 6498   3.110   0.291   1.585
 2086WAT      O 6499   4.268   3.904   0.766
 2086WAT     H1 6500   4.348   3.957   0.738
 2086WAT     H2 6501   4.188   3.964   0.773
 2087WAT      O 6502   5.938   1.952   8.289
 2087WAT     H1 6503   5.867   1.898   8.333
 2087WAT     H2 6504   5.976   1.901   8.212
 2088WAT      O 6505   2.990   2.725   4.898
 2088WAT     H1 6506   2.933   2.778   4.960
 2088WAT     H2 6507   3.046   2.661   4.950
 2089WAT      O 6508   0.958   0.582   4.317
 2089WAT     H1 6509   1.003   0.660   4.273
 2089WAT     H2 6510   0.964   0.502   4.257
 2090WAT      O 6511   3.571   5.362   8.191
 2090WAT     H1 6512   3.494   5.399   8.243
 2090WAT     H2 6513   3.541   5.283   8.138
 2091WAT      O 6514   2.248   1.440   8.605
 2091WAT     H1 6515   2.160   1.447   8.653
 2091WAT     H2 6516   2.321   1.468   8.667
 2092WAT      O 6517   9.626   1.644   0.959
 2092WAT     H1 6518   9.583   1.621   1.047
 2092WAT     H2 6519   9.572   1.605   0.885
 2093WAT      O 6520   7.634   3.886   1.350
 2093WAT     H1 6521   7.726   3.851   1.332
 2093WAT     H2 6522   7.583   3.820   1.405
 2094WAT      O 6523   1.956   4.955   3.277
 2094WAT     H1 6524   1.960   4.857   3.297
 2094WAT     H2 6525   1.884   4.972   3.210
 2095WAT      O 6526   1.464   2.712   0.449
 2095WAT     H1 6527   1.434   2.616   0.442
 2095WAT     H2 6528   1.562   2.718   0.430
 2096WAT      O 6529   7.372   8.515   0.302
 2096WAT     H1 6530   7.384   8.500   0.400
 2096WAT     H2 6531   7.282   8.480   0.274
 2097WAT      O 6532   1.091   0.467   3.892
 2097WAT     H1 6533   1.015   0.409   3.864
 2097WAT     H2 6534   1.177   0.430   3.856
 2098WAT      O 6535   0.940   6.507   2.124
 2098WAT     H1 6536   0.903   6.549   2.206
 2098WAT     H2 6537   1.014   6.444   2.149
 2099WAT      O 6538   3.939   7.085   2.045
 2099WAT     H1 6539   3.937   7.084   1.945
 2099WAT     H2 6540   4.025   7.126   2.076
 2100WAT      O 6541   7.494   4.532   1.251
 2100WAT     H1 6542   7.436   4.489   1.182
 2100WAT     H2 6543   7.457   4.622   1.275
 2101WAT      O 6544   3.659   1.126   1.165
 2101WAT     H1 6545   3.691   1.126   1.259
 2101WAT     H2 6546   3.673   1.035   1.125
 2102WAT      O 6547   5.803   7.040   2.664
 2102WAT     H1 6548   5.767   6.973   2.729
 2102WAT     H2 6549   5.867   7.101   2.711
 2103WAT      O 6550   0.644   5.072   1.023
 2103WAT     H1 6551   0.571   5.068   1.092
 2103WAT     H2 6552   0.653   5.166   0.991
 2104WAT      O 6553   5.814   5.440   4.484
 2104WAT     H1 6554   5.847   5.501   4.556
 2104WAT     H2 6555   5.892   5.394   4.440
 2105WAT      O 6556   3.826   4.087   1.433
 2105WAT     H1 6557   3.738   4.101   1.389
 2105WAT     H2 6558   3.889   4.044   1.368
 2106WAT      O 6559   5.469   0.596   1.609
 2106WAT     H1 6560   5.509   0.558   1.526
 2106WAT     H2 6561   5.514   0.683   1.631
 2107WAT      O 6562   1.748   4.013   2.368
 2107WAT     H1 6563   1.720   4.006   2.272
 2107WAT     H2 6564   1.680   4.067   2.419
 2108WAT      O 6565   0.623   3.036   6.210
 2108WAT     H1 6566   0.570   2.991   6.138
 2108WAT     H2 6567   0.665   3.119   6.173
 2109WAT      O 6568   2.519   8.813   5.650
 2109WAT     H1 6569   2.492   8.902   5.686
 2109WAT     H2 6570   2.578   8.767   5.717
 2110WAT      O 6571   7.007   3.708   2.550
 2110WAT     H1 6572   6.975   3.785   2.495
 2110WAT     H2 6573   6.938   3.685   2.619
 2111WAT      O 6574   0.413   1.756   1.656
 2111WAT     H1 6575   0.421   1.694   1.577
 2111WAT     H2 6576   0.503   1.770   1.697
 2112WAT      O 6577   7.837   0.714   1.471
 2112WAT     H1 6578   7.874   0.754   1.555
 2112WAT     H2 6579   7.905   0.654   1.429
 2113WAT      O 6580   0.140   4.002   2.780
 2113WAT     H1 6581   0.114   4.052   2.863
 2113WAT     H2 6582   0.161   3.907   2.803
 2114WAT      O 6583   3.266   6.429   9.769
 2114WAT     H1 6584   3.316   6.360   9.717
 2114WAT     H2 6585   3.258   6.400   9.864
 2115WAT      O 6586   0.648   8.966   1.230
 2115WAT     H1 6587   0.589   9.046   1.222
 2115WAT     H2 6588   0.713   8.965   1.154
 2116WAT      O 6589   5.921   4.809   0.721
 2116WAT     H1 6590   5.841   4.768   0.678
 2116WAT     H2 6591   5.960   4.878   0.659
 2117WAT      O 6592   9.682   6.223   1.189
 2117WAT     H1 6593   9.683   6.267   1.279
 2117WAT     H2 6594   9.740   6.274   1.126
 2118WAT      O 6595   0.054   7.174   0.363
 2118WAT     H1 6596   0.091   7.252   0.312
 2118WAT     H2 6597  -0.015   7.207   0.427
 2119WAT      O 6598   9.701   3.053   2.391
 2119WAT     H1 6599   9.767   3.092   2.456
 2119WAT     H2 6600   9.749   2.992   2.328
 2120WAT      O 6601   3.676   8.463   1.289
 2120WAT     H1 6602   3.682   8.523   1.209
 2120WAT     H2 6603   3.591   8.410   1.285
 2121WAT      O 6604   4.462   4.027   5.170
 2121WAT     H1 6605   4.435   3.932   5.184
 2121WAT     H2 6606   4.382   4.086   5.174
 2122WAT      O 6607   2.639   0.177   9.395
 2122WAT     H1 6608   2.627   0.078   9.385
 2122WAT     H2 6609   2.628   0.203   9.492
 2123WAT      O 6610   5.891   7.725   8.320
 2123WAT     H1 6611   5.984   7.727   8.284
 2123WAT     H2 6612   5.839   7.803   8.284
 2124WAT      O 6613   0.556   6.006   8.538
 2124WAT     H1 6614   0.653   6.015   8.561
 2124WAT     H2 6615   0.545   6.008   8.438
 2125WAT      O 6616   1.208   1.398   5.462
 2125WAT     H1 6617   1.112   1.412   5.485
 2125WAT     H2 6618   1.240   1.474   5.404
 2126WAT      O 6619   4.113   5.486   3.792
 2126WAT     H1 6620   4.132   5.389   3.808
 2126WAT     H2 6621   4.191   5.541   3.820
 2127WAT      O 6622   9.358   4.212   8.159
 2127WAT     H1 6623   9.333   4.166   8.074
 2127WAT     H2 6624   9.379   4.144   8.229
 2128WAT      O 6625   3.622   3.998   6.770
 2128WAT     H1 6626   3.570   4.046   6.840
 2128WAT     H2 6627   3.716   3.983   6.802
 2129WAT      O 6628   7.788   6.711   2.437
 2129WAT     H1 6629   7.808   6.705   2.535
 2129WAT     H2 6630   7.700   6.756   2.424
 2130WAT      O 6631   4.618   6.775   2.645
 2130WAT     H1 6632   4.587   6.720   2.723
 2130WAT     H2 6633   4.580   6.867   2.652
 2131WAT      O 6634   9.465   6.858   3.652
 2131WAT     H1 6635   9.489   6.897   3.741
 2131WAT     H2 6636   9.371   6.885   3.629
 2132WAT      O 6637   7.116   0.298   4.699
 2132WAT     H1 6638   7.076   0.270   4.612
 2132WAT     H2 6639   7.095   0.395   4.716
 2133WAT      O 6640   0.446   0.784   7.503
 2133WAT     H1 6641   0.461   0.778   7.405
 2133WAT     H2 6642   0.357   0.825   7.521
 2134WAT      O 6643   2.888   5.678   2.227
 2134WAT     H1 6644   2.855   5.647   2.316
 2134WAT     H2 6645   2.828   5.751   2.193
 2135WAT      O 6646   4.874   8.014   8.368
 2135WAT     H1 6647   4.856   7.950   8.294
 2135WAT     H2 6648   4.790   8.061   8.393
 2136WAT      O 6649   7.101   4.859   5.196
 2136WAT     H1 6650   7.121   4.957   5.186
 2136WAT     H2 6651   7.004   4.848   5.219
 2137WAT      O 6652   4.455   7.970   4.694
 2137WAT     H1 6653   4.389   7.998   4.624
 2137WAT     H2 6654   4.411   7.905   4.757
 2138WAT      O 6655   3.498   5.291   7.588
 2138WAT     H1 6656   3.575   5.252   7.638
 2138WAT     H2 6657   3.460   5.367   7.640
 2139WAT      O 6658   7.239   8.798   3.606
 2139WAT     H1 6659   7.216   8.883   3.558
 2139WAT     H2 6660   7.248   8.817   3.704
 2140WAT      O 6661   9.410   6.697   4.655
 2140WAT     H1 6662   9.350   6.763   4.610
 2140WAT     H2 6663   9.485   6.744   4.701
 2141WAT      O 6664   7.209   7.161   6.098
 2141WAT     H1 6665   7.198   7.212   6.013
 2141WAT     H2 6666   7.166   7.071   6.089
 2142WAT      O 6667   1.355   9.203   1.721
 2142WAT     H1 6668   1.317   9.111   1.729
 2142WAT     H2 6669   1.391   9.216   1.629
 2143WAT      O 6670   3.835   9.704   5.346
 2143WAT     H1 6671   3.921   9.747   5.373
 2143WAT     H2 6672   3.830   9.700   5.246
 2144WAT      O 6673   5.911   3.414   1.108
 2144WAT     H1 6674   6.003   3.438   1.137
 2144WAT     H2 6675   5.852   3.495   1.113
 2145WAT      O 6676   7.809   9.037   0.216
 2145WAT     H1 6677   7.853   8.965   0.270
 2145WAT     H2 6678   7.848   9.037   0.124
 2146WAT      O 6679   3.170   5.034   2.036
 2146WAT     H1 6680   3.107   5.012   2.110
 2146WAT     H2 6681   3.133   4.998   1.950
 2147WAT      O 6682   1.356   3.799   0.894
 2147WAT     H1 6683   1.299   3.818   0.974
 2147WAT     H2 6684   1.446   3.840   0.907
 2148WAT      O 6685   7.382   7.232   7.572
 2148WAT     H1 6686   7.314   7.263   7.505
 2148WAT     H2 6687   7.473   7.237   7.532
 2149WAT      O 6688   2.702   6.035   1.410
 2149WAT     H1 6689   2.722   6.025   1.313
 2149WAT     H2 6690   2.606   6.014   1.427
 2150WAT      O 6691   7.843   4.269   8.223
 2150WAT     H1 6692   7.895   4.353   8.209
 2150WAT     H2 6693   7.753   4.279   8.180
 2151WAT      O 6694   9.617   8.204   6.055
 2151WAT     H1 6695   9.535   8.257   6.036
 2151WAT     H2 6696   9.698   8.259   6.038
 2152WAT      O 6697   7.585   6.316   8.553
 2152WAT     H1 6698   7.651   6.344   8.484
 2152WAT     H2 6699   7.493   6.321   8.515
 2153WAT      O 6700   3.537   7.609   2.436
 2153WAT     H1 6701   3.532   7.665   2.354
 2153WAT     H2 6702   3.590   7.657   2.506
 2154WAT      O 6703   8.941   2.521   0.395
 2154WAT     H1 6704   9.041   2.528   0.390
 2154WAT     H2 6705   8.900   2.606   0.361
 2155WAT      O 6706   4.954   2.967   9.445
 2155WAT     H1 6707   4.925   2.986   9.539
 2155WAT     H2 6708   4.975   2.870   9.436
 2156WAT      O 6709   2.458   4.117   1.142
 2156WAT     H1 6710   2.367   4.131   1.181
 2156WAT     H2 6711   2.452   4.057   1.062
 2157WAT      O 6712   1.241   3.266   0.057
 2157WAT     H1 6713   1.248   3.194   0.126
 2157WAT     H2 6714   1.154   3.314   0.068
 2158WAT      O 6715   7.559   2.525   2.537
 2158WAT     H1 6716   7.504   2.604   2.511
 2158WAT     H2 6717   7.625   2.506   2.465
 2159WAT      O 6718   6.225   9.446   1.354
 2159WAT     H1 6719   6.185   9.365   1.396
 2159WAT     H2 6720   6.154   9.513   1.336
 2160WAT      O 6721   1.509   5.796   9.739
 2160WAT     H1 6722   1.514   5.870   9.672
 2160WAT     H2 6723   1.413   5.776   9.760
 2161WAT      O 6724   9.651   8.905   8.994
 2161WAT     H1 6725   9.661   8.857   8.908
 2161WAT     H2 6726   9.565   8.879   9.038
 2162WAT      O 6727   3.538   4.492   3.741
 2162WAT     H1 6728   3.476   4.521   3.815
 2162WAT     H2 6729   3.488   4.492   3.655
 2163WAT      O 6730   3.528   0.604   2.775
 2163WAT     H1 6731   3.438   0.644   2.754
 2163WAT     H2 6732   3.600   0.665   2.741
 2164WAT      O 6733   6.287   1.038   9.540
 2164WAT     H1 6734   6.358   1.038   9.470
 2164WAT     H2 6735   6.215   0.974   9.515
 2165WAT      O 6736   7.716   0.719   5.648
 2165WAT     H1 6737   7.643   0.699   5.713
 2165WAT     H2 6738   7.784   0.646   5.650
 2166WAT      O 6739   6.679   5.246   5.605
 2166WAT     H1 6740   6.712   5.194   5.526
 2166WAT     H2 6741   6.621   5.322   5.573
 2167WAT      O 6742   5.886   1.501   7.544
 2167WAT     H1 6743   5.817   1.573   7.538
 2167WAT     H2 6744   5.977   1.541   7.534
 2168WAT      O 6745   3.017   3.103   3.852
 2168WAT     H1 6746   3.112   3.114   3.881
 2168WAT     H2 6747   3.007   3.016   3.803
 2169WAT      O 6748   5.417   1.590   5.772
 2169WAT     H1 6749   5.345   1.646   5.730
 2169WAT     H2 6750   5.380   1.501   5.797
 2170WAT      O 6751   6.416   4.844   6.534
 2170WAT     H1 6752   6.336   4.855   6.593
 2170WAT     H2 6753   6.447   4.934   6.504
 2171WAT      O 6754   2.644   2.591   3.746
 2171WAT     H1 6755   2.666   2.494   3.754
 2171WAT     H2 6756   2.609   2.610   3.654
 2172WAT      O 6757   7.781   0.565   3.116
 2172WAT     H1 6758   7.796   0.581   3.213
 2172WAT     H2 6759   7.756   0.651   3.071
 2173WAT      O 6760   8.985   1.147   2.750
 2173WAT     H1 6761   9.039   1.172   2.670
 2173WAT     H2 6762   8.932   1.064   2.730
 2174WAT      O 6763   2.638   7.967   8.242
 2174WAT     H1 6764   2.658   8.005   8.151
 2174WAT     H2 6765   2.706   7.897   8.264
 2175WAT      O 6766   0.131   4.763   8.879
 2175WAT     H1 6767   0.047   4.710   8.885
 2175WAT     H2 6768   0.201   4.710   8.831
 2176WAT      O 6769   2.349   8.318   4.243
 2176WAT     H1 6770   2.412   8.374   4.189
 2176WAT     H2 6771   2.390   8.299   4.332
 2177WAT      O 6772   8.078   5.934   0.790
 2177WAT     H1 6773   8.022   5.988   0.852
 2177WAT     H2 6774   8.020   5.891   0.720
 2178WAT      O 6775   7.348   3.354   4.590
 2178WAT     H1 6776   7.353   3.272   4.647
 2178WAT     H2 6777   7.270   3.409   4.619
 2179WAT      O 6778   5.154   5.122   4.775
 2179WAT     H1 6779   5.167   5.118   4.874
 2179WAT     H2 6780   5.174   5.214   4.742
 2180WAT      O 6781   7.096   7.819   0.386
 2180WAT     H1 6782   7.053   7.904   0.417
 2180WAT     H2 6783   7.038   7.741   0.410
 2181WAT      O 6784   4.440   8.673   0.293
 2181WAT     H1 6785   4.423   8.707   0.201
 2181WAT     H2 6786   4.463   8.576   0.288
 2182WAT      O 6787   4.441   4.581   4.821
 2182WAT     H1 6788   4.442   4.497   4.875
 2182WAT     H2 6789   4.444   4.557   4.723
 2183WAT      O 6790   6.807   1.463   3.854
 2183WAT     H1 6791   6.737   1.418   3.909
 2183WAT     H2 6792   6.888   1.481   3.910
 2184WAT      O 6793   7.105   8.193   3.729
 2184WAT     H1 6794   7.014   8.228   3.706
 2184WAT     H2 6795   7.175   8.254   3.691
 2185WAT      O 6796   4.093   4.834   0.191
 2185WAT     H1 6797   4.048   4.813   0.104
 2185WAT     H2 6798   4.184   4.792   0.193
 2186WAT      O 6799   4.889   2.006   4.748
 2186WAT     H1 6800   4.797   2.029   4.779
 2186WAT     H2 6801   4.929   2.085   4.702
 2187WAT      O 6802   5.733   1.930   0.663
 2187WAT     H1 6803   5.759   1.836   0.644
 2187WAT     H2 6804   5.709   1.976   0.577
 2188WAT      O 6805   0.034   2.346   7.303
 2188WAT     H1 6806  -0.058   2.378   7.280
 2188WAT     H2 6807   0.089   2.423   7.335
 2189WAT      O 6808   9.782   5.631   5.886
 2189WAT     H1 6809   9.821   5.720   5.909
 2189WAT     H2 6810   9.793   5.568   5.963
 2190WAT      O 6811   3.122   4.879   3.920
 2190WAT     H1 6812   3.183   4.888   3.841
 2190WAT     H2 6813   3.066   4.796   3.910
 2191WAT      O 6814   0.915   8.123   8.995
 2191WAT     H1 6815   0.853   8.093   9.067
 2191WAT     H2 6816   0.907   8.222   8.982
 2192WAT      O 6817   4.730   6.881   6.308
 2192WAT     H1 6818   4.672   6.818   6.359
 2192WAT     H2 6819   4.674   6.930   6.241
 2193WAT      O 6820   4.970   7.797   5.701
 2193WAT     H1 6821   5.004   7.726   5.763
 2193WAT     H2 6822   4.896   7.848   5.746
 2194WAT      O 6823   5.080   7.138   8.474
 2194WAT     H1 6824   5.004   7.086   8.434
 2194WAT     H2 6825   5.093   7.223   8.424
 2195WAT      O 6826   4.810   0.846   0.212
 2195WAT     H1 6827   4.815   0.933   0.163
 2195WAT     H2 6828   4.757   0.859   0.296
 2196WAT      O 6829   0.349   8.698   0.059
 2196WAT     H1 6830   0.431   8.736   0.016
 2196WAT     H2 6831   0.340   8.735   0.152
 2197WAT      O 6832   0.385   8.916   7.313
 2197WAT     H1 6833   0.372   8.979   7.237
 2197WAT     H2 6834   0.297   8.877   7.340
 2198WAT      O 6835   6.964   9.651   8.607
 2198WAT     H1 6836   6.877   9.627   8.651
 2198WAT     H2 6837   6.964   9.618   8.513
 2199WAT      O 6838   4.131   6.573   3.791
 2199WAT     H1 6839   4.105   6.623   3.708
 2199WAT     H2 6840   4.211   6.516   3.772
 2200WAT      O 6841   8.669   7.949   1.768
 2200WAT     H1 6842   8.597   7.966   1.701
 2200WAT     H2 6843   8.721   7.868   1.741
 2201WAT      O 6844   5.390   5.364   1.261
 2201WAT     H1 6845   5.344   5.449   1.287
 2201WAT     H2 6846   5.340   5.286   1.300
 2202WAT      O 6847   5.553   1.332   2.553
 2202WAT     H1 6848   5.589   1.417   2.515
 2202WAT     H2 6849   5.489   1.291   2.487
 2203WAT      O 6850   4.407   2.928   0.859
 2203WAT     H1 6851   4.322   2.927   0.912
 2203WAT     H2 6852   4.425   3.021   0.826
 2204WAT      O 6853   1.278   4.444   9.876
 2204WAT     H1 6854   1.194   4.486   9.844
 2204WAT     H2 6855   1.311   4.379   9.808
 2205WAT      O 6856   7.866   6.208   8.167
 2205WAT     H1 6857   7.958   6.171   8.161
 2205WAT     H2 6858   7.834   6.201   8.262
 2206WAT      O 6859   8.653   1.437   1.216
 2206WAT     H1 6860   8.673   1.418   1.120
 2206WAT     H2 6861   8.733   1.478   1.259
 2207WAT      O 6862   9.702   3.334   1.624
 2207WAT     H1 6863   9.694   3.433   1.617
 2207WAT     H2 6864   9.774   3.302   1.561
 2208WAT      O 6865   3.118   5.545   2.316
 2208WAT     H1 6866   3.146   5.599   2.395
 2208WAT     H2 6867   3.038   5.588   2.274
 2209WAT      O 6868   5.446   1.724   6.706
 2209WAT     H1 6869   5.507   1.773   6.643
 2209WAT     H2 6870   5.422   1.785   6.783
 2210WAT      O 6871   3.545   0.396   0.715
 2210WAT     H1 6872   3.575   0.367   0.624
 2210WAT     H2 6873   3.597   0.346   0.784
 2211WAT      O 6874   9.233   4.005   0.443
 2211WAT     H1 6875   9.196   3.912   0.439
 2211WAT     H2 6876   9.204   4.049   0.527
 2212WAT      O 6877   1.155   2.217   0.765
 2212WAT     H1 6878   1.102   2.228   0.681
 2212WAT     H2 6879   1.152   2.301   0.819
 2213WAT      O 6880   4.395   3.819   6.041
 2213WAT     H1 6881   4.375   3.734   6.090
 2213WAT     H2 6882   4.443   3.799   5.956
 2214WAT      O 6883   6.190   7.074   8.932
 2214WAT     H1 6884   6.099   7.066   8.971
 2214WAT     H2 6885   6.250   7.125   8.994
 2215WAT      O 6886   7.626   3.807   7.923
 2215WAT     H1 6887   7.532   3.839   7.914
 2215WAT     H2 6888   7.637   3.720   7.875
 2216WAT      O 6889   8.810   9.468   4.811
 2216WAT     H1 6890   8.725   9.515   4.786
 2216WAT     H2 6891   8.861   9.525   4.876
 2217WAT      O 6892   2.244   8.630   3.492
 2217WAT     H1 6893   2.309   8.692   3.448
 2217WAT     H2 6894   2.201   8.676   3.569
 2218WAT      O 6895   0.702   6.540   8.526
 2218WAT     H1 6896   0.725   6.637   8.537
 2218WAT     H2 6897   0.729   6.491   8.609
 2219WAT      O 6898   0.266   1.389   1.173
 2219WAT     H1 6899   0.237   1.374   1.267
 2219WAT     H2 6900   0.275   1.301   1.126
 2220WAT      O 6901   6.799   3.145   7.755
 2220WAT     H1 6902   6.774   3.200   7.675
 2220WAT     H2 6903   6.762   3.188   7.838
 2221WAT      O 6904   6.483   7.027   7.043
 2221WAT     H1 6905   6.546   6.985   6.978
 2221WAT     H2 6906   6.417   7.083   6.994
 2222WAT      O 6907   9.635   3.859   1.688
 2222WAT     H1 6908   9.600   3.859   1.782
 2222WAT     H2 6909   9.561   3.880   1.624
 2223WAT      O 6910   7.894   2.913   8.164
 2223WAT     H1 6911   7.809   2.910   8.111
 2223WAT     H2 6912   7.886   2.854   8.244
 2224WAT      O 6913   4.601   4.945   5.154
 2224WAT     H1 6914   4.605   4.937   5.055
 2224WAT     H2 6915   4.669   5.013   5.184
 2225WAT      O 6916   0.060   7.928   9.545
 2225WAT     H1 6917   0.020   7.920   9.453
 2225WAT     H2 6918   0.046   7.842   9.595
 2226WAT      O 6919   7.314   0.899   2.849
 2226WAT     H1 6920   7.346   0.854   2.932
 2226WAT     H2 6921   7.364   0.863   2.770
 2227WAT      O 6922   3.770   9.625   9.324
 2227WAT     H1 6923   3.703   9.625   9.249
 2227WAT     H2 6924   3.729   9.584   9.405
 2228WAT      O 6925   7.829   8.070   0.925
 2228WAT     H1 6926   7.754   8.102   0.983
 2228WAT     H2 6927   7.914   8.070   0.977
 2229WAT      O 6928   0.499   0.964   9.160
 2229WAT     H1 6929   0.437   1.011   9.222
 2229WAT     H2 6930   0.485   0.997   9.067
 2230WAT      O 6931   3.785   5.740   6.024
 2230WAT     H1 6932   3.856   5.730   6.093
 2230WAT     H2 6933   3.823   5.782   5.942
 2231WAT      O 6934   6.188   3.887   7.468
 2231WAT     H1 6935   6.127   3.867   7.544
 2231WAT     H2 6936   6.141   3.870   7.381
 2232WAT      O 6937   7.802   9.441   5.736
 2232WAT     H1 6938   7.841   9.516   5.683
 2232WAT     H2 6939   7.861   9.422   5.815
 2233WAT      O 6940   9.830   0.727   9.258
 2233WAT     H1 6941   9.920   0.697   9.290
 2233WAT     H2 6942   9.836   0.822   9.226
 2234WAT      O 6943   6.712   5.107   3.324
 2234WAT     H1 6944   6.797   5.057   3.311
 2234WAT     H2 6945   6.682   5.144   3.236
 2235WAT      O 6946   5.727   7.229   4.909
 2235WAT     H1 6947   5.738   7.149   4.850
 2235WAT     H2 6948   5.630   7.251   4.917
 2236WAT      O 6949   2.914   6.074   4.392
 2236WAT     H1 6950   2.906   6.128   4.308
 2236WAT     H2 6951   2.934   5.979   4.368
 2237WAT      O 6952   6.520   2.423   2.318
 2237WAT     H1 6953   6.570   2.339   2.339
 2237WAT     H2 6954   6.584   2.490   2.279
 2238WAT      O 6955   3.823   5.065   0.098
 2238WAT     H1 6956   3.763   4.993   0.063
 2238WAT     H2 6957   3.856   5.121   0.021
 2239WAT      O 6958   1.537   3.034   1.844
 2239WAT     H1 6959   1.452   3.068   1.884
 2239WAT     H2 6960   1.551   2.938   1.870
 2240WAT      O 6961   3.224   3.481   1.085
 2240WAT     H1 6962   3.142   3.426   1.099
 2240WAT     H2 6963   3.255   3.518   1.172
 2241WAT      O 6964   5.887   0.417   4.009
 2241WAT     H1 6965   5.798   0.463   3.998
 2241WAT     H2 6966   5.955   0.462   3.952
 2242WAT      O 6967   7.931   4.938   3.239
 2242WAT     H1 6968   7.976   4.900   3.158
 2242WAT     H2 6969   7.833   4.946   3.222
 2243WAT      O 6970   2.865   8.594   5.322
 2243WAT     H1 6971   2.785   8.567   5.270
 2243WAT     H2 6972   2.874   8.536   5.403
 2244WAT      O 6973   5.009   6.041   9.292
 2244WAT     H1 6974   5.105   6.045   9.322
 2244WAT     H2 6975   4.992   5.953   9.248
 2245WAT      O 6976   0.148   2.295   2.087
 2245WAT     H1 6977   0.213   2.223   2.111
 2245WAT     H2 6978   0.063   2.253   2.054
 2246WAT      O 6979   0.318   1.096   9.342
 2246WAT     H1 6980   0.317   1.057   9.433
 2246WAT     H2 6981   0.329   1.196   9.349
 2247WAT      O 6982   7.542   4.985   0.188
 2247WAT     H1 6983   7.592   5.053   0.133
 2247WAT     H2 6984   7.495   5.031   0.263
 2248WAT      O 6985   8.862   1.160   0.361
 2248WAT     H1 6986   8.884   1.222   0.436
 2248WAT     H2 6987   8.860   1.066   0.395
 2249WAT      O 6988   4.946   0.045   5.258
 2249WAT     H1 6989   4.979   0.017   5.349
 2249WAT     H2 6990   4.869  -0.012   5.232
 2250WAT      O 6991   6.161   5.445   5.616
 2250WAT     H1 6992   6.145   5.370   5.552
 2250WAT     H2 6993   6.224   5.414   5.688
 2251WAT      O 6994   4.367   0.392   6.301
 2251WAT     H1 6995   4.271   0.401   6.330
 2251WAT     H2 6996   4.378   0.433   6.211
 2252WAT      O 6997   0.561   8.124   7.607
 2252WAT     H1 6998   0.635   8.185   7.632
 2252WAT     H2 6999   0.597   8.032   7.590
 2253WAT      O 7000   9.108   8.954   5.500
 2253WAT     H1 7001   9.071   9.039   5.538
 2253WAT     H2 7002   9.157   8.975   5.416
 2254WAT      O 7003   8.183   9.827   8.878
 2254WAT     H1 7004   8.107   9.852   8.939
 2254WAT     H2 7005   8.257   9.893   8.888
 2255WAT      O 7006   3.624   6.134   5.663
 2255WAT     H1 7007   3.623   6.071   5.586
 2255WAT     H2 7008   3.554   6.106   5.729
 2256WAT      O 7009   0.794   2.726   2.373
 2256WAT     H1 7010   0.708   2.686   2.342
 2256WAT     H2 7011   0.774   2.813   2.419
 2257WAT      O 7012   8.946   9.665   8.205
 2257WAT     H1 7013   8.905   9.609   8.134
 2257WAT     H2 7014   9.040   9.635   8.221
 2258WAT      O 7015   9.607   5.252   5.172
 2258WAT     H1 7016   9.605   5.332   5.231
 2258WAT     H2 7017   9.695   5.249   5.123
 2259WAT      O 7018   9.803   9.624   6.792
 2259WAT     H1 7019   9.893   9.606   6.753
 2259WAT     H2 7020   9.745   9.667   6.723
 2260WAT      O 7021   3.240   8.083   0.896
 2260WAT     H1 7022   3.218   8.026   0.976
 2260WAT     H2 7023   3.187   8.168   0.901
 2261WAT      O 7024   5.913   8.777   3.006
 2261WAT     H1 7025   5.883   8.682   3.015
 2261WAT     H2 7026   6.001   8.789   3.051
 2262WAT      O 7027   4.294   1.418   3.195
 2262WAT     H1 7028   4.268   1.477   3.272
 2262WAT     H2 7029   4.228   1.430   3.120
 2263WAT      O 7030   2.691   5.266   0.869
 2263WAT     H1 7031   2.746   5.338   0.912
 2263WAT     H2 7032   2.604   5.305   0.839
 2264WAT      O 7033   4.535   7.263   3.815
 2264WAT     H1 7034   4.598   7.267   3.737
 2264WAT     H2 7035   4.545   7.175   3.861
 2265WAT      O 7036   5.840   2.092   9.832
 2265WAT     H1 7037   5.772   2.161   9.858
 2265WAT     H2 7038   5.913   2.090   9.900
 2266WAT      O 7039   7.695   3.695   4.622
 2266WAT     H1 7040   7.642   3.636   4.561
 2266WAT     H2 7041   7.640   3.716   4.704
 2267WAT      O 7042   6.608   6.399   2.566
 2267WAT     H1 7043   6.534   6.466   2.555
 2267WAT     H2 7044   6.580   6.329   2.632
 2268WAT      O 7045   9.399   5.366   2.680
 2268WAT     H1 7046   9.481   5.319   2.647
 2268WAT     H2 7047   9.318   5.314   2.653
 2269WAT      O 7048   4.121   5.410   0.438
 2269WAT     H1 7049   4.129   5.339   0.507
 2269WAT     H2 7050   4.208   5.420   0.390
 2270WAT      O 7051   5.246   8.244   6.213
 2270WAT     H1 7052   5.293   8.248   6.301
 2270WAT     H2 7053   5.173   8.175   6.217
 2271WAT      O 7054   9.771   5.582   8.573
 2271WAT     H1 7055   9.690   5.640   8.587
 2271WAT     H2 7056   9.827   5.583   8.656
 2272WAT      O 7057   1.206   1.041   9.031
 2272WAT     H1 7058   1.147   1.101   9.085
 2272WAT     H2 7059   1.286   1.091   8.999
 2273WAT      O 7060   4.709   1.735   4.989
 2273WAT     H1 7061   4.782   1.668   4.998
 2273WAT     H2 7062   4.631   1.693   4.943
 2274WAT      O 7063   5.441   1.009   3.356
 2274WAT     H1 7064   5.344   0.994   3.375
 2274WAT     H2 7065   5.456   1.107   3.340
 2275WAT      O 7066   3.516   6.035   9.186
 2275WAT     H1 7067   3.423   6.038   9.150
 2275WAT     H2 7068   3.523   5.964   9.256
 2276WAT      O 7069   5.271   9.473   8.077
 2276WAT     H1 7070   5.370   9.484   8.083
 2276WAT     H2 7071   5.249   9.396   8.018
 2277WAT      O 7072   1.985   3.742   1.758
 2277WAT     H1 7073   2.024   3.674   1.696
 2277WAT     H2 7074   2.034   3.739   1.846
 2278WAT      O 7075   4.825   7.296   0.099
 2278WAT     H1 7076   4.892   7.305   0.025
 2278WAT     H2 7077   4.753   7.364   0.087
 2279WAT      O 7078   8.493   3.931   6.257
 2279WAT     H1 7079   8.486   3.857   6.324
 2279WAT     H2 7080   8.542   4.008   6.298
 2280WAT      O 7081   1.242   8.199   7.868
 2280WAT     H1 7082   1.197   8.161   7.949
 2280WAT     H2 7083   1.316   8.138   7.840
 2281WAT      O 7084   7.271   0.113   4.864
 2281WAT     H1 7085   7.248   0.201   4.823
 2281WAT     H2 7086   7.263   0.120   4.964
 2282WAT      O 7087   8.447   5.164   5.698
 2282WAT     H1 7088   8.509   5.234   5.733
 2282WAT     H2 7089   8.353   5.197   5.703
 2283WAT      O 7090   8.820   4.111   4.245
 2283WAT     H1 7091   8.783   4.191   4.292
 2283WAT     H2 7092   8.768   4.094   4.161
 2284WAT      O 7093   5.060   3.659   1.410
 2284WAT     H1 7094   5.118   3.699   1.480
 2284WAT     H2 7095   4.985   3.608   1.453
 2285WAT      O 7096   6.050   5.553   0.858
 2285WAT     H1 7097   5.967   5.600   0.830
 2285WAT     H2 7098   6.052   5.461   0.818
 2286WAT      O 7099   5.572   4.432   3.199
 2286WAT     H1 7100   5.671   4.435   3.214
 2286WAT     H2 7101   5.533   4.522   3.213
 2287WAT      O 7102   2.786   7.077   1.797
 2287WAT     H1 7103   2.720   7.073   1.722
 2287WAT     H2 7104   2.741   7.047   1.881
 2288WAT      O 7105   7.776   7.522   1.135
 2288WAT     H1 7106   7.699   7.585   1.151
 2288WAT     H2 7107   7.801   7.477   1.221
 2289WAT      O 7108   7.104   0.833   8.773
 2289WAT     H1 7109   7.175   0.804   8.708
 2289WAT     H2 7110   7.140   0.826   8.866
 2290WAT      O 7111   9.831   9.475   7.716
 2290WAT     H1 7112   9.812   9.550   7.779
 2290WAT     H2 7113   9.880   9.402   7.764
 2291WAT      O 7114   6.713   4.567   0.303
 2291WAT     H1 7115   6.716   4.667   0.310
 2291WAT     H2 7116   6.783   4.528   0.363
 2292WAT      O 7117   9.659   1.066   0.954
 2292WAT     H1 7118   9.695   1.075   1.047
 2292WAT     H2 7119   9.669   0.971   0.924
 2293WAT      O 7120   4.655   8.918   2.074
 2293WAT     H1 7121   4.624   8.852   2.006
 2293WAT     H2 7122   4.748   8.896   2.102
 2294WAT      O 7123   0.959   3.207   7.789
 2294WAT     H1 7124   0.886   3.203   7.857
 2294WAT     H2 7125   0.927   3.259   7.710
 2295WAT      O 7126   1.672   0.723   3.564
 2295WAT     H1 7127   1.739   0.782   3.519
 2295WAT     H2 7128   1.688   0.721   3.662
 2296WAT      O 7129   8.386   3.572   7.348
 2296WAT     H1 7130   8.359   3.611   7.436
 2296WAT     H2 7131   8.357   3.476   7.345
 2297WAT      O 7132   0.254   3.287   5.998
 2297WAT     H1 7133   0.343   3.300   6.042
 2297WAT     H2 7134   0.240   3.358   5.929
 2298WAT      O 7135   2.090   9.279   1.250
 2298WAT     H1 7136   2.155   9.282   1.174
 2298WAT     H2 7137   2.072   9.184   1.275
 2299WAT      O 7138   5.497   1.401   1.982
 2299WAT     H1 7139   5.493   1.481   2.042
 2299WAT     H2 7140   5.431   1.412   1.907
 2300WAT      O 7141   5.912   1.112   8.580
 2300WAT     H1 7142   5.907   1.212   8.577
 2300WAT     H2 7143   5.939   1.082   8.671
 2301WAT      O 7144   1.207   3.411   9.385
 2301WAT     H1 7145   1.133   3.381   9.323
 2301WAT     H2 7146   1.173   3.483   9.445
 2302WAT      O 7147   6.739   6.596   2.968
 2302WAT     H1 7148   6.737   6.628   2.873
 2302WAT     H2 7149   6.677   6.517   2.977
 2303WAT      O 7150   3.591   1.348   1.320
 2303WAT     H1 7151   3.626   1.436   1.289
 2303WAT     H2 7152   3.600   1.281   1.246
 2304WAT      O 7153   6.737   9.654   4.879
 2304WAT     H1 7154   6.834   9.634   4.896
 2304WAT     H2 7155   6.695   9.685   4.964
 2305WAT      O 7156   9.304   3.813   8.796
 2305WAT     H1 7157   9.311   3.713   8.793
 2305WAT     H2 7158   9.243   3.840   8.870
 2306WAT      O 7159   8.541   8.607   5.257
 2306WAT     H1 7160   8.465   8.564   5.210
 2306WAT     H2 7161   8.544   8.577   5.352
 2307WAT      O 7162   7.965   0.041   9.039
 2307WAT     H1 7163   7.893   0.049   8.971
 2307WAT     H2 7164   7.954   0.112   9.109
 2308WAT      O 7165   8.379   9.350   3.926
 2308WAT     H1 7166   8.412   9.442   3.906
 2308WAT     H2 7167   8.363   9.301   3.839
 2309WAT      O 7168   1.451   1.106   6.384
 2309WAT     H1 7169   1.485   1.198   6.362
 2309WAT     H2 7170   1.497   1.039   6.325
 2310WAT      O 7171   4.471   6.751   1.310
 2310WAT     H1 7172   4.457   6.682   1.239
 2310WAT     H2 7173   4.494   6.838   1.267
 2311WAT      O 7174   0.202   3.783   8.612
 2311WAT     H1 7175   0.292   3.782   8.654
 2311WAT     H2 7176   0.151   3.702   8.639
 2312WAT      O 7177   6.898   0.901   2.505
 2312WAT     H1 7178   6.980   0.949   2.537
 2312WAT     H2 7179   6.817   0.940   2.549
 2313WAT      O 7180   9.754   7.893   9.842
 2313WAT     H1 7181   9.814   7.837   9.785
 2313WAT     H2 7182   9.802   7.977   9.868
 2314WAT      O 7183   2.809   4.497   5.545
 2314WAT     H1 7184   2.837   4.483   5.450
 2314WAT     H2 7185   2.859   4.575   5.583
 2315WAT      O 7186   7.972   0.509   8.124
 2315WAT     H1 7187   7.927   0.545   8.043
 2315WAT     H2 7188   8.053   0.564   8.145
 2316WAT      O 7189   8.157   2.649   7.644
 2316WAT     H1 7190   8.078   2.656   7.704
 2316WAT     H2 7191   8.133   2.685   7.553
 2317WAT      O 7192   1.550   8.249   4.440
 2317WAT     H1 7193   1.649   8.245   4.427
 2317WAT     H2 7194   1.504   8.215   4.358
 2318WAT      O 7195   0.050   1.497   9.574
 2318WAT     H1 7196   0.140   1.457   9.594
 2318WAT     H2 7197  -0.015   1.424   9.555
 2319WAT      O 7198   2.586   3.456   3.478
 2319WAT     H1 7199   2.541   3.495   3.558
 2319WAT     H2 7200   2.676   3.498   3.467
 2320WAT      O 7201   3.080   4.458   4.407
 2320WAT     H1 7202   3.160   4.399   4.396
 2320WAT     H2 7203   3.047   4.488   4.317
 2321WAT      O 7204   4.194   8.377   4.897
 2321WAT     H1 7205   4.249   8.458   4.883
 2321WAT     H2 7206   4.167   8.371   4.994
 2322WAT      O 7207   4.102   0.468   6.463
 2322WAT     H1 7208   4.079   0.523   6.383
 2322WAT     H2 7209   4.026   0.470   6.528
 2323WAT      O 7210   1.432   7.553   3.516
 2323WAT     H1 7211   1.453   7.587   3.608
 2323WAT     H2 7212   1.336   7.571   3.496
 2324WAT      O 7213   6.372   8.800   8.783
 2324WAT     H1 7214   6.289   8.796   8.727
 2324WAT     H2 7215   6.448   8.761   8.731
 2325WAT      O 7216   5.743   4.794   0.088
 2325WAT     H1 7217   5.803   4.716   0.105
 2325WAT     H2 7218   5.777   4.845   0.009
 2326WAT      O 7219   7.614   7.266   0.153
 2326WAT     H1 7220   7.557   7.349   0.154
 2326WAT     H2 7221   7.629   7.238   0.058
 2327WAT      O 7222   1.010   6.073   5.341
 2327WAT     H1 7223   1.061   6.107   5.263
 2327WAT     H2 7224   0.992   6.149   5.404
 2328WAT      O 7225   9.099   6.338   3.739
 2328WAT     H1 7226   9.179   6.311   3.792
 2328WAT     H2 7227   9.045   6.404   3.792
 2329WAT      O 7228   6.848   7.887   6.380
 2329WAT     H1 7229   6.761   7.899   6.332
 2329WAT     H2 7230   6.920   7.937   6.331
 2330WAT      O 7231   5.447   9.836   8.907
 2330WAT     H1 7232   5.445   9.830   8.807
 2330WAT     H2 7233   5.460   9.744   8.945
 2331WAT      O 7234   3.927   5.367   2.708
 2331WAT     H1 7235   3.863   5.343   2.780
 2331WAT     H2 7236   3.910   5.461   2.677
 2332WAT      O 7237   2.263   3.426   5.047
 2332WAT     H1 7238   2.230   3.519   5.065
 2332WAT     H2 7239   2.211   3.361   5.102
 2333WAT      O 7240   8.396   2.545   7.663
 2333WAT     H1 7241   8.466   2.610   7.632
 2333WAT     H2 7242   8.306   2.587   7.656
 2334WAT      O 7243   1.300   4.308   4.686
 2334WAT     H1 7244   1.326   4.404   4.679
 2334WAT     H2 7245   1.263   4.291   4.778
 2335WAT      O 7246   4.971   6.250   1.480
 2335WAT     H1 7247   4.966   6.212   1.387
 2335WAT     H2 7248   5.034   6.327   1.481
 2336WAT      O 7249   4.218   1.132   2.528
 2336WAT     H1 7250   4.136   1.090   2.566
 2336WAT     H2 7251   4.292   1.064   2.526
 2337WAT      O 7252   8.515   8.384   4.207
 2337WAT     H1 7253   8.521   8.301   4.151
 2337WAT     H2 7254   8.420   8.397   4.236
 2338WAT      O 7255   1.906   2.902   7.020
 2338WAT     H1 7256   1.869   2.889   7.112
 2338WAT     H2 7257   1.933   2.813   6.982
 2339WAT      O 7258   8.525   4.854   7.303
 2339WAT     H1 7259   8.494   4.851   7.398
 2339WAT     H2 7260   8.475   4.925   7.254
 2340WAT      O 7261   0.128   2.750   0.324
 2340WAT     H1 7262   0.052   2.776   0.384
 2340WAT     H2 7263   0.113   2.790   0.233
 2341WAT      O 7264   7.801   5.068   0.041
 2341WAT     H1 7265   7.747   5.064  -0.043
 2341WAT     H2 7266   7.890   5.024   0.026
 2342WAT      O 7267   0.685   0.206   4.111
 2342WAT     H1 7268   0.748   0.230   4.185
 2342WAT     H2 7269   0.603   0.263   4.117
 2343WAT      O 7270   5.600   4.957   6.123
 2343WAT     H1 7271   5.585   5.044   6.075
 2343WAT     H2 7272   5.692   4.924   6.103
 2344WAT      O 7273   7.383   6.317   6.128
 2344WAT     H1 7274   7.385   6.248   6.055
 2344WAT     H2 7275   7.477   6.340   6.155
 2345WAT      O 7276   1.727   0.721   7.124
 2345WAT     H1 7277   1.652   0.737   7.058
 2345WAT     H2 7278   1.781   0.805   7.133
 2346WAT      O 7279   2.267   3.385   4.779
 2346WAT     H1 7280   2.215   3.468   4.756
 2346WAT     H2 7281   2.274   3.377   4.878
 2347WAT      O 7282   6.310   7.937   3.508
 2347WAT     H1 7283   6.248   7.867   3.542
 2347WAT     H2 7284   6.404   7.903   3.511
 2348WAT      O 7285   2.125   0.783   8.369
 2348WAT     H1 7286   2.061   0.849   8.329
 2348WAT     H2 7287   2.125   0.794   8.468
 2349WAT      O 7288   4.488   7.437   3.198
 2349WAT     H1 7289   4.459   7.343   3.182
 2349WAT     H2 7290   4.586   7.440   3.217
 2350WAT      O 7291   5.885   6.966   8.766
 2350WAT     H1 7292   5.934   6.899   8.822
 2350WAT     H2 7293   5.942   6.992   8.688
 2351WAT      O 7294   8.586   9.417   8.827
 2351WAT     H1 7295   8.580   9.368   8.740
 2351WAT     H2 7296   8.544   9.507   8.817
 2352WAT      O 7297   0.300   6.002   7.595
 2352WAT     H1 7298   0.274   5.971   7.686
 2352WAT     H2 7299   0.350   6.089   7.603
 2353WAT      O 7300   5.317   2.610   7.805
 2353WAT     H1 7301   5.272   2.699   7.794
 2353WAT     H2 7302   5.247   2.538   7.809
 2354WAT      O 7303   4.164   5.426   8.293
 2354WAT     H1 7304   4.140   5.364   8.368
 2354WAT     H2 7305   4.163   5.375   8.207
 2355WAT      O 7306   2.784   7.856   8.821
 2355WAT     H1 7307   2.849   7.820   8.755
 2355WAT     H2 7308   2.833   7.910   8.890
 2356WAT      O 7309   9.747   8.393   6.569
 2356WAT     H1 7310   9.651   8.411   6.593
 2356WAT     H2 7311   9.765   8.426   6.477
 2357WAT      O 7312   2.226   1.388   2.830
 2357WAT     H1 7313   2.221   1.420   2.735
 2357WAT     H2 7314   2.170   1.448   2.888
 2358WAT      O 7315   9.470   4.955   7.857
 2358WAT     H1 7316   9.562   4.994   7.863
 2358WAT     H2 7317   9.476   4.855   7.860
 2359WAT      O 7318   8.401   7.500   5.068
 2359WAT     H1 7319   8.442   7.541   5.150
 2359WAT     H2 7320   8.309   7.537   5.055
 2360WAT      O 7321   7.379   0.919   8.085
 2360WAT     H1 7322   7.298   0.969   8.118
 2360WAT     H2 7323   7.374   0.824   8.116
 2361WAT      O 7324   1.220   5.197   7.131
 2361WAT     H1 7325   1.266   5.285   7.141
 2361WAT     H2 7326   1.190   5.164   7.221
 2362WAT      O 7327   2.239   5.586   5.474
 2362WAT     H1 7328   2.210   5.658   5.410
 2362WAT     H2 7329   2.287   5.515   5.423
 2363WAT      O 7330   0.564   5.094   5.761
 2363WAT     H1 7331   0.574   5.018   5.697
 2363WAT     H2 7332   0.614   5.173   5.727
 2364WAT      O 7333   0.130   8.877   3.357
 2364WAT     H1 7334   0.057   8.841   3.415
 2364WAT     H2 7335   0.213   8.823   3.369
 2365WAT      O 7336   6.088   8.416   6.260
 2365WAT     H1 7337   6.164   8.391   6.200
 2365WAT     H2 7338   6.002   8.388   6.218
 2366WAT      O 7339   6.485   5.685   1.766
 2366WAT     H1 7340   6.471   5.619   1.840
 2366WAT     H2 7341   6.473   5.640   1.678
 2367WAT      O 7342   7.191   0.741   0.675
 2367WAT     H1 7343   7.153   0.832   0.659
 2367WAT     H2 7344   7.262   0.747   0.745
 2368WAT      O 7345   6.267   3.883   4.361
 2368WAT     H1 7346   6.304   3.834   4.440
 2368WAT     H2 7347   6.343   3.917   4.305
 2369WAT      O 7348   0.103   1.550   8.127
 2369WAT     H1 7349   0.042   1.517   8.055
 2369WAT     H2 7350   0.183   1.595   8.085
 2370WAT      O 7351   0.259   3.342   2.541
 2370WAT     H1 7352   0.160   3.339   2.529
 2370WAT     H2 7353   0.300   3.387   2.462
 2371WAT      O 7354   5.472   0.202   5.167
 2371WAT     H1 7355   5.402   0.130   5.164
 2371WAT     H2 7356   5.554   0.170   5.119
 2372WAT      O 7357   1.416   8.953   4.383
 2372WAT     H1 7358   1.368   9.037   4.356
 2372WAT     H2 7359   1.450   8.962   4.476
 2373WAT      O 7360   8.601   2.918   9.106
 2373WAT     H1 7361   8.676   2.975   9.072
 2373WAT     H2 7362   8.527   2.917   9.039
 2374WAT      O 7363   4.766   4.764   2.028
 2374WAT     H1 7364   4.696   4.789   2.095
 2374WAT     H2 7365   4.854   4.803   2.057
 2375WAT      O 7366   5.295   5.034   6.113
 2375WAT     H1 7367   5.342   5.112   6.154
 2375WAT     H2 7368   5.345   4.950   6.135
 2376WAT      O 7369   7.889   0.898   2.240
 2376WAT     H1 7370   7.872   0.897   2.339
 2376WAT     H2 7371   7.906   0.805   2.208
 2377WAT      O 7372   1.427   7.673   2.619
 2377WAT     H1 7373   1.449   7.771   2.621
 2377WAT     H2 7374   1.491   7.626   2.558
 2378WAT      O 7375   1.888   6.048   5.729
 2378WAT     H1 7376   1.981   6.049   5.694
 2378WAT     H2 7377   1.847   5.958   5.711
 2379WAT      O 7378   8.852   8.336   4.271
 2379WAT     H1 7379   8.787   8.264   4.296
 2379WAT     H2 7380   8.807   8.425   4.279
 2380WAT      O 7381   4.960   2.803   1.537
 2380WAT     H1 7382   4.879   2.855   1.565
 2380WAT     H2 7383   4.931   2.712   1.505
 2381WAT      O 7384   9.290   7.655   7.998
 2381WAT     H1 7385   9.388   7.675   7.999
 2381WAT     H2 7386   9.262   7.621   8.088
 2382WAT      O 7387   9.722   1.413   9.862
 2382WAT     H1 7388   9.799   1.438   9.921
 2382WAT     H2 7389   9.671   1.495   9.836
 2383WAT      O 7390   9.144   4.651   0.764
 2383WAT     H1 7391   9.046   4.660   0.747
 2383WAT     H2 7392   9.159   4.632   0.861
 2384WAT      O 7393   1.226   7.490   7.325
 2384WAT     H1 7394   1.138   7.452   7.353
 2384WAT     H2 7395   1.300   7.435   7.363
 2385WAT      O 7396   4.206   7.202   0.950
 2385WAT     H1 7397   4.259   7.265   0.894
 2385WAT     H2 7398   4.185   7.245   1.038
 2386WAT      O 7399   3.977   5.006   6.482
 2386WAT     H1 7400   4.041   4.973   6.413
 2386WAT     H2 7401   4.025   5.064   6.548
 2387WAT      O 7402   7.099   4.982   6.551
 2387WAT     H1 7403   7.026   4.975   6.619
 2387WAT     H2 7404   7.096   4.902   6.491
 2388WAT      O 7405   7.810   2.734   5.182
 2388WAT     H1 7406   7.843   2.674   5.110
 2388WAT     H2 7407   7.722   2.774   5.155
 2389WAT      O 7408   2.397   7.225   6.239
 2389WAT     H1 7409   2.423   7.137   6.277
 2389WAT     H2 7410   2.405   7.222   6.139
 2390WAT      O 7411   0.365   3.445   2.312
 2390WAT     H1 7412   0.300   3.448   2.237
 2390WAT     H2 7413   0.447   3.498   2.288
 2391WAT      O 7414   5.270   6.848   0.655
 2391WAT     H1 7415   5.328   6.767   0.644
 2391WAT     H2 7416   5.196   6.828   0.719
 2392WAT      O 7417   5.011   9.424   1.112
 2392WAT     H1 7418   4.942   9.476   1.062
 2392WAT     H2 7419   5.015   9.331   1.076
 2393WAT      O 7420   0.073   5.696   1.609
 2393WAT     H1 7421   0.164   5.726   1.581
 2393WAT     H2 7422   0.069   5.690   1.709
 2394WAT      O 7423   2.825   4.055   8.835
 2394WAT     H1 7424   2.738   4.030   8.877
 2394WAT     H2 7425   2.893   3.984   8.854
 2395WAT      O 7426   1.804   7.393   9.611
 2395WAT     H1 7427   1.803   7.420   9.514
 2395WAT     H2 7428   1.834   7.470   9.667
 2396WAT      O 7429   7.829   3.001   7.716
 2396WAT     H1 7430   7.742   2.966   7.682
 2396WAT     H2 7431   7.812   3.076   7.780
 2397WAT      O 7432   5.179   6.606   2.483
 2397WAT     H1 7433   5.204   6.593   2.579
 2397WAT     H2 7434   5.096   6.554   2.464
 2398WAT      O 7435   7.193   2.838   7.877
 2398WAT     H1 7436   7.191   2.937   7.891
 2398WAT     H2 7437   7.136   2.793   7.946
 2399WAT      O 7438   0.964   1.160   1.300
 2399WAT     H1 7439   1.022   1.198   1.228
 2399WAT     H2 7440   0.904   1.090   1.260
 2400WAT      O 7441   3.790   1.275   5.768
 2400WAT     H1 7442   3.840   1.357   5.741
 2400WAT     H2 7443   3.836   1.194   5.731
 2401WAT      O 7444   5.660   5.509   2.338
 2401WAT     H1 7445   5.601   5.524   2.260
 2401WAT     H2 7446   5.652   5.413   2.368
 2402WAT      O 7447   8.159   9.702   7.303
 2402WAT     H1 7448   8.153   9.621   7.361
 2402WAT     H2 7449   8.197   9.778   7.355
 2403WAT      O 7450   1.689   3.851   1.323
 2403WAT     H1 7451   1.748   3.856   1.243
 2403WAT     H2 7452   1.745   3.856   1.406
 2404WAT      O 7453   6.130   0.980   8.794
 2404WAT     H1 7454   6.051   0.938   8.838
 2404WAT     H2 7455   6.160   0.922   8.718
 2405WAT      O 7456   0.981   1.806   1.668
 2405WAT     H1 7457   0.926   1.741   1.615
 2405WAT     H2 7458   0.977   1.782   1.765
 2406WAT      O 7459   8.748   6.603   1.833
 2406WAT     H1 7460   8.664   6.657   1.840
 2406WAT     H2 7461   8.731   6.523   1.775
 2407WAT      O 7462   3.724   0.923   7.346
 2407WAT     H1 7463   3.678   1.009   7.369
 2407WAT     H2 7464   3.655   0.852   7.332
 2408WAT      O 7465   1.850   9.297   0.016
 2408WAT     H1 7466   1.914   9.365   0.052
 2408WAT     H2 7467   1.766   9.298   0.071
 2409WAT      O 7468   5.385   2.629   3.106
 2409WAT     H1 7469   5.357   2.590   3.018
 2409WAT     H2 7470   5.434   2.715   3.090
 2410WAT      O 7471   8.433   7.141   2.546
 2410WAT     H1 7472   8.356   7.152   2.483
 2410WAT     H2 7473   8.439   7.045   2.574
 2411WAT      O 7474   8.099   4.266   7.988
 2411WAT     H1 7475   8.090   4.168   8.005
 2411WAT     H2 7476   8.167   4.282   7.917
 2412WAT      O 7477   3.558   5.680   5.852
 2412WAT     H1 7478   3.585   5.662   5.757
 2412WAT     H2 7479   3.637   5.667   5.912
 2413WAT      O 7480   5.921   0.008   1.436
 2413WAT     H1 7481   5.841   0.063   1.413
 2413WAT     H2 7482   5.898  -0.054   1.511
 2414WAT      O 7483   8.199   1.406   9.439
 2414WAT     H1 7484   8.130   1.464   9.484
 2414WAT     H2 7485   8.156   1.321   9.409
 2415WAT      O 7486   8.162   4.651   7.779
 2415WAT     H1 7487   8.238   4.705   7.814
 2415WAT     H2 7488   8.101   4.626   7.854
 2416WAT      O 7489   3.103   1.787   3.864
 2416WAT     H1 7490   3.143   1.799   3.772
 2416WAT     H2 7491   3.059   1.872   3.893
 2417WAT      O 7492   2.883   8.077   2.638
 2417WAT     H1 7493   2.922   7.992   2.601
 2417WAT     H2 7494   2.938   8.107   2.717
 2418WAT      O 7495   4.258   5.547   1.701
 2418WAT     H1 7496   4.324   5.543   1.776
 2418WAT     H2 7497   4.306   5.535   1.614
 2419WAT      O 7498   0.037   7.713   4.838
 2419WAT     H1 7499   0.062   7.658   4.917
 2419WAT     H2 7500   0.069   7.807   4.852
 2420WAT      O 7501   5.809   3.399   9.425
 2420WAT     H1 7502   5.869   3.347   9.486
 2420WAT     H2 7503   5.771   3.338   9.355
 2421WAT      O 7504   9.763   7.358   5.221
 2421WAT     H1 7505   9.679   7.349   5.168
 2421WAT     H2 7506   9.768   7.450   5.260
 2422WAT      O 7507   0.091   4.133   9.213
 2422WAT     H1 7508   0.055   4.198   9.281
 2422WAT     H2 7509   0.153   4.181   9.151
 2423WAT      O 7510   3.962   6.337   8.105
 2423WAT     H1 7511   3.929   6.404   8.038
 2423WAT     H2 7512   3.890   6.269   8.122
 2424WAT      O 7513   7.197   0.339   4.009
 2424WAT     H1 7514   7.268   0.368   3.944
 2424WAT     H2 7515   7.237   0.277   4.076
 2425WAT      O 7516   1.170   6.720   0.016
 2425WAT     H1 7517   1.148   6.783  -0.059
 2425WAT     H2 7518   1.087   6.699   0.067
 2426WAT      O 7519   3.802   3.300   8.842
 2426WAT     H1 7520   3.895   3.332   8.822
 2426WAT     H2 7521   3.747   3.377   8.874
 2427WAT      O 7522   6.305   3.195   2.257
 2427WAT     H1 7523   6.379   3.162   2.315
 2427WAT     H2 7524   6.225   3.214   2.314
 2428WAT      O 7525   9.884   3.089   0.350
 2428WAT     H1 7526   9.937   3.069   0.268
 2428WAT     H2 7527   9.926   3.165   0.399
 2429WAT      O 7528   9.101   2.884   9.403
 2429WAT     H1 7529   9.039   2.960   9.422
 2429WAT     H2 7530   9.081   2.809   9.466
 2430WAT      O 7531   9.032   9.347   5.115
 2430WAT     H1 7532   8.969   9.412   5.157
 2430WAT     H2 7533   9.110   9.396   5.076
 2431WAT      O 7534   0.319   2.948   7.753
 2431WAT     H1 7535   0.230   2.978   7.788
 2431WAT     H2 7536   0.383   3.025   7.754
 2432WAT      O 7537   7.699   8.701   0.502
 2432WAT     H1 7538   7.620   8.756   0.475
 2432WAT     H2 7539   7.687   8.667   0.595
 2433WAT      O 7540   9.067   2.971   6.047
 2433WAT     H1 7541   9.101   2.923   5.966
 2433WAT     H2 7542   9.014   3.050   6.018
 2434WAT      O 7543   8.986   9.254   7.844
 2434WAT     H1 7544   9.071   9.277   7.797
 2434WAT     H2 7545   8.915   9.233   7.776
 2435WAT      O 7546   7.192   5.790   0.106
 2435WAT     H1 7547   7.269   5.730   0.125
 2435WAT     H2 7548   7.112   5.760   0.158
 2436WAT      O 7549   8.291   7.872   0.305
 2436WAT     H1 7550   8.358   7.817   0.254
 2436WAT     H2 7551   8.210   7.817   0.325
 2437WAT      O 7552   6.951   5.180   6.321
 2437WAT     H1 7553   7.031   5.135   6.362
 2437WAT     H2 7554   6.886   5.110   6.291
 2438WAT      O 7555   4.087   4.146   9.766
 2438WAT     H1 7556   4.028   4.210   9.717
 2438WAT     H2 7557   4.179   4.185   9.775
 2439WAT      O 7558   7.648   7.182   2.826
 2439WAT     H1 7559   7.665   7.114   2.755
 2439WAT     H2 7560   7.706   7.162   2.905
 2440WAT      O 7561   3.194   8.558   1.407
 2440WAT     H1 7562   3.132   8.621   1.359
 2440WAT     H2 7563   3.232   8.604   1.487
 2441WAT      O 7564   7.824   6.763   6.124
 2441WAT     H1 7565   7.789   6.856   6.112
 2441WAT     H2 7566   7.920   6.760   6.094
 2442WAT      O 7567   2.618   7.501   6.016
 2442WAT     H1 7568   2.523   7.530   6.032
 2442WAT     H2 7569   2.618   7.412   5.969
 2443WAT      O 7570   9.799   0.617   0.631
 2443WAT     H1 7571   9.780   0.526   0.594
 2443WAT     H2 7572   9.867   0.611   0.704
 2444WAT      O 7573   0.296   3.697   6.619
 2444WAT     H1 7574   0.358   3.717   6.695
 2444WAT     H2 7575   0.205   3.732   6.640
 2445WAT      O 7576   2.819   1.238   7.553
 2445WAT     H1 7577   2.768   1.195   7.628
 2445WAT     H2 7578   2.896   1.289   7.590
 2446WAT      O 7579   8.043   5.176   7.320
 2446WAT     H1 7580   8.005   5.258   7.277
 2446WAT     H2 7581   7.969   5.118   7.353
 2447WAT      O 7582   0.537   1.469   7.627
 2447WAT     H1 7583   0.499   1.515   7.547
 2447WAT     H2 7584   0.600   1.397   7.597
 2448WAT      O 7585   2.012   2.790   1.254
 2448WAT     H1 7586   2.035   2.736   1.335
 2448WAT     H2 7587   2.093   2.799   1.196
 2449WAT      O 7588   8.192   8.609   7.898
 2449WAT     H1 7589   8.200   8.545   7.974
 2449WAT     H2 7590   8.283   8.632   7.864
 2450WAT      O 7591   1.254   2.727   9.268
 2450WAT     H1 7592   1.216   2.724   9.360
 2450WAT     H2 7593   1.187   2.768   9.206
 2451WAT      O 7594   7.884   8.915   0.754
 2451WAT     H1 7595   7.974   8.887   0.788
 2451WAT     H2 7596   7.822   8.837   0.755
 2452WAT      O 7597   8.903   2.534   0.065
 2452WAT     H1 7598   8.906   2.517   0.164
 2452WAT     H2 7599   8.903   2.633   0.049
 2453WAT      O 7600   2.770   6.911   6.686
 2453WAT     H1 7601   2.707   6.838   6.709
 2453WAT     H2 7602   2.751   6.943   6.593
 2454WAT      O 7603   7.586   0.093   8.144
 2454WAT     H1 7604   7.654   0.024   8.168
 2454WAT     H2 7605   7.617   0.183   8.175
 2455WAT      O 7606   6.167   8.826   9.695
 2455WAT     H1 7607   6.265   8.811   9.679
 2455WAT     H2 7608   6.114   8.756   9.647
 2456WAT      O 7609   4.147   8.544   1.516
 2456WAT     H1 7610   4.054   8.508   1.517
 2456WAT     H2 7611   4.198   8.507   1.593
 2457WAT      O 7612   0.499   2.371   9.208
 2457WAT     H1 7613   0.579   2.402   9.157
 2457WAT     H2 7614   0.454   2.299   9.155
 2458WAT      O 7615   3.506   2.095   3.169
 2458WAT     H1 7616   3.535   2.039   3.091
 2458WAT     H2 7617   3.530   2.191   3.152
 2459WAT      O 7618   9.419   7.674   1.685
 2459WAT     H1 7619   9.338   7.655   1.629
 2459WAT     H2 7620   9.484   7.598   1.676
 2460WAT      O 7621   1.694   8.911   7.962
 2460WAT     H1 7622   1.737   8.995   7.931
 2460WAT     H2 7623   1.659   8.923   8.055
 2461WAT      O 7624   0.990   9.364   4.400
 2461WAT     H1 7625   0.898   9.329   4.419
 2461WAT     H2 7626   1.056   9.312   4.454
 2462WAT      O 7627   5.436   9.776   2.471
 2462WAT     H1 7628   5.519   9.824   2.499
 2462WAT     H2 7629   5.365   9.789   2.540
 2463WAT      O 7630   3.953   1.568   4.146
 2463WAT     H1 7631   3.963   1.471   4.125
 2463WAT     H2 7632   3.998   1.623   4.076
 2464WAT      O 7633   7.977   0.230   1.476
 2464WAT     H1 7634   7.910   0.302   1.497
 2464WAT     H2 7635   7.982   0.167   1.553
 2465WAT      O 7636   1.894   3.188   7.870
 2465WAT     H1 7637   1.993   3.179   7.856
 2465WAT     H2 7638   1.868   3.136   7.952
 2466WAT      O 7639   0.868   7.583   3.271
 2466WAT     H1 7640   0.882   7.487   3.296
 2466WAT     H2 7641   0.869   7.591   3.171
 2467WAT      O 7642   4.471   4.673   7.336
 2467WAT     H1 7643   4.528   4.592   7.330
 2467WAT     H2 7644   4.527   4.755   7.320
 2468WAT      O 7645   4.836   0.053   9.147
 2468WAT     H1 7646   4.829   0.113   9.067
 2468WAT     H2 7647   4.913  -0.009   9.136
 2469WAT      O 7648   6.662   4.858   0.323
 2469WAT     H1 7649   6.706   4.923   0.386
 2469WAT     H2 7650   6.583   4.816   0.369
 2470WAT      O 7651   4.576   4.251   8.285
 2470WAT     H1 7652   4.665   4.224   8.321
 2470WAT     H2 7653   4.571   4.229   8.188
 2471WAT      O 7654   4.519   1.477   0.047
 2471WAT     H1 7655   4.449   1.532   0.094
 2471WAT     H2 7656   4.515   1.494  -0.051
 2472WAT      O 7657   9.316   0.278   6.501
 2472WAT     H1 7658   9.289   0.349   6.566
 2472WAT     H2 7659   9.287   0.303   6.409
 2473WAT      O 7660   7.902   1.292   8.149
 2473WAT     H1 7661   7.894   1.392   8.143
 2473WAT     H2 7662   7.892   1.264   8.244
 2474WAT      O 7663   2.437   8.908   3.851
 2474WAT     H1 7664   2.465   8.967   3.927
 2474WAT     H2 7665   2.431   8.963   3.767
 2475WAT      O 7666   0.766   6.141   9.582
 2475WAT     H1 7667   0.803   6.050   9.562
 2475WAT     H2 7668   0.684   6.131   9.638
 2476WAT      O 7669   0.054   1.643   7.288
 2476WAT     H1 7670   0.132   1.704   7.300
 2476WAT     H2 7671   0.067   1.560   7.343
 2477WAT      O 7672   2.174   0.023   6.606
 2477WAT     H1 7673   2.159  -0.013   6.514
 2477WAT     H2 7674   2.136   0.115   6.613
 2478WAT      O 7675   3.001   1.056   7.434
 2478WAT     H1 7676   2.928   1.114   7.470
 2478WAT     H2 7677   2.993   0.964   7.472
 2479WAT      O 7678   5.773   7.861   9.479
 2479WAT     H1 7679   5.845   7.792   9.467
 2479WAT     H2 7680   5.806   7.933   9.541
 2480WAT      O 7681   7.881   2.654   4.908
 2480WAT     H1 7682   7.953   2.718   4.880
 2480WAT     H2 7683   7.792   2.698   4.899
 2481WAT      O 7684   5.877   0.022   2.511
 2481WAT     H1 7685   5.883   0.113   2.553
 2481WAT     H2 7686   5.872  -0.047   2.582
 2482WAT      O 7687   9.482   0.437   6.889
 2482WAT     H1 7688   9.517   0.453   6.981
 2482WAT     H2 7689   9.528   0.357   6.849
 2483WAT      O 7690   3.654   8.028   8.283
 2483WAT     H1 7691   3.627   7.934   8.306
 2483WAT     H2 7692   3.639   8.087   8.362
 2484WAT      O 7693   4.145   3.169   0.440
 2484WAT     H1 7694   4.236   3.146   0.473
 2484WAT     H2 7695   4.086   3.088   0.442
 2485WAT      O 7696   7.005   2.440   1.724
 2485WAT     H1 7697   7.083   2.500   1.743
 2485WAT     H2 7698   6.925   2.495   1.703
 2486WAT      O 7699   9.090   5.104   9.163
 2486WAT     H1 7700   9.146   5.187   9.164
 2486WAT     H2 7701   9.094   5.062   9.073
 2487WAT      O 7702   7.039   7.221   5.188
 2487WAT     H1 7703   7.042   7.320   5.171
 2487WAT     H2 7704   7.041   7.173   5.101
 2488WAT      O 7705   0.840   3.374   4.861
 2488WAT     H1 7706   0.842   3.388   4.762
 2488WAT     H2 7707   0.794   3.287   4.881
 2489WAT      O 7708   9.253   6.008   9.349
 2489WAT     H1 7709   9.310   5.926   9.357
 2489WAT     H2 7710   9.238   6.047   9.440
 2490WAT      O 7711   0.054   6.501   8.589
 2490WAT     H1 7712   0.006   6.579   8.629
 2490WAT     H2 7713   0.149   6.526   8.571
 2491WAT      O 7714   0.840   1.627   1.979
 2491WAT     H1 7715   0.793   1.591   2.060
 2491WAT     H2 7716   0.887   1.553   1.931
 2492WAT      O 7717   3.687   6.407   1.252
 2492WAT     H1 7718   3.650   6.324   1.210
 2492WAT     H2 7719   3.687   6.397   1.351
 2493WAT      O 7720   4.859   0.325   3.846
 2493WAT     H1 7721   4.777   0.383   3.844
 2493WAT     H2 7722   4.833   0.229   3.855
 2494WAT      O 7723   9.462   7.350   7.853
 2494WAT     H1 7724   9.365   7.364   7.870
 2494WAT     H2 7725   9.484   7.252   7.861
 2495WAT      O 7726   6.296   5.516   3.274
 2495WAT     H1 7727   6.311   5.424   3.310
 2495WAT     H2 7728   6.209   5.551   3.309
 2496WAT      O 7729   2.379   5.003   8.966
 2496WAT     H1 7730   2.428   4.974   8.883
 2496WAT     H2 7731   2.352   5.098   8.957
 2497WAT      O 7732   7.182   5.019   1.772
 2497WAT     H1 7733   7.182   4.938   1.830
 2497WAT     H2 7734   7.134   5.093   1.818
 2498WAT      O 7735   7.157   1.096   9.404
 2498WAT     H1 7736   7.164   0.996   9.404
 2498WAT     H2 7737   7.187   1.131   9.492
 2499WAT      O 7738   3.134   7.108   3.617
 2499WAT     H1 7739   3.104   7.030   3.563
 2499WAT     H2 7740   3.234   7.108   3.622
 2500WAT      O 7741   4.698   4.518   9.895
 2500WAT     H1 7742   4.630   4.510   9.822
 2500WAT     H2 7743   4.724   4.426   9.926
 2501WAT      O 7744   7.664   2.478   8.985
 2501WAT     H1 7745   7.750   2.475   8.935
 2501WAT     H2 7746   7.681   2.460   9.082
 2502WAT      O 7747   6.708   8.386   5.616
 2502WAT     H1 7748   6.789   8.326   5.614
 2502WAT     H2 7749   6.648   8.357   5.690
 2503WAT      O 7750   0.332   9.102   7.126
 2503WAT     H1 7751   0.421   9.147   7.115
 2503WAT     H2 7752   0.284   9.101   7.038
 2504WAT      O 7753   7.378   4.216   4.379
 2504WAT     H1 7754   7.349   4.121   4.390
 2504WAT     H2 7755   7.397   4.256   4.469
 2505WAT      O 7756   1.869   8.833   9.347
 2505WAT     H1 7757   1.829   8.811   9.437
 2505WAT     H2 7758   1.964   8.862   9.359
 2506WAT      O 7759   1.450   2.167   8.587
 2506WAT     H1 7760   1.488   2.206   8.671
 2506WAT     H2 7761   1.521   2.166   8.516
 2507WAT      O 7762   5.002   6.087   9.684
 2507WAT     H1 7763   4.943   6.097   9.604
 2507WAT     H2 7764   5.004   5.991   9.712
 2508WAT      O 7765   0.754   8.230   8.707
 2508WAT     H1 7766   0.821   8.302   8.690
 2508WAT     H2 7767   0.798   8.140   8.700
 2509WAT      O 7768   1.829   6.044   8.932
 2509WAT     H1 7769   1.916   6.070   8.974
 2509WAT     H2 7770   1.833   5.948   8.905
 2510WAT      O 7771   1.684   5.950   0.503
 2510WAT     H1 7772   1.607   5.965   0.565
 2510WAT     H2 7773   1.731   6.036   0.487
 2511WAT      O 7774   2.664   1.649   9.561
 2511WAT     H1 7775   2.606   1.730   9.551
 2511WAT     H2 7776   2.749   1.674   9.608
 2512WAT      O 7777   9.500   2.304   5.405
 2512WAT     H1 7778   9.565   2.233   5.433
 2512WAT     H2 7779   9.453   2.339   5.486
 2513WAT      O 7780   2.184   6.307   1.017
 2513WAT     H1 7781   2.276   6.323   0.980
 2513WAT     H2 7782   2.166   6.371   1.091
 2514WAT      O 7783   6.020   2.090   7.976
 2514WAT     H1 7784   5.961   2.140   7.913
 2514WAT     H2 7785   6.015   1.992   7.955
 2515WAT      O 7786   3.808   6.321   6.306
 2515WAT     H1 7787   3.804   6.421   6.314
 2515WAT     H2 7788   3.901   6.290   6.326
 2516WAT      O 7789   3.619   6.378   7.814
 2516WAT     H1 7790   3.599   6.284   7.842
 2516WAT     H2 7791   3.694   6.378   7.747
 2517WAT      O 7792   6.135   4.175   5.311
 2517WAT     H1 7793   6.187   4.090   5.321
 2517WAT     H2 7794   6.058   4.174   5.375
 2518WAT      O 7795   1.112   2.208   6.972
 2518WAT     H1 7796   1.208   2.233   6.970
 2518WAT     H2 7797   1.102   2.109   6.972
 2519WAT      O 7798   4.268   9.767   0.156
 2519WAT     H1 7799   4.286   9.802   0.248
 2519WAT     H2 7800   4.262   9.667   0.158
 2520WAT      O 7801   7.025   8.699   7.755
 2520WAT     H1 7802   6.986   8.700   7.847
 2520WAT     H2 7803   6.966   8.752   7.694
 2521WAT      O 7804   6.733   9.258   8.730
 2521WAT     H1 7805   6.675   9.319   8.784
 2521WAT     H2 7806   6.800   9.312   8.680
 2522WAT      O 7807   0.898   7.776   8.446
 2522WAT     H1 7808   0.903   7.676   8.439
 2522WAT     H2 7809   0.841   7.811   8.372
 2523WAT      O 7810   1.813   0.579   7.718
 2523WAT     H1 7811   1.744   0.635   7.763
 2523WAT     H2 7812   1.808   0.485   7.752
 2524WAT      O 7813   6.323   8.841   2.447
 2524WAT     H1 7814   6.310   8.907   2.373
 2524WAT     H2 7815   6.324   8.889   2.535
 2525WAT      O 7816   0.321   1.679   8.026
 2525WAT     H1 7817   0.411   1.662   7.985
 2525WAT     H2 7818   0.275   1.752   7.976
 2526WAT      O 7819   6.472   2.528   2.575
 2526WAT     H1 7820   6.426   2.615   2.562
 2526WAT     H2 7821   6.499   2.491   2.486
 2527WAT      O 7822   0.116   0.011   3.405
 2527WAT     H1 7823   0.079   0.076   3.338
 2527WAT     H2 7824   0.116   0.054   3.495
 2528WAT      O 7825   1.235   3.415   0.903
 2528WAT     H1 7826   1.328   3.426   0.867
 2528WAT     H2 7827   1.241   3.389   0.999
 2529WAT      O 7828   4.557   8.580   5.076
 2529WAT     H1 7829   4.599   8.526   5.003
 2529WAT     H2 7830   4.621   8.586   5.153
 2530WAT      O 7831   7.902   2.954   4.201
 2530WAT     H1 7832   7.810   2.970   4.236
 2530WAT     H2 7833   7.910   2.996   4.110
 2531WAT      O 7834   1.898   9.341   4.026
 2531WAT     H1 7835   1.870   9.299   3.939
 2531WAT     H2 7836   1.971   9.286   4.067
 2532WAT      O 7837   5.347   6.255   6.405
 2532WAT     H1 7838   5.428   6.222   6.453
 2532WAT     H2 7839   5.359   6.351   6.381
 2533WAT      O 7840   1.808   6.981   1.248
 2533WAT     H1 7841   1.853   6.993   1.159
 2533WAT     H2 7842   1.745   6.904   1.243
 2534WAT      O 7843   7.251   6.861   7.947
 2534WAT     H1 7844   7.242   6.763   7.961
 2534WAT     H2 7845   7.285   6.879   7.855
 2535WAT      O 7846   3.705   9.751   4.832
 2535WAT     H1 7847   3.790   9.699   4.845
 2535WAT     H2 7848   3.628   9.688   4.823
 2536WAT      O 7849   5.188   6.406   1.546
 2536WAT     H1 7850   5.244   6.351   1.608
 2536WAT     H2 7851   5.245   6.440   1.471
 2537WAT      O 7852   6.389   9.751   6.965
 2537WAT     H1 7853   6.483   9.781   6.979
 2537WAT     H2 7854   6.329   9.831   6.962
 2538WAT      O 7855   1.849   3.947   2.931
 2538WAT     H1 7856   1.893   4.011   2.993
 2538WAT     H2 7857   1.918   3.895   2.882
 2539WAT      O 7858   4.101   6.326   6.973
 2539WAT     H1 7859   4.010   6.311   6.934
 2539WAT     H2 7860   4.116   6.425   6.985
 2540WAT      O 7861   9.138   1.112   3.527
 2540WAT     H1 7862   9.132   1.148   3.434
 2540WAT     H2 7863   9.116   1.015   3.528
 2541WAT      O 7864   7.420   9.167   1.529
 2541WAT     H1 7865   7.424   9.245   1.467
 2541WAT     H2 7866   7.508   9.120   1.530
 2542WAT      O 7867   1.934   0.617   4.909
 2542WAT     H1 7868   1.872   0.563   4.853
 2542WAT     H2 7869   1.902   0.712   4.913
 2543WAT      O 7870   5.284   8.368   7.456
 2543WAT     H1 7871   5.277   8.391   7.553
 2543WAT     H2 7872   5.238   8.280   7.440
 2544WAT      O 7873   7.671   2.388   5.294
 2544WAT     H1 7874   7.737   2.419   5.363
 2544WAT     H2 7875   7.716   2.386   5.204
 2545WAT      O 7876   9.397   9.241   7.527
 2545WAT     H1 7877   9.478   9.221   7.582
 2545WAT     H2 7878   9.318   9.252   7.588
 2546WAT      O 7879   1.314   2.107   6.303
 2546WAT     H1 7880   1.295   2.030   6.243
 2546WAT     H2 7881   1.249   2.181   6.285
 2547WAT      O 7882   2.229   1.729   1.488
 2547WAT     H1 7883   2.236   1.629   1.487
 2547WAT     H2 7884   2.265   1.765   1.402
 2548WAT      O 7885   9.795   8.652   3.744
 2548WAT     H1 7886   9.779   8.720   3.816
 2548WAT     H2 7887   9.788   8.560   3.783
 2549WAT      O 7888   1.665   5.899   7.181
 2549WAT     H1 7889   1.598   5.849   7.126
 2549WAT     H2 7890   1.642   5.889   7.278
 2550WAT      O 7891   4.234   2.274   9.325
 2550WAT     H1 7892   4.333   2.284   9.326
 2550WAT     H2 7893   4.204   2.251   9.232
 2551WAT      O 7894   9.498   4.533   7.784
 2551WAT     H1 7895   9.505   4.578   7.696
 2551WAT     H2 7896   9.506   4.434   7.771
 2552WAT      O 7897   9.768   1.168   9.008
 2552WAT     H1 7898   9.767   1.069   8.996
 2552WAT     H2 7899   9.802   1.211   8.924
 2553WAT      O 7900   9.835   1.060   1.789
 2553WAT     H1 7901   9.739   1.037   1.805
 2553WAT     H2 7902   9.875   1.095   1.874
 2554WAT      O 7903   7.143   3.687   3.708
 2554WAT     H1 7904   7.150   3.701   3.609
 2554WAT     H2 7905   7.233   3.665   3.745
 2555WAT      O 7906   5.406   7.198   3.105
 2555WAT     H1 7907   5.389   7.269   3.174
 2555WAT     H2 7908   5.478   7.228   3.043
 2556WAT      O 7909   6.341   9.157   1.270
 2556WAT     H1 7910   6.323   9.116   1.360
 2556WAT     H2 7911   6.333   9.256   1.277
 2557WAT      O 7912   0.295   4.672   7.402
 2557WAT     H1 7913   0.236   4.713   7.471
 2557WAT     H2 7914   0.326   4.742   7.337
 2558WAT      O 7915   7.748   7.183   3.584
 2558WAT     H1 7916   7.660   7.174   3.631
 2558WAT     H2 7917   7.793   7.093   3.580
 2559WAT      O 7918   6.971   7.754   5.314
 2559WAT     H1 7919   7.051   7.776   5.370
 2559WAT     H2 7920   6.937   7.838   5.272
 2560WAT      O 7921   1.647   6.604   2.251
 2560WAT     H1 7922   1.654   6.682   2.188
 2560WAT     H2 7923   1.617   6.524   2.200
 2561WAT      O 7924   7.148   3.475   5.419
 2561WAT     H1 7925   7.073   3.457   5.355
 2561WAT     H2 7926   7.135   3.420   5.501
 2562WAT      O 7927   0.275   8.727   9.205
 2562WAT     H1 7928   0.329   8.777   9.137
 2562WAT     H2 7929   0.178   8.747   9.191
 2563WAT      O 7930   3.924   0.937   7.561
 2563WAT     H1 7931   3.921   0.864   7.629
 2563WAT     H2 7932   3.847   0.926   7.497
 2564WAT      O 7933   9.433   2.820   5.943
 2564WAT     H1 7934   9.525   2.796   5.911
 2564WAT     H2 7935   9.377   2.849   5.866
 2565WAT      O 7936   9.430   4.202   3.346
 2565WAT     H1 7937   9.337   4.208   3.309
 2565WAT     H2 7938   9.443   4.274   3.415
 2566WAT      O 7939   6.096   5.964   3.504
 2566WAT     H1 7940   6.014   5.915   3.535
 2566WAT     H2 7941   6.076   6.009   3.417
 2567WAT      O 7942   5.973   4.043   4.920
 2567WAT     H1 7943   5.947   4.081   4.831
 2567WAT     H2 7944   6.018   4.114   4.975
 2568WAT      O 7945   6.121   0.364   2.697
 2568WAT     H1 7946   6.189   0.365   2.625
 2568WAT     H2 7947   6.066   0.448   2.692
 2569WAT      O 7948   8.730   2.288   3.416
 2569WAT     H1 7949   8.681   2.369   3.448
 2569WAT     H2 7950   8.725   2.216   3.485
 2570WAT      O 7951   2.038   8.547   0.993
 2570WAT     H1 7952   1.973   8.537   0.917
 2570WAT     H2 7953   2.029   8.469   1.054
 2571WAT      O 7954   3.323   8.719   1.613
 2571WAT     H1 7955   3.395   8.652   1.631
 2571WAT     H2 7956   3.363   8.811   1.611
 2572WAT      O 7957   3.508   9.621   7.296
 2572WAT     H1 7958   3.570   9.698   7.310
 2572WAT     H2 7959   3.556   9.535   7.313
 2573WAT      O 7960   8.458   8.120   9.400
 2573WAT     H1 7961   8.502   8.209   9.389
 2573WAT     H2 7962   8.366   8.132   9.435
 2574WAT      O 7963   5.426   6.511   6.322
 2574WAT     H1 7964   5.386   6.503   6.231
 2574WAT     H2 7965   5.508   6.568   6.318
 2575WAT      O 7966   4.143   8.648   4.553
 2575WAT     H1 7967   4.090   8.615   4.631
 2575WAT     H2 7968   4.181   8.738   4.575
 2576WAT      O 7969   7.574   9.323   3.307
 2576WAT     H1 7970   7.487   9.370   3.300
 2576WAT     H2 7971   7.565   9.229   3.272
 2577WAT      O 7972   3.447   4.586   8.369
 2577WAT     H1 7973   3.475   4.680   8.387
 2577WAT     H2 7974   3.462   4.565   8.272
 2578WAT      O 7975   3.396   0.250   3.736
 2578WAT     H1 7976   3.333   0.310   3.786
 2578WAT     H2 7977   3.434   0.299   3.658
 2579WAT      O 7978   7.702   5.333   2.392
 2579WAT     H1 7979   7.738   5.241   2.379
 2579WAT     H2 7980   7.648   5.360   2.312
 2580WAT      O 7981   6.028   6.126   2.817
 2580WAT     H1 7982   6.033   6.038   2.771
 2580WAT     H2 7983   6.020   6.199   2.748
 2581WAT      O 7984   7.537   7.675   0.691
 2581WAT     H1 7985   7.481   7.701   0.612
 2581WAT     H2 7986   7.477   7.658   0.769
 2582WAT      O 7987   1.217   8.072   0.197
 2582WAT     H1 7988   1.294   8.135   0.190
 2582WAT     H2 7989   1.232   8.009   0.273
 2583WAT      O 7990   0.139   6.261   4.272
 2583WAT     H1 7991   0.205   6.249   4.346
 2583WAT     H2 7992   0.186   6.301   4.193
 2584WAT      O 7993   1.646   2.157   8.367
 2584WAT     H1 7994   1.637   2.073   8.313
 2584WAT     H2 7995   1.736   2.160   8.410
 2585WAT      O 7996   3.330   5.615   9.293
 2585WAT     H1 7997   3.336   5.520   9.262
 2585WAT     H2 7998   3.235   5.635   9.319
 2586WAT      O 7999   3.453   4.137   5.588
 2586WAT     H1 8000   3.356   4.148   5.570
 2586WAT     H2 8001   3.500   4.109   5.504
 2587WAT      O 8002   3.845   2.527   1.906
 2587WAT     H1 8003   3.914   2.493   1.841
 2587WAT     H2 8004   3.764   2.556   1.856
 2588WAT      O 8005   8.841   2.837   8.515
 2588WAT     H1 8006   8.888   2.900   8.453
 2588WAT     H2 8007   8.747   2.823   8.484
 2589WAT      O 8008   4.751   2.730   6.868
 2589WAT     H1 8009   4.680   2.766   6.808
 2589WAT     H2 8010   4.828   2.795   6.870
 2590WAT      O 8011   3.373   1.425   4.663
 2590WAT     H1 8012   3.367   1.395   4.758
 2590WAT     H2 8013   3.418   1.355   4.607
 2591WAT      O 8014   6.568   9.252   3.175
 2591WAT     H1 8015   6.592   9.167   3.127
 2591WAT     H2 8016   6.486   9.291   3.134
 2592WAT      O 8017   5.790   3.145   5.950
 2592WAT     H1 8018   5.879   3.190   5.948
 2592WAT     H2 8019   5.794   3.065   6.010
 2593WAT      O 8020   4.977   0.061   4.545
 2593WAT     H1 8021   4.945   0.148   4.584
 2593WAT     H2 8022   5.017   0.005   4.617
 2594WAT      O 8023   8.288   7.859   5.202
 2594WAT     H1 8024   8.385   7.864   5.181
 2594WAT     H2 8025   8.236   7.906   5.131
 2595WAT      O 8026   1.093   7.516   9.697
 2595WAT     H1 8027   1.097   7.430   9.645
 2595WAT     H2 8028   1.183   7.535   9.735
 2596WAT      O 8029   9.827   9.454   5.216
 2596WAT     H1 8030   9.781   9.371   5.248
 2596WAT     H2 8031   9.835   9.520   5.291
 2597WAT      O 8032   2.139   3.915   5.205
 2597WAT     H1 8033   2.197   3.940   5.283
 2597WAT     H2 8034   2.081   3.993   5.181
 2598WAT      O 8035   3.897   4.385   6.983
 2598WAT     H1 8036   3.949   4.349   6.906
 2598WAT     H2 8037   3.950   4.455   7.030
 2599WAT      O 8038   5.449   8.373   3.001
 2599WAT     H1 8039   5.507   8.369   3.082
 2599WAT     H2 8040   5.444   8.467   2.968
 2600WAT      O 8041   4.282   8.093   4.482
 2600WAT     H1 8042   4.220   8.014   4.485
 2600WAT     H2 8043   4.291   8.124   4.387
 2601WAT      O 8044   4.754   3.694   7.326
 2601WAT     H1 8045   4.766   3.787   7.363
 2601WAT     H2 8046   4.834   3.671   7.270
 2602WAT      O 8047   9.427   8.804   9.123
 2602WAT     H1 8048   9.332   8.834   9.109
 2602WAT     H2 8049   9.430   8.740   9.199
 2603WAT      O 8050   0.208   3.289   7.752
 2603WAT     H1 8051   0.250   3.214   7.803
 2603WAT     H2 8052   0.113   3.265   7.730
 2604WAT      O 8053   9.240   5.147   1.988
 2604WAT     H1 8054   9.340   5.145   1.989
 2604WAT     H2 8055   9.208   5.228   2.038
 2605WAT      O 8056   8.461   0.870   3.088
 2605WAT     H1 8057   8.543   0.914   3.124
 2605WAT     H2 8058   8.429   0.801   3.153
 2606WAT      O 8059   8.023   7.300   0.914
 2606WAT     H1 8060   7.953   7.234   0.940
 2606WAT     H2 8061   8.003   7.388   0.956
 2607WAT      O 8062   8.603   2.680   9.714
 2607WAT     H1 8063   8.547   2.748   9.762
 2607WAT     H2 8064   8.543   2.611   9.674
 2608WAT      O 8065   1.630   2.721   2.387
 2608WAT     H1 8066   1.531   2.712   2.377
 2608WAT     H2 8067   1.651   2.804   2.438
 2609WAT      O 8068   6.512   6.788   4.554
 2609WAT     H1 8069   6.439   6.750   4.612
 2609WAT     H2 8070   6.494   6.764   4.458
 2610WAT      O 8071   2.929   4.198   2.879
 2610WAT     H1 8072   2.893   4.205   2.786
 2610WAT     H2 8073   2.961   4.104   2.896
 2611WAT      O 8074   5.686   3.893   1.482
 2611WAT     H1 8075   5.595   3.869   1.518
 2611WAT     H2 8076   5.713   3.983   1.517
 2612WAT      O 8077   7.750   7.120   8.370
 2612WAT     H1 8078   7.802   7.056   8.427
 2612WAT     H2 8079   7.765   7.213   8.404
 2613WAT      O 8080   1.057   2.875   4.266
 2613WAT     H1 8081   1.124   2.896   4.195
 2613WAT     H2 8082   1.020   2.784   4.252
 2614WAT      O 8083   7.252   8.635   1.874
 2614WAT     H1 8084   7.206   8.690   1.805
 2614WAT     H2 8085   7.208   8.651   1.963
 2615WAT      O 8086   0.261   0.410   2.284
 2615WAT     H1 8087   0.202   0.368   2.353
 2615WAT     H2 8088   0.356   0.401   2.313
 2616WAT      O 8089   2.340   2.344   6.168
 2616WAT     H1 8090   2.321   2.408   6.094
 2616WAT     H2 8091   2.337   2.251   6.133
 2617WAT      O 8092   3.713   0.519   1.291
 2617WAT     H1 8093   3.792   0.459   1.284
 2617WAT     H2 8094   3.680   0.520   1.386
 2618WAT      O 8095   9.417   6.690   8.686
 2618WAT     H1 8096   9.396   6.601   8.646
 2618WAT     H2 8097   9.357   6.760   8.646
 2619WAT      O 8098   6.070   2.714   0.665
 2619WAT     H1 8099   6.144   2.680   0.723
 2619WAT     H2 8100   6.073   2.668   0.577
 2620WAT      O 8101   1.131   4.242   9.685
 2620WAT     H1 8102   1.061   4.299   9.728
 2620WAT     H2 8103   1.131   4.151   9.726
 2621WAT      O 8104   3.289   8.815   5.795
 2621WAT     H1 8105   3.322   8.908   5.781
 2621WAT     H2 8106   3.233   8.812   5.878
 2622WAT      O 8107   1.935   6.020   1.221
 2622WAT     H1 8108   1.979   6.055   1.304
 2622WAT     H2 8109   1.997   6.033   1.143
 2623WAT      O 8110   5.810   1.996   5.301
 2623WAT     H1 8111   5.785   1.937   5.224
 2623WAT     H2 8112   5.780   1.954   5.386
 2624WAT      O 8113   4.986   4.247   5.101
 2624WAT     H1 8114   4.928   4.228   5.181
 2624WAT     H2 8115   4.938   4.309   5.039
 2625WAT      O 8116   5.149   2.458   1.984
 2625WAT     H1 8117   5.066   2.459   1.929
 2625WAT     H2 8118   5.153   2.541   2.040
 2626WAT      O 8119   4.019   2.854   8.777
 2626WAT     H1 8120   4.119   2.850   8.776
 2626WAT     H2 8121   3.981   2.762   8.771
 2627WAT      O 8122   2.666   0.679   9.467
 2627WAT     H1 8123   2.612   0.679   9.551
 2627WAT     H2 8124   2.674   0.585   9.434
 2628WAT      O 8125   2.895   9.345   5.807
 2628WAT     H1 8126   2.822   9.370   5.870
 2628WAT     H2 8127   2.914   9.422   5.745
 2629WAT      O 8128   5.317   4.446   6.709
 2629WAT     H1 8129   5.244   4.487   6.654
 2629WAT     H2 8130   5.280   4.421   6.799
 2630WAT      O 8131   2.308   0.555   2.832
 2630WAT     H1 8132   2.321   0.584   2.737
 2630WAT     H2 8133   2.227   0.497   2.838
 2631WAT      O 8134   0.209   1.277   7.028
 2631WAT     H1 8135   0.221   1.374   7.008
 2631WAT     H2 8136   0.295   1.229   7.017
 2632WAT      O 8137   2.836   6.270   0.215
 2632WAT     H1 8138   2.892   6.314   0.286
 2632WAT     H2 8139   2.881   6.186   0.184
 2633WAT      O 8140   1.534   1.454   6.539
 2633WAT     H1 8141   1.607   1.399   6.580
 2633WAT     H2 8142   1.573   1.513   6.468
 2634WAT      O 8143   5.832   8.607   3.706
 2634WAT     H1 8144   5.760   8.537   3.703
 2634WAT     H2 8145   5.802   8.688   3.654
 2635WAT      O 8146   1.700   9.649   1.013
 2635WAT     H1 8147   1.648   9.725   0.974
 2635WAT     H2 8148   1.787   9.684   1.049
 2636WAT      O 8149   8.035   7.321   4.577
 2636WAT     H1 8150   8.021   7.385   4.502
 2636WAT     H2 8151   7.991   7.234   4.556
 2637WAT      O 8152   0.978   4.848   8.181
 2637WAT     H1 8153   0.906   4.788   8.147
 2637WAT     H2 8154   1.044   4.795   8.235
 2638WAT      O 8155   2.605   4.503   7.636
 2638WAT     H1 8156   2.619   4.496   7.735
 2638WAT     H2 8157   2.630   4.596   7.606
 2639WAT      O 8158   1.837   5.870   3.071
 2639WAT     H1 8159   1.799   5.904   2.985
 2639WAT     H2 8160   1.789   5.912   3.148
 2640WAT      O 8161   9.106   3.865   7.392
 2640WAT     H1 8162   9.026   3.925   7.387
 2640WAT     H2 8163   9.165   3.881   7.312
 2641WAT      O 8164   0.870   6.902   5.262
 2641WAT     H1 8165   0.934   6.977   5.246
 2641WAT     H2 8166   0.905   6.818   5.220
 2642WAT      O 8167   2.504   2.601   6.520
 2642WAT     H1 8168   2.574   2.542   6.479
 2642WAT     H2 8169   2.505   2.690   6.475
 2643WAT      O 8170   8.405   1.106   4.480
 2643WAT     H1 8171   8.350   1.133   4.401
 2643WAT     H2 8172   8.358   1.032   4.529
 2644WAT      O 8173   1.315   4.520   2.937
 2644WAT     H1 8174   1.359   4.596   2.889
 2644WAT     H2 8175   1.229   4.550   2.976
 2645WAT      O 8176   7.750   8.191   3.747
 2645WAT     H1 8177   7.652   8.206   3.733
 2645WAT     H2 8178   7.788   8.141   3.669
 2646WAT      O 8179   0.161   7.940   1.918
 2646WAT     H1 8180   0.238   7.957   1.857
 2646WAT     H2 8181   0.098   7.876   1.875
 2647WAT      O 8182   7.442   6.138   2.750
 2647WAT     H1 8183   7.375   6.093   2.810
 2647WAT     H2 8184   7.529   6.089   2.754
 2648WAT      O 8185   5.211   9.345   2.117
 2648WAT     H1 8186   5.144   9.280   2.155
 2648WAT     H2 8187   5.240   9.313   2.027
 2649WAT      O 8188   7.100   9.673   3.599
 2649WAT     H1 8189   7.165   9.683   3.674
 2649WAT     H2 8190   7.105   9.755   3.541
 2650WAT      O 8191   4.006   8.577   5.882
 2650WAT     H1 8192   4.013   8.536   5.973
 2650WAT     H2 8193   3.910   8.577   5.854
 2651WAT      O 8194   7.618   1.843   4.119
 2651WAT     H1 8195   7.607   1.900   4.201
 2651WAT     H2 8196   7.533   1.794   4.101
 2652WAT      O 8197   3.181   0.975   9.713
 2652WAT     H1 8198   3.241   0.899   9.738
 2652WAT     H2 8199   3.087   0.951   9.736
 2653WAT      O 8200   4.965   8.338   8.814
 2653WAT     H1 8201   4.966   8.318   8.716
 2653WAT     H2 8202   4.965   8.253   8.866
 2654WAT      O 8203   6.295   3.633   9.486
 2654WAT     H1 8204   6.195   3.638   9.486
 2654WAT     H2 8205   6.325   3.557   9.542
 2655WAT      O 8206   9.020   0.875   3.484
 2655WAT     H1 8207   9.079   0.817   3.540
 2655WAT     H2 8208   8.941   0.822   3.452
 2656WAT      O 8209   5.381   0.534   7.229
 2656WAT     H1 8210   5.417   0.444   7.205
 2656WAT     H2 8211   5.282   0.534   7.218
 2657WAT      O 8212   6.470   4.064   1.673
 2657WAT     H1 8213   6.458   4.058   1.574
 2657WAT     H2 8214   6.424   3.988   1.718
 2658WAT      O 8215   1.115   9.471   0.284
 2658WAT     H1 8216   1.061   9.555   0.289
 2658WAT     H2 8217   1.054   9.392   0.289
 2659WAT      O 8218   8.317   9.789   6.631
 2659WAT     H1 8219   8.233   9.817   6.583
 2659WAT     H2 8220   8.299   9.782   6.729
 2660WAT      O 8221   5.454   2.576   9.127
 2660WAT     H1 8222   5.508   2.650   9.167
 2660WAT     H2 8223   5.515   2.503   9.096
 2661WAT      O 8224   0.755   7.740   9.692
 2661WAT     H1 8225   0.726   7.812   9.755
 2661WAT     H2 8226   0.690   7.731   9.617
 2662WAT      O 8227   1.422   9.281   1.461
 2662WAT     H1 8228   1.509   9.233   1.454
 2662WAT     H2 8229   1.411   9.342   1.383
 2663WAT      O 8230   7.919   8.717   8.537
 2663WAT     H1 8231   7.866   8.691   8.456
 2663WAT     H2 8232   7.978   8.640   8.565
 2664WAT      O 8233   8.745   8.663   5.068
 2664WAT     H1 8234   8.827   8.708   5.102
 2664WAT     H2 8235   8.691   8.629   5.145
 2665WAT      O 8236   7.027   3.599   6.593
 2665WAT     H1 8237   6.961   3.672   6.611
 2665WAT     H2 8238   7.051   3.599   6.496
 2666WAT      O 8239   2.455   3.380   7.567
 2666WAT     H1 8240   2.451   3.292   7.520
 2666WAT     H2 8241   2.473   3.452   7.500
 2667WAT      O 8242   4.666   0.472   7.659
 2667WAT     H1 8243   4.691   0.401   7.593
 2667WAT     H2 8244   4.682   0.437   7.751
 2668WAT      O 8245   1.460   3.830   6.303
 2668WAT     H1 8246   1.459   3.815   6.402
 2668WAT     H2 8247   1.528   3.770   6.261
 2669WAT      O 8248   6.301   1.650   3.923
 2669WAT     H1 8249   6.314   1.562   3.877
 2669WAT     H2 8250   6.204   1.676   3.920
 2670WAT      O 8251   4.725   1.242   2.964
 2670WAT     H1 8252   4.632   1.241   3.001
 2670WAT     H2 8253   4.736   1.165   2.901
 2671WAT      O 8254   8.688   3.951   3.571
 2671WAT     H1 8255   8.615   3.933   3.637
 2671WAT     H2 8256   8.774   3.913   3.605
 2672WAT      O 8257   9.120   1.303   7.474
 2672WAT     H1 8258   9.121   1.294   7.574
 2672WAT     H2 8259   9.026   1.315   7.442
 2673WAT      O 8260   7.495   6.086   2.401
 2673WAT     H1 8261   7.571   6.146   2.426
 2673WAT     H2 8262   7.484   6.015   2.470
 2674WAT      O 8263   3.077   3.752   8.222
 2674WAT     H1 8264   3.102   3.655   8.226
 2674WAT     H2 8265   3.113   3.800   8.302
 2675WAT      O 8266   8.302   8.320   1.488
 2675WAT     H1 8267   8.297   8.260   1.408
 2675WAT     H2 8268   8.252   8.405   1.469
 2676WAT      O 8269   7.260   8.129   0.348
 2676WAT     H1 8270   7.251   8.050   0.287
 2676WAT     H2 8271   7.213   8.207   0.308
 2677WAT      O 8272   4.642   7.899   4.110
 2677WAT     H1 8273   4.648   7.993   4.145
 2677WAT     H2 8274   4.732   7.869   4.080
 2678WAT      O 8275   4.657   8.723   3.223
 2678WAT     H1 8276   4.672   8.634   3.266
 2678WAT     H2 8277   4.579   8.718   3.161
 2679WAT      O 8278   0.059   2.401   9.444
 2679WAT     H1 8279   0.013   2.332   9.388
 2679WAT     H2 8280   0.155   2.405   9.418
 2680WAT      O 8281   5.103   2.928   5.706
 2680WAT     H1 8282   5.063   2.948   5.796
 2680WAT     H2 8283   5.030   2.909   5.641
 2681WAT      O 8284   9.349   3.461   8.787
 2681WAT     H1 8285   9.426   3.518   8.757
 2681WAT     H2 8286   9.382   3.368   8.805
 2682WAT      O 8287   3.770   6.800   1.642
 2682WAT     H1 8288   3.851   6.844   1.603
 2682WAT     H2 8289   3.720   6.867   1.697
 2683WAT      O 8290   9.114   1.159   3.249
 2683WAT     H1 8291   9.083   1.097   3.177
 2683WAT     H2 8292   9.047   1.232   3.261
 2684WAT      O 8293   9.117   6.626   2.095
 2684WAT     H1 8294   9.207   6.583   2.100
 2684WAT     H2 8295   9.070   6.616   2.183
 2685WAT      O 8296   9.254   5.799   8.450
 2685WAT     H1 8297   9.299   5.759   8.371
 2685WAT     H2 8298   9.161   5.828   8.425
 2686WAT      O 8299   1.258   5.854   6.441
 2686WAT     H1 8300   1.213   5.792   6.505
 2686WAT     H2 8301   1.269   5.809   6.353
 2687WAT      O 8302   8.194   8.751   9.680
 2687WAT     H1 8303   8.133   8.766   9.602
 2687WAT     H2 8304   8.153   8.787   9.763
 2688WAT      O 8305   7.594   4.140   8.654
 2688WAT     H1 8306   7.656   4.064   8.633
 2688WAT     H2 8307   7.563   4.181   8.568
 2689WAT      O 8308   5.787   8.868   3.553
 2689WAT     H1 8309   5.695   8.886   3.520
 2689WAT     H2 8310   5.850   8.936   3.514
 2690WAT      O 8311   7.481   4.682   3.046
 2690WAT     H1 8312   7.461   4.758   3.107
 2690WAT     H2 8313   7.577   4.655   3.057
 2691WAT      O 8314   4.157   6.840   4.613
 2691WAT     H1 8315   4.184   6.926   4.571
 2691WAT     H2 8316   4.230   6.806   4.672
 2692WAT      O 8317   3.262   1.160   1.330
 2692WAT     H1 8318   3.297   1.070   1.356
 2692WAT     H2 8319   3.300   1.229   1.391
 2693WAT      O 8320   2.020   3.911   5.784
 2693WAT     H1 8321   2.048   3.816   5.795
 2693WAT     H2 8322   1.960   3.920   5.705
 2694WAT      O 8323   7.889   7.438   5.329
 2694WAT     H1 8324   7.871   7.513   5.264
 2694WAT     H2 8325   7.849   7.354   5.294
 2695WAT      O 8326   4.692   0.312   1.696
 2695WAT     H1 8327   4.750   0.373   1.643
 2695WAT     H2 8328   4.676   0.228   1.645
 2696WAT      O 8329   9.518   3.618   4.726
 2696WAT     H1 8330   9.565   3.706   4.718
 2696WAT     H2 8331   9.421   3.633   4.744
 2697WAT      O 8332   5.030   2.404   3.452
 2697WAT     H1 8333   5.094   2.479   3.470
 2697WAT     H2 8334   4.938   2.440   3.437
 2698WAT      O 8335   5.128   4.441   9.429
 2698WAT     H1 8336   5.055   4.435   9.497
 2698WAT     H2 8337   5.134   4.535   9.395
 2699WAT      O 8338   3.049   4.703   4.789
 2699WAT     H1 8339   3.083   4.769   4.723
 2699WAT     H2 8340   3.126   4.657   4.833
 2700WAT      O 8341   6.713   2.776   9.678
 2700WAT     H1 8342   6.640   2.843   9.692
 2700WAT     H2 8343   6.677   2.700   9.623
 2701WAT      O 8344   3.317   0.936   4.767
 2701WAT     H1 8345   3.309   0.882   4.683
 2701WAT     H2 8346   3.238   0.918   4.826
 2702WAT      O 8347   3.652   7.789   4.689
 2702WAT     H1 8348   3.714   7.733   4.635
 2702WAT     H2 8349   3.561   7.748   4.689
 2703WAT      O 8350   5.084   6.601   7.277
 2703WAT     H1 8351   5.074   6.603   7.177
 2703WAT     H2 8352   4.997   6.627   7.319
 2704WAT      O 8353   4.479   3.016   6.879
 2704WAT     H1 8354   4.538   3.050   6.952
 2704WAT     H2 8355   4.386   3.005   6.914
 2705WAT      O 8356   4.491   2.219   1.034
 2705WAT     H1 8357   4.437   2.291   0.992
 2705WAT     H2 8358   4.575   2.258   1.073
 2706WAT      O 8359   7.048   5.294   2.836
 2706WAT     H1 8360   7.092   5.300   2.747
 2706WAT     H2 8361   6.949   5.306   2.824
 2707WAT      O 8362   3.509   6.024   0.621
 2707WAT     H1 8363   3.537   6.063   0.533
 2707WAT     H2 8364   3.564   5.942   0.640
 2708WAT      O 8365   1.977   4.069   6.969
 2708WAT     H1 8366   2.047   4.131   6.934
 2708WAT     H2 8367   1.917   4.040   6.895
 2709WAT      O 8368   8.625   8.277   0.277
 2709WAT     H1 8369   8.602   8.198   0.220
 2709WAT     H2 8370   8.714   8.262   0.320
 2710WAT      O 8371   6.211   7.713   8.744
 2710WAT     H1 8372   6.263   7.795   8.721
 2710WAT     H2 8373   6.226   7.643   8.674
 2711WAT      O 8374   7.752   0.055   8.854
 2711WAT     H1 8375   7.668   0.088   8.898
 2711WAT     H2 8376   7.780   0.120   8.783
 2712WAT      O 8377   4.618   9.109   1.354
 2712WAT     H1 8378   4.681   9.158   1.294
 2712WAT     H2 8379   4.636   9.011   1.347
 2713WAT      O 8380   2.821   6.726   3.932
 2713WAT     H1 8381   2.796   6.630   3.928
 2713WAT     H2 8382   2.921   6.735   3.931
 2714WAT      O 8383   4.407   0.715   9.097
 2714WAT     H1 8384   4.428   0.722   9.195
 2714WAT     H2 8385   4.321   0.763   9.078
 2715WAT      O 8386   8.193   2.685   5.482
 2715WAT     H1 8387   8.286   2.650   5.484
 2715WAT     H2 8388   8.193   2.778   5.444
 2716WAT      O 8389   8.631   4.520   6.588
 2716WAT     H1 8390   8.672   4.602   6.548
 2716WAT     H2 8391   8.533   4.535   6.602
 2717WAT      O 8392   0.046   7.990   3.259
 2717WAT     H1 8393   0.101   7.948   3.187
 2717WAT     H2 8394   0.103   8.052   3.312
 2718WAT      O 8395   4.464   2.666   0.793
 2718WAT     H1 8396   4.433   2.761   0.786
 2718WAT     H2 8397   4.519   2.655   0.875
 2719WAT      O 8398   6.085   6.516   2.721
 2719WAT     H1 8399   6.137   6.521   2.806
 2719WAT     H2 8400   6.038   6.428   2.715
 2720WAT      O 8401   6.050   6.079   3.258
 2720WAT     H1 8402   5.980   6.060   3.189
 2720WAT     H2 8403   6.133   6.111   3.213
 2721WAT      O 8404   3.924   7.957   0.314
 2721WAT     H1 8405   3.977   7.938   0.397
 2721WAT     H2 8406   3.830   7.980   0.339
 2722WAT      O 8407   5.804   6.100   4.466
 2722WAT     H1 8408   5.889   6.153   4.464
 2722WAT     H2 8409   5.826   6.003   4.473
 2723WAT      O 8410   6.518   0.732   6.387
 2723WAT     H1 8411   6.600   0.788   6.375
 2723WAT     H2 8412   6.468   0.726   6.300
 2724WAT      O 8413   1.777   3.498   8.993
 2724WAT     H1 8414   1.705   3.566   8.979
 2724WAT     H2 8415   1.852   3.539   9.046
 2725WAT      O 8416   6.254   5.731   7.218
 2725WAT     H1 8417   6.160   5.722   7.251
 2725WAT     H2 8418   6.317   5.717   7.294
 2726WAT      O 8419   8.007   0.206   2.895
 2726WAT     H1 8420   7.925   0.152   2.877
 2726WAT     H2 8421   8.081   0.145   2.925
 2727WAT      O 8422   2.634   3.662   5.276
 2727WAT     H1 8423   2.598   3.693   5.364
 2727WAT     H2 8424   2.589   3.712   5.202
 2728WAT      O 8425   5.993   0.252   5.172
 2728WAT     H1 8426   6.037   0.201   5.246
 2728WAT     H2 8427   5.899   0.221   5.161
 2729WAT      O 8428   4.711   2.601   7.588
 2729WAT     H1 8429   4.767   2.609   7.506
 2729WAT     H2 8430   4.723   2.682   7.646
 2730WAT      O 8431   2.279   8.929   1.961
 2730WAT     H1 8432   2.239   9.020   1.953
 2730WAT     H2 8433   2.268   8.896   2.055
 2731WAT      O 8434   5.735   4.125   9.018
 2731WAT     H1 8435   5.811   4.186   8.996
 2731WAT     H2 8436   5.714   4.068   8.938
 2732WAT      O 8437   2.186   7.404   8.208
 2732WAT     H1 8438   2.284   7.422   8.216
 2732WAT     H2 8439   2.162   7.393   8.111
 2733WAT      O 8440   2.261   2.779   6.892
 2733WAT     H1 8441   2.204   2.709   6.935
 2733WAT     H2 8442   2.349   2.739   6.865
 2734WAT      O 8443   1.789   7.120   7.812
 2734WAT     H1 8444   1.741   7.033   7.819
 2734WAT     H2 8445   1.726   7.190   7.777
 2735WAT      O 8446   4.783   2.929   1.739
 2735WAT     H1 8447   4.740   2.937   1.830
 2735WAT     H2 8448   4.714   2.946   1.669
 2736WAT      O 8449   4.634   0.340   2.661
 2736WAT     H1 8450   4.664   0.334   2.757
 2736WAT     H2 8451   4.643   0.435   2.630
 2737WAT      O 8452   6.666   2.369   6.555
 2737WAT     H1 8453   6.754   2.343   6.514
 2737WAT     H2 8454   6.669   2.465   6.581
 2738WAT      O 8455   3.236   4.172   1.119
 2738WAT     H1 8456   3.193   4.209   1.201
 2738WAT     H2 8457   3.166   4.140   1.055
 2739WAT      O 8458   6.907   2.562   2.215
 2739WAT     H1 8459   6.815   2.562   2.176
 2739WAT     H2 8460   6.907   2.610   2.302
 2740WAT      O 8461   8.518   4.475   6.312
 2740WAT     H1 8462   8.597   4.471   6.374
 2740WAT     H2 8463   8.538   4.538   6.237
 2741WAT      O 8464   8.261   2.356   6.424
 2741WAT     H1 8465   8.315   2.409   6.489
 2741WAT     H2 8466   8.208   2.287   6.473
 2742WAT      O 8467   7.999   5.424   3.732
 2742WAT     H1 8468   8.093   5.439   3.703
 2742WAT     H2 8469   7.997   5.365   3.812
 2743WAT      O 8470   5.323   5.467   7.881
 2743WAT     H1 8471   5.373   5.384   7.855
 2743WAT     H2 8472   5.371   5.513   7.955
 2744WAT      O 8473   2.682   9.222   1.990
 2744WAT     H1 8474   2.589   9.231   2.026
 2744WAT     H2 8475   2.746   9.266   2.053
 2745WAT      O 8476   9.139   8.854   7.515
 2745WAT     H1 8477   9.227   8.875   7.558
 2745WAT     H2 8478   9.125   8.754   7.516
 2746WAT      O 8479   0.383   4.667   0.239
 2746WAT     H1 8480   0.328   4.710   0.310
 2746WAT     H2 8481   0.325   4.643   0.161
 2747WAT      O 8482   3.308   8.852   2.322
 2747WAT     H1 8483   3.289   8.850   2.420
 2747WAT     H2 8484   3.262   8.930   2.281
 2748WAT      O 8485   1.194   9.227   4.561
 2748WAT     H1 8486   1.251   9.224   4.479
 2748WAT     H2 8487   1.237   9.287   4.629
 2749WAT      O 8488   0.230   2.396   3.021
 2749WAT     H1 8489   0.165   2.328   3.055
 2749WAT     H2 8490   0.234   2.473   3.085
 2750WAT      O 8491   7.251   6.572   2.628
 2750WAT     H1 8492   7.235   6.475   2.610
 2750WAT     H2 8493   7.187   6.604   2.698
 2751WAT      O 8494   9.595   1.534   4.194
 2751WAT     H1 8495   9.532   1.547   4.271
 2751WAT     H2 8496   9.572   1.449   4.147
 2752WAT      O 8497   4.697   0.506   8.360
 2752WAT     H1 8498   4.725   0.600   8.381
 2752WAT     H2 8499   4.620   0.508   8.296
 2753WAT      O 8500   0.135   6.848   3.916
 2753WAT     H1 8501   0.157   6.801   4.001
 2753WAT     H2 8502   0.199   6.924   3.903
 2754WAT      O 8503   0.290   6.756   7.154
 2754WAT     H1 8504   0.297   6.657   7.169
 2754WAT     H2 8505   0.322   6.777   7.062
 2755WAT      O 8506   9.566   2.419   9.418
 2755WAT     H1 8507   9.598   2.511   9.438
 2755WAT     H2 8508   9.548   2.411   9.319
 2756WAT      O 8509   5.082   8.780   5.894
 2756WAT     H1 8510   5.022   8.804   5.819
 2756WAT     H2 8511   5.028   8.766   5.977
 2757WAT      O 8512   9.088   7.569   9.528
 2757WAT     H1 8513   9.132   7.521   9.452
 2757WAT     H2 8514   9.032   7.643   9.493
 2758WAT      O 8515   0.827   0.313   4.895
 2758WAT     H1 8516   0.812   0.400   4.849
 2758WAT     H2 8517   0.921   0.308   4.928
 2759WAT      O 8518   2.734   8.989   4.977
 2759WAT     H1 8519   2.782   9.065   5.022
 2759WAT     H2 8520   2.750   8.905   5.028
 2760WAT      O 8521   9.690   5.803   2.245
 2760WAT     H1 8522   9.635   5.865   2.189
 2760WAT     H2 8523   9.680   5.828   2.341
 2761WAT      O 8524   1.046   4.970   2.541
 2761WAT     H1 8525   1.048   4.988   2.443
 2761WAT     H2 8526   0.951   4.971   2.573
 2762WAT      O 8527   0.196   6.219   5.543
 2762WAT     H1 8528   0.288   6.221   5.503
 2762WAT     H2 8529   0.128   6.204   5.472
 2763WAT      O 8530   4.590   8.062   8.024
 2763WAT     H1 8531   4.588   8.061   7.924
 2763WAT     H2 8532   4.673   8.016   8.056
 2764WAT      O 8533   7.552   9.071   3.198
 2764WAT     H1 8534   7.543   8.984   3.246
 2764WAT     H2 8535   7.524   9.059   3.102
 2765WAT      O 8536   2.454   8.050   0.088
 2765WAT     H1 8537   2.386   8.011   0.026
 2765WAT     H2 8538   2.485   7.979   0.151
 2766WAT      O 8539   2.451   5.549   3.820
 2766WAT     H1 8540   2.541   5.569   3.781
 2766WAT     H2 8541   2.409   5.474   3.768
 2767WAT      O 8542   7.620   1.737   1.778
 2767WAT     H1 8543   7.649   1.708   1.869
 2767WAT     H2 8544   7.651   1.670   1.711
 2768WAT      O 8545   8.371   7.174   0.385
 2768WAT     H1 8546   8.275   7.147   0.377
 2768WAT     H2 8547   8.389   7.210   0.477
 2769WAT      O 8548   9.516   1.527   6.266
 2769WAT     H1 8549   9.591   1.538   6.330
 2769WAT     H2 8550   9.434   1.571   6.303
 2770WAT      O 8551   2.147   3.568   6.378
 2770WAT     H1 8552   2.214   3.563   6.453
 2770WAT     H2 8553   2.195   3.566   6.291
 2771WAT      O 8554   3.460   0.390   3.526
 2771WAT     H1 8555   3.380   0.429   3.480
 2771WAT     H2 8556   3.521   0.464   3.553
 2772WAT      O 8557   6.000   0.489   5.991
 2772WAT     H1 8558   5.959   0.578   6.010
 2772WAT     H2 8559   6.098   0.501   5.974
 2773WAT      O 8560   7.957   6.810   8.322
 2773WAT     H1 8561   7.935   6.876   8.251
 2773WAT     H2 8562   7.875   6.759   8.347
 2774WAT      O 8563   4.343   3.301   9.132
 2774WAT     H1 8564   4.353   3.209   9.170
 2774WAT     H2 8565   4.247   3.320   9.115
 2775WAT      O 8566   6.976   1.393   5.190
 2775WAT     H1 8567   6.918   1.352   5.260
 2775WAT     H2 8568   6.971   1.339   5.106
 2776WAT      O 8569   1.791   8.785   9.611
 2776WAT     H1 8570   1.787   8.842   9.693
 2776WAT     H2 8571   1.704   8.737   9.600
 2777WAT      O 8572   7.494   3.724   8.816
 2777WAT     H1 8573   7.506   3.818   8.847
 2777WAT     H2 8574   7.431   3.676   8.878
 2778WAT      O 8575   0.403   1.125   0.672
 2778WAT     H1 8576   0.496   1.114   0.636
 2778WAT     H2 8577   0.381   1.222   0.679
 2779WAT      O 8578   9.381   5.542   4.225
 2779WAT     H1 8579   9.448   5.478   4.261
 2779WAT     H2 8580   9.321   5.494   4.161
 2780WAT      O 8581   4.152   8.431   0.456
 2780WAT     H1 8582   4.139   8.425   0.357
 2780WAT     H2 8583   4.160   8.527   0.483
 2781WAT      O 8584   8.376   9.558   4.486
 2781WAT     H1 8585   8.447   9.624   4.461
 2781WAT     H2 8586   8.312   9.602   4.549
 2782WAT      O 8587   3.866   8.231   5.656
 2782WAT     H1 8588   3.791   8.166   5.651
 2782WAT     H2 8589   3.903   8.247   5.565
 2783WAT      O 8590   5.173   1.038   3.128
 2783WAT     H1 8591   5.102   1.041   3.198
 2783WAT     H2 8592   5.211   1.129   3.115
 2784WAT      O 8593   0.648   6.918   6.022
 2784WAT     H1 8594   0.697   6.924   6.109
 2784WAT     H2 8595   0.694   6.976   5.954
 2785WAT      O 8596   1.851   3.780   1.081
 2785WAT     H1 8597   1.900   3.730   1.010
 2785WAT     H2 8598   1.916   3.823   1.143
 2786WAT      O 8599   8.352   1.896   3.496
 2786WAT     H1 8600   8.264   1.861   3.528
 2786WAT     H2 8601   8.363   1.991   3.527
 2787WAT      O 8602   5.505   8.598   6.625
 2787WAT     H1 8603   5.434   8.663   6.597
 2787WAT     H2 8604   5.475   8.552   6.709
 2788WAT      O 8605   6.024   4.943   1.438
 2788WAT     H1 8606   5.972   5.028   1.439
 2788WAT     H2 8607   6.022   4.901   1.528
 2789WAT      O 8608   6.324   0.008   7.909
 2789WAT     H1 8609   6.355   0.095   7.870
 2789WAT     H2 8610   6.234   0.022   7.951
 2790WAT      O 8611   9.720   4.230   9.663
 2790WAT     H1 8612   9.636   4.237   9.717
 2790WAT     H2 8613   9.698   4.243   9.567
 2791WAT      O 8614   0.483   8.504   5.423
 2791WAT     H1 8615   0.502   8.419   5.375
 2791WAT     H2 8616   0.437   8.485   5.510
 2792WAT      O 8617   1.108   0.801   9.825
 2792WAT     H1 8618   1.076   0.709   9.803
 2792WAT     H2 8619   1.045   0.869   9.788
 2793WAT      O 8620   1.597   5.818   6.352
 2793WAT     H1 8621   1.645   5.753   6.292
 2793WAT     H2 8622   1.570   5.771   6.436
 2794WAT      O 8623   8.097   2.368   6.214
 2794WAT     H1 8624   8.161   2.367   6.291
 2794WAT     H2 8625   8.143   2.337   6.131
 2795WAT      O 8626   8.166   9.552   0.500
 2795WAT     H1 8627   8.151   9.595   0.588
 2795WAT     H2 8628   8.087   9.566   0.441
 2796WAT      O 8629   1.496   9.758   2.544
 2796WAT     H1 8630   1.453   9.839   2.582
 2796WAT     H2 8631   1.495   9.685   2.612
 2797WAT      O 8632   6.931   3.517   6.254
 2797WAT     H1 8633   6.923   3.434   6.308
 2797WAT     H2 8634   6.840   3.549   6.227
 2798WAT      O 8635   2.140   1.020   7.472
 2798WAT     H1 8636   2.118   1.000   7.376
 2798WAT     H2 8637   2.239   1.017   7.485
 2799WAT      O 8638   3.536   5.583   6.637
 2799WAT     H1 8639   3.580   5.500   6.602
 2799WAT     H2 8640   3.511   5.643   6.560
 2800WAT      O 8641   2.211   8.613   4.710
 2800WAT     H1 8642   2.187   8.601   4.806
 2800WAT     H2 8643   2.194   8.708   4.683
 2801WAT      O 8644   2.759   4.772   4.095
 2801WAT     H1 8645   2.828   4.714   4.051
 2801WAT     H2 8646   2.778   4.779   4.193
 2802WAT      O 8647   2.518   5.444   5.630
 2802WAT     H1 8648   2.427   5.440   5.589
 2802WAT     H2 8649   2.566   5.526   5.598
 2803WAT      O 8650   2.038   9.694   0.271
 2803WAT     H1 8651   1.982   9.759   0.322
 2803WAT     H2 8652   2.094   9.743   0.205
 2804WAT      O 8653   8.841   6.005   8.644
 2804WAT     H1 8654   8.751   6.004   8.687
 2804WAT     H2 8655   8.889   5.920   8.666
 2805WAT      O 8656   5.532   2.194   4.283
 2805WAT     H1 8657   5.541   2.143   4.368
 2805WAT     H2 8658   5.541   2.132   4.206
 2806WAT      O 8659   7.044   8.388   7.075
 2806WAT     H1 8660   7.053   8.487   7.083
 2806WAT     H2 8661   6.949   8.364   7.054
 2807WAT      O 8662   2.761   4.124   3.607
 2807WAT     H1 8663   2.832   4.054   3.592
 2807WAT     H2 8664   2.755   4.144   3.704
 2808WAT      O 8665   2.414   6.384   5.194
 2808WAT     H1 8666   2.427   6.388   5.293
 2808WAT     H2 8667   2.446   6.470   5.153
 2809WAT      O 8668   2.842   3.825   6.250
 2809WAT     H1 8669   2.940   3.839   6.236
 2809WAT     H2 8670   2.827   3.736   6.294
 2810WAT      O 8671   4.890   1.838   2.609
 2810WAT     H1 8672   4.861   1.746   2.636
 2810WAT     H2 8673   4.891   1.897   2.689
 2811WAT      O 8674   1.895   0.424   2.197
 2811WAT     H1 8675   1.805   0.381   2.191
 2811WAT     H2 8676   1.892   0.515   2.156
 2812WAT      O 8677   1.545   6.048   9.559
 2812WAT     H1 8678   1.490   6.130   9.569
 2812WAT     H2 8679   1.642   6.073   9.556
 2813WAT      O 8680   8.804   0.097   6.808
 2813WAT     H1 8681   8.862   0.015   6.804
 2813WAT     H2 8682   8.857   0.176   6.778
 2814WAT      O 8683   6.214   9.054   3.214
 2814WAT     H1 8684   6.170   9.139   3.241
 2814WAT     H2 8685   6.297   9.040   3.268
 2815WAT      O 8686   5.616   6.554   7.683
 2815WAT     H1 8687   5.558   6.611   7.625
 2815WAT     H2 8688   5.593   6.570   7.779
 2816WAT      O 8689   6.034   0.926   9.473
 2816WAT     H1 8690   6.031   0.841   9.419
 2816WAT     H2 8691   6.015   0.906   9.569
 2817WAT      O 8692   6.108   3.316   7.350
 2817WAT     H1 8693   6.086   3.236   7.294
 2817WAT     H2 8694   6.196   3.353   7.322
 2818WAT      O 8695   7.814   4.978   7.805
 2818WAT     H1 8696   7.771   5.050   7.860
 2818WAT     H2 8697   7.865   5.020   7.730
 2819WAT      O 8698   9.431   3.587   3.713
 2819WAT     H1 8699   9.403   3.513   3.651
 2819WAT     H2 8700   9.517   3.627   3.680
 2820WAT      O 8701   7.885   5.404   9.119
 2820WAT     H1 8702   7.912   5.494   9.153
 2820WAT     H2 8703   7.791   5.409   9.083
 2821WAT      O 8704   6.805   8.807   2.113
 2821WAT     H1 8705   6.817   8.805   2.014
 2821WAT     H2 8706   6.708   8.820   2.135
 2822WAT      O 8707   4.590   1.012   4.356
 2822WAT     H1 8708   4.514   0.989   4.418
 2822WAT     H2 8709   4.643   0.930   4.337
 2823WAT      O 8710   7.982   7.105   7.082
 2823WAT     H1 8711   7.906   7.168   7.095
 2823WAT     H2 8712   8.060   7.134   7.137
 2824WAT      O 8713   5.515   5.892   9.706
 2824WAT     H1 8714   5.586   5.852   9.765
 2824WAT     H2 8715   5.425   5.863   9.738
 2825WAT      O 8716   9.864   1.069   4.987
 2825WAT     H1 8717   9.802   1.029   4.920
 2825WAT     H2 8718   9.911   1.147   4.946
 2826WAT      O 8719   5.102   1.373   0.316
 2826WAT     H1 8720   5.059   1.283   0.326
 2826WAT     H2 8721   5.187   1.364   0.265
 2827WAT      O 8722   1.674   0.890   0.184
 2827WAT     H1 8723   1.755   0.949   0.187
 2827WAT     H2 8724   1.600   0.935   0.235
 2828WAT      O 8725   4.548   9.508   0.559
 2828WAT     H1 8726   4.608   9.435   0.526
 2828WAT     H2 8727   4.473   9.521   0.495
 2829WAT      O 8728   5.038   6.905   6.038
 2829WAT     H1 8729   5.134   6.888   6.062
 2829WAT     H2 8730   4.992   6.818   6.022
 2830WAT      O 8731   2.488   4.045   7.539
 2830WAT     H1 8732   2.411   4.004   7.588
 2830WAT     H2 8733   2.472   4.143   7.528
 2831WAT      O 8734   6.212   5.038   1.275
 2831WAT     H1 8735   6.157   5.009   1.353
 2831WAT     H2 8736   6.163   5.108   1.223
 2832WAT      O 8737   9.554   9.582   3.827
 2832WAT     H1 8738   9.499   9.636   3.891
 2832WAT     H2 8739   9.502   9.502   3.797
 2833WAT      O 8740   1.508   4.716   5.764
 2833WAT     H1 8741   1.462   4.738   5.678
 2833WAT     H2 8742   1.546   4.624   5.760
 2834WAT      O 8743   3.334   3.776   2.860
 2834WAT     H1 8744   3.293   3.845   2.921
 2834WAT     H2 8745   3.321   3.804   2.765
 2835WAT      O 8746   3.230   8.845   8.882
 2835WAT     H1 8747   3.196   8.868   8.791
 2835WAT     H2 8748   3.168   8.882   8.952
 2836WAT      O 8749   8.870   3.309   0.840
 2836WAT     H1 8750   8.773   3.290   0.829
 2836WAT     H2 8751   8.883   3.376   0.913
 2837WAT      O 8752   5.506   1.896   8.407
 2837WAT     H1 8753   5.472   1.874   8.498
 2837WAT     H2 8754   5.436   1.874   8.339
 2838WAT      O 8755   7.679   2.555   3.353
 2838WAT     H1 8756   7.631   2.639   3.379
 2838WAT     H2 8757   7.696   2.500   3.435
 2839WAT      O 8758   2.462   1.707   4.034
 2839WAT     H1 8759   2.526   1.659   4.093
 2839WAT     H2 8760   2.414   1.778   4.087
 2840WAT      O 8761   1.551   4.525   8.835
 2840WAT     H1 8762   1.466   4.485   8.800
 2840WAT     H2 8763   1.530   4.581   8.915
 2841WAT      O 8764   7.366   5.629   2.996
 2841WAT     H1 8765   7.449   5.573   2.995
 2841WAT     H2 8766   7.357   5.676   2.908
 2842WAT      O 8767   0.963   8.160   1.187
 2842WAT     H1 8768   0.962   8.255   1.154
 2842WAT     H2 8769   0.990   8.099   1.112
 2843WAT      O 8770   5.707   0.546   1.871
 2843WAT     H1 8771   5.643   0.473   1.895
 2843WAT     H2 8772   5.686   0.628   1.925
 2844WAT      O 8773   7.485   4.623   4.196
 2844WAT     H1 8774   7.425   4.655   4.124
 2844WAT     H2 8775   7.496   4.694   4.265
 2845WAT      O 8776   7.940   1.277   0.473
 2845WAT     H1 8777   7.895   1.303   0.387
 2845WAT     H2 8778   7.927   1.179   0.488
 2846WAT      O 8779   4.599   8.998   7.653
 2846WAT     H1 8780   4.533   8.987   7.578
 2846WAT     H2 8781   4.692   9.003   7.615
 2847WAT      O 8782   4.239   4.175   5.820
 2847WAT     H1 8783   4.325   4.182   5.871
 2847WAT     H2 8784   4.201   4.083   5.832
 2848WAT      O 8785   1.048   9.801   8.499
 2848WAT     H1 8786   1.042   9.862   8.420
 2848WAT     H2 8787   0.973   9.735   8.496
 2849WAT      O 8788   6.282   8.922   7.895
 2849WAT     H1 8789   6.323   8.976   7.969
 2849WAT     H2 8790   6.214   8.976   7.847
 2850WAT      O 8791   1.372   3.145   8.614
 2850WAT     H1 8792   1.296   3.209   8.628
 2850WAT     H2 8793   1.443   3.162   8.683
 2851WAT      O 8794   5.815   4.575   5.954
 2851WAT     H1 8795   5.908   4.538   5.953
 2851WAT     H2 8796   5.804   4.641   5.880
 2852WAT      O 8797   7.752   8.397   6.672
 2852WAT     H1 8798   7.830   8.457   6.660
 2852WAT     H2 8799   7.740   8.342   6.589
 2853WAT      O 8800   2.412   2.500   4.418
 2853WAT     H1 8801   2.469   2.439   4.364
 2853WAT     H2 8802   2.386   2.454   4.503
 2854WAT      O 8803   7.496   8.818   5.093
 2854WAT     H1 8804   7.513   8.775   5.005
 2854WAT     H2 8805   7.471   8.913   5.080
 2855WAT      O 8806   1.487   4.641   2.126
 2855WAT     H1 8807   1.419   4.574   2.155
 2855WAT     H2 8808   1.489   4.717   2.190
 2856WAT      O 8809   7.474   1.848   2.099
 2856WAT     H1 8810   7.519   1.912   2.037
 2856WAT     H2 8811   7.453   1.763   2.050
 2857WAT      O 8812   6.513   3.144   2.444
 2857WAT     H1 8813   6.485   3.221   2.501
 2857WAT     H2 8814   6.546   3.070   2.501
 2858WAT      O 8815   6.722   0.917   5.584
 2858WAT     H1 8816   6.697   0.840   5.643
 2858WAT     H2 8817   6.808   0.956   5.617
 2859WAT      O 8818   9.605   9.068   2.218
 2859WAT     H1 8819   9.663   9.044   2.141
 2859WAT     H2 8820   9.525   9.119   2.185
 2860WAT      O 8821   8.550   6.007   7.779
 2860WAT     H1 8822   8.454   6.032   7.769
 2860WAT     H2 8823   8.596   6.074   7.838
 2861WAT      O 8824   6.989   5.581   5.619
 2861WAT     H1 8825   7.037   5.664   5.649
 2861WAT     H2 8826   6.940   5.601   5.534
 2862WAT      O 8827   6.162   1.229   3.844
 2862WAT     H1 8828   6.122   1.161   3.783
 2862WAT     H2 8829   6.092   1.295   3.871
 2863WAT      O 8830   7.833   3.369   0.360
 2863WAT     H1 8831   7.899   3.437   0.329
 2863WAT     H2 8832   7.790   3.327   0.280
 2864WAT      O 8833   5.056   5.481   5.658
 2864WAT     H1 8834   4.989   5.537   5.609
 2864WAT     H2 8835   5.017   5.450   5.744
 2865WAT      O 8836   6.402   1.896   3.389
 2865WAT     H1 8837   6.337   1.967   3.417
 2865WAT     H2 8838   6.400   1.887   3.289
 2866WAT      O 8839   5.254   9.108   8.574
 2866WAT     H1 8840   5.266   9.066   8.484
 2866WAT     H2 8841   5.270   9.207   8.566
 2867WAT      O 8842   9.828   8.683   5.385
 2867WAT     H1 8843   9.815   8.717   5.292
 2867WAT     H2 8844   9.873   8.594   5.382
 2868WAT      O 8845   7.563   7.936   6.006
 2868WAT     H1 8846   7.602   8.012   5.953
 2868WAT     H2 8847   7.615   7.925   6.091
 2869WAT      O 8848   4.813   9.262   9.120
 2869WAT     H1 8849   4.824   9.174   9.073
 2869WAT     H2 8850   4.896   9.316   9.110
 2870WAT      O 8851   6.665   8.001   0.684
 2870WAT     H1 8852   6.704   7.955   0.765
 2870WAT     H2 8853   6.712   8.088   0.669
 2871WAT      O 8854   4.309   7.977   7.347
 2871WAT     H1 8855   4.267   8.056   7.391
 2871WAT     H2 8856   4.238   7.919   7.307
 2872WAT      O 8857   6.666   8.749   9.403
 2872WAT     H1 8858   6.649   8.790   9.313
 2872WAT     H2 8859   6.744   8.795   9.446
 2873WAT      O 8860   6.528   8.565   5.522
 2873WAT     H1 8861   6.616   8.518   5.518
 2873WAT     H2 8862   6.542   8.660   5.552
 2874WAT      O 8863   3.092   4.563   1.178
 2874WAT     H1 8864   3.013   4.597   1.126
 2874WAT     H2 8865   3.147   4.640   1.209
 2875WAT      O 8866   3.092   9.164   5.873
 2875WAT     H1 8867   3.034   9.235   5.833
 2875WAT     H2 8868   3.184   9.172   5.837
 2876WAT      O 8869   0.351   4.701   5.438
 2876WAT     H1 8870   0.406   4.644   5.376
 2876WAT     H2 8871   0.263   4.721   5.396
 2877WAT      O 8872   4.863   7.013   8.394
 2877WAT     H1 8873   4.786   7.054   8.444
 2877WAT     H2 8874   4.838   7.002   8.298
 2878WAT      O 8875   3.317   3.680   6.338
 2878WAT     H1 8876   3.364   3.677   6.427
 2878WAT     H2 8877   3.361   3.749   6.280
 2879WAT      O 8878   9.795   7.861   0.405
 2879WAT     H1 8879   9.839   7.943   0.367
 2879WAT     H2 8880   9.854   7.821   0.475
 2880WAT      O 8881   6.407   1.608   3.292
 2880WAT     H1 8882   6.475   1.541   3.321
 2880WAT     H2 8883   6.422   1.694   3.340
 2881WAT      O 8884   1.773   3.260   0.369
 2881WAT     H1 8885   1.740   3.189   0.306
 2881WAT     H2 8886   1.707   3.273   0.443
 2882WAT      O 8887   5.591   3.680   5.379
 2882WAT     H1 8888   5.588   3.697   5.477
 2882WAT     H2 8889   5.657   3.742   5.336
 2883WAT      O 8890   5.177   0.598   2.697
 2883WAT     H1 8891   5.231   0.609   2.781
 2883WAT     H2 8892   5.237   0.575   2.621
 2884WAT      O 8893   1.672   7.878   1.896
 2884WAT     H1 8894   1.614   7.942   1.946
 2884WAT     H2 8895   1.748   7.850   1.955
 2885WAT      O 8896   8.375   8.546   6.801
 2885WAT     H1 8897   8.278   8.529   6.784
 2885WAT     H2 8898   8.384   8.601   6.885
 2886WAT      O 8899   4.578   3.237   9.433
 2886WAT     H1 8900   4.634   3.224   9.352
 2886WAT     H2 8901   4.556   3.334   9.444
 2887WAT      O 8902   7.048   1.066   6.262
 2887WAT     H1 8903   7.116   1.055   6.190
 2887WAT     H2 8904   7.090   1.048   6.351
 2888WAT      O 8905   6.613   5.549   9.439
 2888WAT     H1 8906   6.700   5.516   9.475
 2888WAT     H2 8907   6.539   5.519   9.499
 2889WAT      O 8908   0.997   2.258   1.373
 2889WAT     H1 8909   1.071   2.192   1.369
 2889WAT     H2 8910   0.909   2.211   1.369
 2890WAT      O 8911   6.479   8.822   2.128
 2890WAT     H1 8912   6.444   8.728   2.138
 2890WAT     H2 8913   6.403   8.885   2.120
 2891WAT      O 8914   0.695   4.310   9.515
 2891WAT     H1 8915   0.645   4.229   9.546
 2891WAT     H2 8916   0.671   4.389   9.571
 2892WAT      O 8917   6.442   1.430   5.965
 2892WAT     H1 8918   6.368   1.367   5.991
 2892WAT     H2 8919   6.403   1.508   5.916
 2893WAT      O 8920   7.577   3.488   6.699
 2893WAT     H1 8921   7.547   3.438   6.618
 2893WAT     H2 8922   7.573   3.428   6.779
 2894WAT      O 8923   4.183   0.384   4.989
 2894WAT     H1 8924   4.169   0.319   5.064
 2894WAT     H2 8925   4.268   0.433   5.003
 2895WAT      O 8926   6.694   8.762   7.540
 2895WAT     H1 8927   6.615   8.785   7.484
 2895WAT     H2 8928   6.764   8.720   7.483
 2896WAT      O 8929   6.139   1.337   4.165
 2896WAT     H1 8930   6.195   1.254   4.160
 2896WAT     H2 8931   6.101   1.356   4.074
 2897WAT      O 8932   5.883   3.788   1.823
 2897WAT     H1 8933   5.936   3.704   1.812
 2897WAT     H2 8934   5.887   3.819   1.918
 2898WAT      O 8935   9.547   8.847   7.988
 2898WAT     H1 8936   9.568   8.783   7.914
 2898WAT     H2 8937   9.624   8.908   8.003
 2899WAT      O 8938   8.489   1.199   9.850
 2899WAT     H1 8939   8.533   1.288   9.841
 2899WAT     H2 8940   8.511   1.160   9.939
 2900WAT      O 8941   9.330   2.837   8.866
 2900WAT     H1 8942   9.265   2.768   8.899
 2900WAT     H2 8943   9.409   2.840   8.928
 2901WAT      O 8944   5.565   0.625   8.531
 2901WAT     H1 8945   5.638   0.674   8.485
 2901WAT     H2 8946   5.486   0.616   8.470
 2902WAT      O 8947   9.187   7.310   2.251
 2902WAT     H1 8948   9.116   7.289   2.184
 2902WAT     H2 8949   9.237   7.226   2.274
 2903WAT      O 8950   0.780   0.492   0.640
 2903WAT     H1 8951   0.806   0.583   0.609
 2903WAT     H2 8952   0.717   0.451   0.575
 2904WAT      O 8953   2.059   5.299   2.608
 2904WAT     H1 8954   2.132   5.315   2.674
 2904WAT     H2 8955   1.975   5.274   2.656
 2905WAT      O 8956   2.117   5.779   1.711
 2905WAT     H1 8957   2.048   5.767   1.639
 2905WAT     H2 8958   2.108   5.705   1.777
 2906WAT      O 8959   9.316   3.917   4.053
 2906WAT     H1 8960   9.320   3.874   3.963
 2906WAT     H2 8961   9.239   3.878   4.105
 2907WAT      O 8962   9.855   5.288   0.966
 2907WAT     H1 8963   9.774   5.245   0.926
 2907WAT     H2 8964   9.833   5.382   0.992
 2908WAT      O 8965   7.356   9.087   3.423
 2908WAT     H1 8966   7.401   9.109   3.337
 2908WAT     H2 8967   7.421   9.042   3.485
 2909WAT      O 8968   6.391   1.128   7.150
 2909WAT     H1 8969   6.291   1.123   7.147
 2909WAT     H2 8970   6.419   1.190   7.222
 2910WAT      O 8971   8.328   3.196   5.762
 2910WAT     H1 8972   8.378   3.113   5.787
 2910WAT     H2 8973   8.254   3.211   5.827
 2911WAT      O 8974   4.229   7.435   1.983
 2911WAT     H1 8975   4.288   7.444   1.903
 2911WAT     H2 8976   4.256   7.502   2.053
 2912WAT      O 8977   5.533   6.959   2.050
 2912WAT     H1 8978   5.511   6.988   2.143
 2912WAT     H2 8979   5.524   7.037   1.988
 2913WAT      O 8980   2.259   1.536   9.674
 2913WAT     H1 8981   2.174   1.489   9.699
 2913WAT     H2 8982   2.306   1.565   9.757
 2914WAT      O 8983   6.232   8.247   5.738
 2914WAT     H1 8984   6.157   8.220   5.678
 2914WAT     H2 8985   6.259   8.342   5.718
 2915WAT      O 8986   8.210   2.008   6.107
 2915WAT     H1 8987   8.160   2.052   6.033
 2915WAT     H2 8988   8.303   2.044   6.110
 2916WAT      O 8989   3.380   7.814   4.342
 2916WAT     H1 8990   3.429   7.901   4.341
 2916WAT     H2 8991   3.377   7.776   4.250
 2917WAT      O 8992   6.841   6.427   9.531
 2917WAT     H1 8993   6.823   6.470   9.443
 2917WAT     H2 8994   6.934   6.449   9.561
 2918WAT      O 8995   8.241   1.930   1.888
 2918WAT     H1 8996   8.201   1.892   1.971
 2918WAT     H2 8997   8.171   1.981   1.837
 2919WAT      O 8998   5.742   6.966   6.323
 2919WAT     H1 8999   5.676   7.037   6.347
 2919WAT     H2 9000   5.796   6.942   6.404
 2920WAT      O 9001   6.330   4.389   4.361
 2920WAT     H1 9002   6.274   4.307   4.369
 2920WAT     H2 9003   6.424   4.369   4.389
 2921WAT      O 9004   6.794   0.173   7.376
 2921WAT     H1 9005   6.875   0.176   7.317
 2921WAT     H2 9006   6.719   0.221   7.331
 2922WAT      O 9007   3.041   5.177   9.087
 2922WAT     H1 9008   3.068   5.101   9.029
 2922WAT     H2 9009   3.006   5.251   9.030
 2923WAT      O 9010   6.349   1.693   5.522
 2923WAT     H1 9011   6.296   1.776   5.504
 2923WAT     H2 9012   6.387   1.659   5.436
 2924WAT      O 9013   4.215   5.650   9.415
 2924WAT     H1 9014   4.202   5.557   9.450
 2924WAT     H2 9015   4.135   5.676   9.360
 2925WAT      O 9016   2.219   3.181   9.383
 2925WAT     H1 9017   2.139   3.238   9.362
 2925WAT     H2 9018   2.301   3.227   9.350
 2926WAT      O 9019   2.615   9.511   0.654
 2926WAT     H1 9020   2.696   9.462   0.622
 2926WAT     H2 9021   2.628   9.609   0.641
 2927WAT      O 9022   2.595   0.716   7.175
 2927WAT     H1 9023   2.574   0.810   7.201
 2927WAT     H2 9024   2.540   0.689   7.096
 2928WAT      O 9025   7.702   4.911   4.851
 2928WAT     H1 9026   7.702   4.818   4.887
 2928WAT     H2 9027   7.761   4.969   4.907
 2929WAT      O 9028   1.136   4.861   5.336
 2929WAT     H1 9029   1.088   4.936   5.381
 2929WAT     H2 9030   1.223   4.893   5.299
 2930WAT      O 9031   3.354   6.881   0.561
 2930WAT     H1 9032   3.422   6.812   0.535
 2930WAT     H2 9033   3.330   6.935   0.480
 2931WAT      O 9034   6.007   4.752   1.943
 2931WAT     H1 9035   6.032   4.809   1.865
 2931WAT     H2 9036   6.089   4.706   1.978
 2932WAT      O 9037   1.851   2.068   0.761
 2932WAT     H1 9038   1.950   2.062   0.774
 2932WAT     H2 9039   1.805   2.059   0.849
 2933WAT      O 9040   1.744   7.739   1.213
 2933WAT     H1 9041   1.694   7.721   1.297
 2933WAT     H2 9042   1.814   7.668   1.200
 2934WAT      O 9043   2.279   0.071   4.423
 2934WAT     H1 9044   2.180   0.055   4.414
 2934WAT     H2 9045   2.301   0.092   4.518
 2935WAT      O 9046   1.877   8.757   4.106
 2935WAT     H1 9047   1.899   8.751   4.203
 2935WAT     H2 9048   1.892   8.668   4.063
 2936WAT      O 9049   1.397   1.375   7.699
 2936WAT     H1 9050   1.320   1.337   7.750
 2936WAT     H2 9051   1.422   1.312   7.625
 2937WAT      O 9052   4.705   2.435   1.573
 2937WAT     H1 9053   4.651   2.352   1.562
 2937WAT     H2 9054   4.674   2.484   1.655
 2938WAT      O 9055   9.246   1.323   3.065
 2938WAT     H1 9056   9.229   1.270   3.149
 2938WAT     H2 9057   9.265   1.418   3.089
 2939WAT      O 9058   9.244   1.163   0.254
 2939WAT     H1 9059   9.197   1.099   0.314
 2939WAT     H2 9060   9.181   1.193   0.182
 2940WAT      O 9061   7.073   6.110   2.065
 2940WAT     H1 9062   7.119   6.048   2.130
 2940WAT     H2 9063   6.982   6.074   2.045
 2941WAT      O 9064   8.191   5.408   1.814
 2941WAT     H1 9065   8.168   5.341   1.743
 2941WAT     H2 9066   8.108   5.433   1.864
 2942WAT      O 9067   6.236   4.086   2.193
 2942WAT     H1 9068   6.213   4.024   2.268
 2942WAT     H2 9069   6.300   4.155   2.225
 2943WAT      O 9070   9.775   8.844   9.845
 2943WAT     H1 9071   9.852   8.879   9.793
 2943WAT     H2 9072   9.792   8.856   9.943
 2944WAT      O 9073   8.093   0.673   4.900
 2944WAT     H1 9074   8.029   0.657   4.825
 2944WAT     H2 9075   8.123   0.768   4.898
 2945WAT      O 9076   7.431   3.743   3.382
 2945WAT     H1 9077   7.476   3.705   3.302
 2945WAT     H2 9078   7.480   3.715   3.465
 2946WAT      O 9079   7.824   5.418   8.006
 2946WAT     H1 9080   7.788   5.344   8.063
 2946WAT     H2 9081   7.924   5.421   8.014
 2947WAT      O 9082   4.894   1.552   4.540
 2947WAT     H1 9083   4.881   1.628   4.604
 2947WAT     H2 9084   4.814   1.492   4.543
 2948WAT      O 9085   9.011   4.853   6.448
 2948WAT     H1 9086   8.951   4.838   6.526
 2948WAT     H2 9087   9.103   4.875   6.480
 2949WAT      O 9088   2.875   0.627   7.684
 2949WAT     H1 9089   2.902   0.684   7.607
 2949WAT     H2 9090   2.909   0.667   7.769
 2950WAT      O 9091   4.496   8.902   2.324
 2950WAT     H1 9092   4.591   8.913   2.295
 2950WAT     H2 9093   4.491   8.832   2.396
 2951WAT      O 9094   1.399   6.836   1.440
 2951WAT     H1 9095   1.389   6.891   1.523
 2951WAT     H2 9096   1.323   6.771   1.434
 2952WAT      O 9097   8.048   9.212   2.761
 2952WAT     H1 9098   8.030   9.258   2.674
 2952WAT     H2 9099   7.961   9.199   2.810
 2953WAT      O 9100   6.005   6.699   9.682
 2953WAT     H1 9101   6.089   6.648   9.701
 2953WAT     H2 9102   6.004   6.783   9.736
 2954WAT      O 9103   8.490   8.946   2.053
 2954WAT     H1 9104   8.562   8.909   1.994
 2954WAT     H2 9105   8.529   9.010   2.118
 2955WAT      O 9106   1.013   7.757   3.633
 2955WAT     H1 9107   0.930   7.752   3.577
 2955WAT     H2 9108   1.088   7.710   3.586
 2956WAT      O 9109   5.532   3.155   3.632
 2956WAT     H1 9110   5.530   3.172   3.730
 2956WAT     H2 9111   5.626   3.165   3.598
 2957WAT      O 9112   5.660   9.191   3.489
 2957WAT     H1 9113   5.602   9.261   3.532
 2957WAT     H2 9114   5.629   9.100   3.516
 2958WAT      O 9115   4.454   5.642   2.416
 2958WAT     H1 9116   4.362   5.603   2.409
 2958WAT     H2 9117   4.451   5.739   2.392
 2959WAT      O 9118   3.178   2.152   9.162
 2959WAT     H1 9119   3.225   2.233   9.196
 2959WAT     H2 9120   3.170   2.157   9.063
 2960WAT      O 9121   1.047   1.883   5.209
 2960WAT     H1 9122   1.022   1.951   5.277
 2960WAT     H2 9123   0.975   1.814   5.202
 2961WAT      O 9124   8.466   4.993   5.906
 2961WAT     H1 9125   8.469   5.069   5.840
 2961WAT     H2 9126   8.423   4.914   5.863
 2962WAT      O 9127   3.996   3.391   1.128
 2962WAT     H1 9128   3.924   3.381   1.197
 2962WAT     H2 9129   4.013   3.488   1.111
 2963WAT      O 9130   5.417   6.033   1.692
 2963WAT     H1 9131   5.477   6.086   1.632
 2963WAT     H2 9132   5.408   5.940   1.657
 2964WAT      O 9133   6.992   2.877   5.599
 2964WAT     H1 9134   6.923   2.807   5.576
 2964WAT     H2 9135   7.070   2.867   5.537
 2965WAT      O 9136   8.255   6.830   5.911
 2965WAT     H1 9137   8.305   6.754   5.869
 2965WAT     H2 9138   8.177   6.854   5.852
 2966WAT      O 9139   3.484   1.109   8.493
 2966WAT     H1 9140   3.404   1.169   8.502
 2966WAT     H2 9141   3.536   1.109   8.578
 2967WAT      O 9142   8.849   7.886   6.238
 2967WAT     H1 9143   8.757   7.900   6.202
 2967WAT     H2 9144   8.898   7.822   6.179
 2968WAT      O 9145   8.502   0.438   8.314
 2968WAT     H1 9146   8.559   0.520   8.311
 2968WAT     H2 9147   8.466   0.420   8.222
 2969WAT      O 9148   9.210   6.177   0.572
 2969WAT     H1 9149   9.306   6.162   0.550
 2969WAT     H2 9150   9.162   6.090   0.574
 2970WAT      O 9151   4.312   0.001   1.513
 2970WAT     H1 9152   4.327  -0.078   1.454
 2970WAT     H2 9153   4.327   0.085   1.461
 2971WAT      O 9154   8.441   6.469   7.786
 2971WAT     H1 9155   8.404   6.384   7.825
 2971WAT     H2 9156   8.371   6.512   7.729
 2972WAT      O 9157   0.503   9.620   1.461
 2972WAT     H1 9158   0.466   9.610   1.369
 2972WAT     H2 9159   0.496   9.533   1.510
 2973WAT      O 9160   1.839   8.405   9.372
 2973WAT     H1 9161   1.897   8.327   9.397
 2973WAT     H2 9162   1.815   8.398   9.275
 2974WAT      O 9163   7.959   5.179   4.299
 2974WAT     H1 9164   7.978   5.276   4.311
 2974WAT     H2 9165   7.887   5.167   4.230
 2975WAT      O 9166   2.590   6.835   4.474
 2975WAT     H1 9167   2.529   6.804   4.547
 2975WAT     H2 9168   2.607   6.933   4.483
 2976WAT      O 9169   0.985   9.773   4.972
 2976WAT     H1 9170   0.934   9.766   4.886
 2976WAT     H2 9171   1.083   9.765   4.952
 2977WAT      O 9172   3.980   9.364   5.211
 2977WAT     H1 9173   3.894   9.369   5.161
 2977WAT     H2 9174   4.035   9.445   5.191
 2978WAT      O 9175   3.524   1.203   4.599
 2978WAT     H1 9176   3.579   1.126   4.631
 2978WAT     H2 9177   3.583   1.270   4.555
 2979WAT      O 9178   1.697   0.298   9.237
 2979WAT     H1 9179   1.668   0.385   9.277
 2979WAT     H2 9180   1.772   0.314   9.173
 2980WAT      O 9181   6.837   6.175   9.390
 2980WAT     H1 9182   6.901   6.188   9.314
 2980WAT     H2 9183   6.835   6.258   9.446
 2981WAT      O 9184   9.790   1.305   7.932
 2981WAT     H1 9185   9.814   1.311   8.029
 2981WAT     H2 9186   9.692   1.291   7.923
 2982WAT      O 9187   0.403   2.175   0.298
 2982WAT     H1 9188   0.305   2.167   0.281
 2982WAT     H2 9189   0.420   2.251   0.361
 2983WAT      O 9190   1.041   4.552   3.068
 2983WAT     H1 9191   1.063   4.571   3.164
 2983WAT     H2 9192   1.043   4.453   3.052
 2984WAT      O 9193   3.236   9.673   6.437
 2984WAT     H1 9194   3.259   9.770   6.440
 2984WAT     H2 9195   3.148   9.658   6.481
 2985WAT      O 9196   2.346   7.873   6.121
 2985WAT     H1 9197   2.342   7.844   6.217
 2985WAT     H2 9198   2.437   7.910   6.101
 2986WAT      O 9199   7.398   7.190   2.385
 2986WAT     H1 9200   7.329   7.263   2.383
 2986WAT     H2 9201   7.480   7.220   2.336
 2987WAT      O 9202   4.649   4.703   5.257
 2987WAT     H1 9203   4.644   4.802   5.265
 2987WAT     H2 9204   4.677   4.678   5.165
 2988WAT      O 9205   5.797   9.483   1.665
 2988WAT     H1 9206   5.733   9.410   1.691
 2988WAT     H2 9207   5.747   9.557   1.620
 2989WAT      O 9208   2.901   6.141   1.134
 2989WAT     H1 9209   2.940   6.061   1.180
 2989WAT     H2 9210   2.905   6.220   1.195
 2990WAT      O 9211   8.325   7.600   9.349
 2990WAT     H1 9212   8.342   7.515   9.299
 2990WAT     H2 9213   8.412   7.648   9.363
 2991WAT      O 9214   2.640   7.116   5.595
 2991WAT     H1 9215   2.641   7.044   5.525
 2991WAT     H2 9216   2.651   7.205   5.551
 2992WAT      O 9217   5.927   5.454   5.780
 2992WAT     H1 9218   6.007   5.449   5.720
 2992WAT     H2 9219   5.903   5.362   5.812
 2993WAT      O 9220   7.628   4.644   5.310
 2993WAT     H1 9221   7.627   4.587   5.228
 2993WAT     H2 9222   7.662   4.735   5.287
 2994WAT      O 9223   2.221   4.449   0.726
 2994WAT     H1 9224   2.296   4.385   0.739
 2994WAT     H2 9225   2.147   4.405   0.674
 2995WAT      O 9226   7.222   5.030   3.623
 2995WAT     H1 9227   7.302   4.983   3.586
 2995WAT     H2 9228   7.164   5.062   3.548
 2996WAT      O 9229   0.820   1.437   6.324
 2996WAT     H1 9230   0.812   1.511   6.390
 2996WAT     H2 9231   0.905   1.446   6.273
 2997WAT      O 9232   0.629   1.067   6.377
 2997WAT     H1 9233   0.688   1.060   6.296
 2997WAT     H2 9234   0.620   1.164   6.402
 2998WAT      O 9235   9.001   2.328   3.928
 2998WAT     H1 9236   9.021   2.294   3.836
 2998WAT     H2 9237   8.963   2.421   3.921
 2999WAT      O 9238   4.432   5.216   4.271
 2999WAT     H1 9239   4.493   5.293   4.291
 2999WAT     H2 9240   4.470   5.161   4.197
 3000WAT      O 9241   4.867   7.792   1.387
 3000WAT     H1 9242   4.850   7.711   1.444
 3000WAT     H2 9243   4.819   7.871   1.426
 3001WAT      O 9244   9.364   5.875   1.623
 3001WAT     H1 9245   9.338   5.972   1.617
 3001WAT     H2 9246   9.282   5.818   1.622
 3002WAT      O 9247   9.574   2.106   0.214
 3002WAT     H1 9248   9.597   2.058   0.298
 3002WAT     H2 9249   9.570   2.204   0.232
 3003WAT      O 9250   6.558   2.080   5.719
 3003WAT     H1 9251   6.516   2.161   5.678
 3003WAT     H2 9252   6.591   2.019   5.646
 3004WAT      O 9253   6.577   7.894   8.796
 3004WAT     H1 9254   6.493   7.931   8.755
 3004WAT     H2 9255   6.603   7.949   8.875
 3005WAT      O 9256   1.463   7.616   3.782
 3005WAT     H1 9257   1.563   7.625   3.787
 3005WAT     H2 9258   1.422   7.662   3.860
 3006WAT      O 9259   8.937   0.334   5.363
 3006WAT     H1 9260   8.992   0.311   5.443
 3006WAT     H2 9261   8.982   0.406   5.310
 3007WAT      O 9262   9.169   4.659   0.360
 3007WAT     H1 9263   9.104   4.590   0.393
 3007WAT     H2 9264   9.151   4.746   0.406
 3008WAT      O 9265   0.425   4.540   1.221
 3008WAT     H1 9266   0.378   4.452   1.217
 3008WAT     H2 9267   0.517   4.527   1.259
 3009WAT      O 9268   6.154   6.963   3.173
 3009WAT     H1 9269   6.059   6.992   3.167
 3009WAT     H2 9270   6.206   7.001   3.097
 3010WAT      O 9271   2.941   8.040   8.476
 3010WAT     H1 9272   2.895   7.951   8.486
 3010WAT     H2 9273   3.029   8.037   8.522
 3011WAT      O 9274   4.109   9.723   8.257
 3011WAT     H1 9275   4.179   9.699   8.324
 3011WAT     H2 9276   4.146   9.709   8.165
 3012WAT      O 9277   5.629   2.929   1.039
 3012WAT     H1 9278   5.580   2.842   1.028
 3012WAT     H2 9279   5.604   2.991   0.966
 3013WAT      O 9280   2.563   5.542   6.035
 3013WAT     H1 9281   2.629   5.535   6.110
 3013WAT     H2 9282   2.594   5.487   5.958
 3014WAT      O 9283   5.462   3.210   9.539
 3014WAT     H1 9284   5.550   3.194   9.584
 3014WAT     H2 9285   5.460   3.163   9.451
 3015WAT      O 9286   2.854   0.756   3.900
 3015WAT     H1 9287   2.839   0.673   3.953
 3015WAT     H2 9288   2.776   0.772   3.839
 3016WAT      O 9289   8.917   1.163   7.962
 3016WAT     H1 9290   8.827   1.201   7.985
 3016WAT     H2 9291   8.918   1.133   7.867
 3017WAT      O 9292   9.303   5.522   8.544
 3017WAT     H1 9293   9.259   5.603   8.506
 3017WAT     H2 9294   9.356   5.477   8.472
 3018WAT      O 9295   7.993   5.240   2.474
 3018WAT     H1 9296   7.974   5.228   2.377
 3018WAT     H2 9297   7.984   5.153   2.521
 3019WAT      O 9298   0.397   1.839   3.658
 3019WAT     H1 9299   0.397   1.893   3.742
 3019WAT     H2 9300   0.370   1.745   3.680
 3020WAT      O 9301   4.223   1.960   1.434
 3020WAT     H1 9302   4.245   1.909   1.517
 3020WAT     H2 9303   4.132   1.934   1.401
 3021WAT      O 9304   6.151   9.549   5.215
 3021WAT     H1 9305   6.196   9.608   5.281
 3021WAT     H2 9306   6.131   9.601   5.132
 3022WAT      O 9307   0.949   1.078   4.670
 3022WAT     H1 9308   0.855   1.065   4.637
 3022WAT     H2 9309   0.967   1.015   4.745
 3023WAT      O 9310   1.596   5.906   5.964
 3023WAT     H1 9311   1.551   5.965   5.897
 3023WAT     H2 9312   1.561   5.926   6.055
 3024WAT      O 9313   2.347   5.817   2.051
 3024WAT     H1 9314   2.377   5.725   2.076
 3024WAT     H2 9315   2.374   5.836   1.956
 3025WAT      O 9316   3.411   7.785   2.095
 3025WAT     H1 9317   3.420   7.693   2.056
 3025WAT     H2 9318   3.361   7.843   2.031
 3026WAT      O 9319   1.479   4.052   4.020
 3026WAT     H1 9320   1.506   4.141   3.984
 3026WAT     H2 9321   1.495   3.982   3.950
 3027WAT      O 9322   5.129   0.608   7.146
 3027WAT     H1 9323   5.076   0.575   7.068
 3027WAT     H2 9324   5.165   0.699   7.127
 3028WAT      O 9325   1.291   1.962   0.831
 3028WAT     H1 9326   1.242   2.049   0.836
 3028WAT     H2 9327   1.348   1.952   0.912
 3029WAT      O 9328   3.233   3.277   6.460
 3029WAT     H1 9329   3.273   3.233   6.380
 3029WAT     H2 9330   3.224   3.376   6.443
 3030WAT      O 9331   7.745   6.551   7.401
 3030WAT     H1 9332   7.700   6.539   7.489
 3030WAT     H2 9333   7.811   6.627   7.407
 3031WAT      O 9334   0.097   9.619   5.871
 3031WAT     H1 9335   0.139   9.709   5.883
 3031WAT     H2 9336   0.011   9.628   5.821
 3032WAT      O 9337   5.750   3.876   2.322
 3032WAT     H1 9338   5.669   3.935   2.316
 3032WAT     H2 9339   5.737   3.796   2.263
 3033WAT      O 9340   3.425   0.663   9.579
 3033WAT     H1 9341   3.334   0.678   9.618
 3033WAT     H2 9342   3.425   0.579   9.525
 3034WAT      O 9343   2.260   0.302   5.370
 3034WAT     H1 9344   2.317   0.224   5.395
 3034WAT     H2 9345   2.292   0.340   5.283
 3035WAT      O 9346   3.594   6.184   6.041
 3035WAT     H1 9347   3.656   6.139   6.106
 3035WAT     H2 9348   3.642   6.259   5.996
 3036WAT      O 9349   3.697   8.519   7.988
 3036WAT     H1 9350   3.724   8.423   7.974
 3036WAT     H2 9351   3.777   8.577   7.978
 3037WAT      O 9352   5.869   4.931   5.988
 3037WAT     H1 9353   5.842   4.876   5.908
 3037WAT     H2 9354   5.954   4.894   6.026
 3038WAT      O 9355   5.449   4.965   7.569
 3038WAT     H1 9356   5.352   4.941   7.567
 3038WAT     H2 9357   5.474   5.010   7.483
 3039WAT      O 9358   4.480   9.720   1.660
 3039WAT     H1 9359   4.427   9.638   1.682
 3039WAT     H2 9360   4.423   9.783   1.607
 3040WAT      O 9361   0.523   0.532   0.000
 3040WAT     H1 9362   0.566   0.610   0.046
 3040WAT     H2 9363   0.424   0.534   0.016
 3041WAT      O 9364   1.844   2.838   0.872
 3041WAT     H1 9365   1.750   2.854   0.843
 3041WAT     H2 9366   1.903   2.833   0.792
 3042WAT      O 9367   2.814   7.341   4.354
 3042WAT     H1 9368   2.748   7.359   4.427
 3042WAT     H2 9369   2.854   7.251   4.367
 3043WAT      O 9370   5.168   1.342   0.830
 3043WAT     H1 9371   5.196   1.258   0.876
 3043WAT     H2 9372   5.241   1.410   0.838
 3044WAT      O 9373   3.623   5.822   7.437
 3044WAT     H1 9374   3.529   5.850   7.455
 3044WAT     H2 9375   3.641   5.735   7.483
 3045WAT      O 9376   3.382   5.319   3.133
 3045WAT     H1 9377   3.295   5.329   3.182
 3045WAT     H2 9378   3.401   5.222   3.119
 3046WAT      O 9379   3.500   6.794   1.827
 3046WAT     H1 9380   3.569   6.861   1.855
 3046WAT     H2 9381   3.535   6.701   1.841
 3047WAT      O 9382   8.889   1.583   9.481
 3047WAT     H1 9383   8.988   1.570   9.489
 3047WAT     H2 9384   8.862   1.666   9.529
 3048WAT      O 9385   6.862   9.022   6.804
 3048WAT     H1 9386   6.883   9.000   6.899
 3048WAT     H2 9387   6.944   9.060   6.760
 3049WAT      O 9388   1.437   8.888   8.781
 3049WAT     H1 9389   1.343   8.918   8.763
 3049WAT     H2 9390   1.442   8.852   8.875
 3050WAT      O 9391   3.686   3.939   3.856
 3050WAT     H1 9392   3.621   4.010   3.830
 3050WAT     H2 9393   3.707   3.948   3.954
 3051WAT      O 9394   2.976   3.941   1.938
 3051WAT     H1 9395   2.985   3.951   1.839
 3051WAT     H2 9396   2.961   4.031   1.979
 3052WAT      O 9397   0.966   3.473   7.333
 3052WAT     H1 9398   1.013   3.561   7.332
 3052WAT     H2 9399   0.874   3.484   7.296
 3053WAT      O 9400   9.599   7.202   9.624
 3053WAT     H1 9401   9.550   7.126   9.584
 3053WAT     H2 9402   9.537   7.257   9.679
 3054WAT      O 9403   9.462   4.062   9.389
 3054WAT     H1 9404   9.366   4.082   9.410
 3054WAT     H2 9405   9.466   4.002   9.309
 3055WAT      O 9406   4.749   5.031   0.401
 3055WAT     H1 9407   4.660   5.031   0.357
 3055WAT     H2 9408   4.800   5.112   0.372
 3056WAT      O 9409   8.934   2.223   9.255
 3056WAT     H1 9410   8.950   2.290   9.327
 3056WAT     H2 9411   8.965   2.133   9.286
 3057WAT      O 9412   9.079   6.267   0.802
 3057WAT     H1 9413   9.116   6.241   0.713
 3057WAT     H2 9414   8.997   6.212   0.821
 3058WAT      O 9415   5.986   8.609   9.678
 3058WAT     H1 9416   5.920   8.547   9.635
 3058WAT     H2 9417   6.077   8.568   9.676
 3059WAT      O 9418   8.562   5.802   1.500
 3059WAT     H1 9419   8.491   5.732   1.497
 3059WAT     H2 9420   8.643   5.766   1.546
 3060WAT      O 9421   9.195   4.260   6.976
 3060WAT     H1 9422   9.229   4.339   7.027
 3060WAT     H2 9423   9.242   4.178   7.007
 3061WAT      O 9424   4.832   7.047   7.449
 3061WAT     H1 9425   4.798   7.082   7.362
 3061WAT     H2 9426   4.931   7.034   7.444
 3062WAT      O 9427   9.840   2.202   2.409
 3062WAT     H1 9428   9.860   2.141   2.486
 3062WAT     H2 9429   9.897   2.177   2.331
 3063WAT      O 9430   7.942   9.727   6.388
 3063WAT     H1 9431   7.911   9.647   6.439
 3063WAT     H2 9432   7.977   9.796   6.451
 3064WAT      O 9433   3.011   3.365   0.278
 3064WAT     H1 9434   3.020   3.455   0.235
 3064WAT     H2 9435   3.035   3.373   0.375
 3065WAT      O 9436   2.045   3.261   1.132
 3065WAT     H1 9437   2.002   3.305   1.053
 3065WAT     H2 9438   1.974   3.229   1.195
 3066WAT      O 9439   3.880   8.270   0.240
 3066WAT     H1 9440   3.889   8.197   0.307
 3066WAT     H2 9441   3.971   8.306   0.218
 3067WAT      O 9442   5.013   5.766   8.310
 3067WAT     H1 9443   5.018   5.669   8.287
 3067WAT     H2 9444   4.972   5.778   8.400
 3068WAT      O 9445   0.240   6.292   5.244
 3068WAT     H1 9446   0.202   6.213   5.196
 3068WAT     H2 9447   0.340   6.293   5.232
 3069WAT      O 9448   4.927   6.005   7.143
 3069WAT     H1 9449   4.980   5.948   7.207
 3069WAT     H2 9450   4.981   6.022   7.061
 3070WAT      O 9451   6.266   7.524   6.167
 3070WAT     H1 9452   6.339   7.506   6.233
 3070WAT     H2 9453   6.283   7.472   6.084
 3071WAT      O 9454   7.756   4.884   8.902
 3071WAT     H1 9455   7.687   4.875   8.974
 3071WAT     H2 9456   7.757   4.979   8.869
 3072WAT      O 9457   9.297   3.408   5.235
 3072WAT     H1 9458   9.232   3.409   5.158
 3072WAT     H2 9459   9.294   3.319   5.279
 3073WAT      O 9460   5.220   6.585   5.147
 3073WAT     H1 9461   5.201   6.676   5.183
 3073WAT     H2 9462   5.138   6.548   5.104
 3074WAT      O 9463   0.156   3.627   3.792
 3074WAT     H1 9464   0.150   3.643   3.890
 3074WAT     H2 9465   0.237   3.572   3.771
 3075WAT      O 9466   5.285   5.857   1.405
 3075WAT     H1 9467   5.213   5.876   1.472
 3075WAT     H2 9468   5.299   5.938   1.348
 3076WAT      O 9469   0.885   0.102   4.304
 3076WAT     H1 9470   0.960   0.037   4.301
 3076WAT     H2 9471   0.832   0.088   4.388
 3077WAT      O 9472   4.564   4.594   6.893
 3077WAT     H1 9473   4.600   4.569   6.803
 3077WAT     H2 9474   4.543   4.692   6.895
 3078WAT      O 9475   5.994   0.879   2.629
 3078WAT     H1 9476   6.000   0.976   2.649
 3078WAT     H2 9477   5.983   0.866   2.531
 3079WAT      O 9478   3.435   9.195   1.353
 3079WAT     H1 9479   3.346   9.168   1.391
 3079WAT     H2 9480   3.444   9.161   1.260
 3080WAT      O 9481   2.348   1.412   0.189
 3080WAT     H1 9482   2.249   1.409   0.175
 3080WAT     H2 9483   2.390   1.333   0.143
 3081WAT      O 9484   1.852   1.935   1.877
 3081WAT     H1 9485   1.841   1.892   1.788
 3081WAT     H2 9486   1.943   1.977   1.883
 3082WAT      O 9487   3.626   9.711   8.187
 3082WAT     H1 9488   3.575   9.788   8.149
 3082WAT     H2 9489   3.651   9.648   8.113
 3083WAT      O 9490   2.816   0.319   9.631
 3083WAT     H1 9491   2.778   0.235   9.671
 3083WAT     H2 9492   2.868   0.295   9.549
 3084WAT      O 9493   6.531   7.449   7.229
 3084WAT     H1 9494   6.484   7.476   7.145
 3084WAT     H2 9495   6.495   7.502   7.305
 3085WAT      O 9496   8.393   7.342   9.274
 3085WAT     H1 9497   8.338   7.259   9.265
 3085WAT     H2 9498   8.459   7.330   9.348
 3086WAT      O 9499   1.322   0.831   8.778
 3086WAT     H1 9500   1.358   0.866   8.692
 3086WAT     H2 9501   1.370   0.874   8.854
 3087WAT      O 9502   4.115   0.311   2.315
 3087WAT     H1 9503   4.138   0.259   2.232
 3087WAT     H2 9504   4.058   0.389   2.290
 3088WAT      O 9505   7.224   8.675   5.128
 3088WAT     H1 9506   7.309   8.720   5.155
 3088WAT     H2 9507   7.157   8.744   5.099
 3089WAT      O 9508   6.509   5.810   3.954
 3089WAT     H1 9509   6.550   5.790   4.043
 3089WAT     H2 9510   6.483   5.724   3.909
 3090WAT      O 9511   5.007   1.512   1.802
 3090WAT     H1 9512   4.963   1.454   1.733
 3090WAT     H2 9513   4.982   1.608   1.786
 3091WAT      O 9514   4.798   9.547   2.610
 3091WAT     H1 9515   4.792   9.449   2.590
 3091WAT     H2 9516   4.826   9.596   2.527
 3092WAT      O 9517   6.226   3.702   3.470
 3092WAT     H1 9518   6.285   3.704   3.552
 3092WAT     H2 9519   6.152   3.767   3.481
 3093WAT      O 9520   4.159   0.648   9.264
 3093WAT     H1 9521   4.256   0.649   9.286
 3093WAT     H2 9522   4.112   0.719   9.318
 3094WAT      O 9523   2.011   2.865   3.251
 3094WAT     H1 9524   1.965   2.926   3.314
 3094WAT     H2 9525   1.954   2.850   3.170
 3095WAT      O 9526   5.874   3.426   5.130
 3095WAT     H1 9527   5.779   3.450   5.111
 3095WAT     H2 9528   5.877   3.355   5.201
 3096WAT      O 9529   1.498   7.366   1.220
 3096WAT     H1 9530   1.475   7.276   1.256
 3096WAT     H2 9531   1.415   7.418   1.202
 3097WAT      O 9532   1.159   4.133   1.313
 3097WAT     H1 9533   1.206   4.073   1.249
 3097WAT     H2 9534   1.106   4.078   1.378
 3098WAT      O 9535   1.814   8.081   5.387
 3098WAT     H1 9536   1.890   8.131   5.345
 3098WAT     H2 9537   1.837   7.983   5.390
 3099WAT      O 9538   5.278   1.305   7.999
 3099WAT     H1 9539   5.320   1.383   7.953
 3099WAT     H2 9540   5.317   1.220   7.963
 3100WAT      O 9541   2.546   8.862   4.292
 3100WAT     H1 9542   2.465   8.807   4.314
 3100WAT     H2 9543   2.612   8.804   4.244
 3101WAT      O 9544   1.123   0.287   3.482
 3101WAT     H1 9545   1.119   0.282   3.582
 3101WAT     H2 9546   1.057   0.354   3.449
 3102WAT      O 9547   8.678   8.773   8.335
 3102WAT     H1 9548   8.578   8.777   8.328
 3102WAT     H2 9549   8.715   8.865   8.346
 3103WAT      O 9550   8.622   3.472   0.460
 3103WAT     H1 9551   8.636   3.386   0.510
 3103WAT     H2 9552   8.640   3.549   0.521
 3104WAT      O 9553   1.015   8.990   4.659
 3104WAT     H1 9554   1.035   8.899   4.623
 3104WAT     H2 9555   1.091   9.051   4.640
 3105WAT      O 9556   6.409   0.754   6.643
 3105WAT     H1 9557   6.424   0.851   6.662
 3105WAT     H2 9558   6.435   0.735   6.548
 3106WAT      O 9559   5.231   7.940   8.024
 3106WAT     H1 9560   5.147   7.994   8.028
 3106WAT     H2 9561   5.309   7.998   8.047
 3107WAT      O 9562   0.566   4.784   4.509
 3107WAT     H1 9563   0.506   4.855   4.472
 3107WAT     H2 9564   0.516   4.697   4.513
 3108WAT      O 9565   5.472   5.890   0.447
 3108WAT     H1 9566   5.404   5.943   0.398
 3108WAT     H2 9567   5.430   5.807   0.484
 3109WAT      O 9568   8.051   3.171   6.996
 3109WAT     H1 9569   7.976   3.141   7.056
 3109WAT     H2 9570   8.032   3.264   6.964
 3110WAT      O 9571   8.177   3.042   0.790
 3110WAT     H1 9572   8.080   3.026   0.808
 3110WAT     H2 9573   8.213   2.965   0.736
 3111WAT      O 9574   4.340   6.698   7.043
 3111WAT     H1 9575   4.332   6.688   6.944
 3111WAT     H2 9576   4.292   6.782   7.071
 3112WAT      O 9577   0.596   0.593   4.116
 3112WAT     H1 9578   0.581   0.626   4.209
 3112WAT     H2 9579   0.687   0.620   4.085
 3113WAT      O 9580   4.251   3.215   8.555
 3113WAT     H1 9581   4.236   3.313   8.543
 3113WAT     H2 9582   4.169   3.165   8.527
 3114WAT      O 9583   4.529   4.221   1.866
 3114WAT     H1 9584   4.550   4.193   1.959
 3114WAT     H2 9585   4.472   4.303   1.867
 3115WAT      O 9586   3.901   6.831   8.018
 3115WAT     H1 9587   3.819   6.881   7.989
 3115WAT     H2 9588   3.914   6.842   8.116
 3116WAT      O 9589   7.700   3.153   1.930
 3116WAT     H1 9590   7.663   3.113   1.846
 3116WAT     H2 9591   7.732   3.246   1.911
 3117WAT      O 9592   7.177   8.062   2.876
 3117WAT     H1 9593   7.181   8.123   2.796
 3117WAT     H2 9594   7.082   8.044   2.899
 3118WAT      O 9595   1.061   8.061   3.247
 3118WAT     H1 9596   1.128   8.069   3.173
 3118WAT     H2 9597   0.992   8.133   3.237
 3119WAT      O 9598   6.561   5.303   0.433
 3119WAT     H1 9599   6.480   5.321   0.377
 3119WAT     H2 9600   6.536   5.305   0.529
 3120WAT      O 9601   1.460   3.074   6.579
 3120WAT     H1 9602   1.486   3.156   6.630
 3120WAT     H2 9603   1.501   3.078   6.488
 3121WAT      O 9604   4.722   8.465   7.763
 3121WAT     H1 9605   4.697   8.474   7.859
 3121WAT     H2 9606   4.729   8.369   7.739
 3122WAT      O 9607   9.144   0.065   8.394
 3122WAT     H1 9608   9.162   0.163   8.381
 3122WAT     H2 9609   9.200   0.031   8.470
 3123WAT      O 9610   2.090   6.504   3.161
 3123WAT     H1 9611   2.117   6.554   3.080
 3123WAT     H2 9612   1.991   6.515   3.175
 3124WAT      O 9613   2.674   2.916   1.911
 3124WAT     H1 9614   2.637   3.001   1.874
 3124WAT     H2 9615   2.625   2.838   1.871
 3125WAT      O 9616   1.642   7.713   5.632
 3125WAT     H1 9617   1.695   7.696   5.715
 3125WAT     H2 9618   1.610   7.808   5.632
 3126WAT      O 9619   6.767   9.756   3.577
 3126WAT     H1 9620   6.672   9.766   3.606
 3126WAT     H2 9621   6.814   9.694   3.640
 3127WAT      O 9622   6.275   5.359   1.703
 3127WAT     H1 9623   6.194   5.308   1.733
 3127WAT     H2 9624   6.319   5.401   1.782
 3128WAT      O 9625   6.864   1.772   3.585
 3128WAT     H1 9626   6.807   1.773   3.668
 3128WAT     H2 9627   6.897   1.680   3.568
 3129WAT      O 9628   2.925   2.121   6.994
 3129WAT     H1 9629   2.970   2.208   7.012
 3129WAT     H2 9630   2.834   2.138   6.956
 3130WAT      O 9631   2.474   3.940   7.191
 3130WAT     H1 9632   2.490   3.910   7.285
 3130WAT     H2 9633   2.543   4.008   7.166
 3131WAT      O 9634   7.707   2.511   3.641
 3131WAT     H1 9635   7.616   2.497   3.678
 3131WAT     H2 9636   7.768   2.439   3.674
 3132WAT      O 9637   0.606   7.255   2.936
 3132WAT     H1 9638   0.612   7.340   2.884
 3132WAT     H2 9639   0.553   7.271   3.020
 3133WAT      O 9640   3.205   2.544   5.392
 3133WAT     H1 9641   3.154   2.613   5.340
 3133WAT     H2 9642   3.231   2.469   5.331
 3134WAT      O 9643   6.072   1.530   2.846
 3134WAT     H1 9644   5.997   1.597   2.848
 3134WAT     H2 9645   6.099   1.514   2.751
 3135WAT      O 9646   0.405   8.741   2.656
 3135WAT     H1 9647   0.315   8.782   2.671
 3135WAT     H2 9648   0.459   8.746   2.741
 3136WAT      O 9649   4.097   6.215   0.422
 3136WAT     H1 9650   4.072   6.141   0.359
 3136WAT     H2 9651   4.034   6.216   0.500
 3137WAT      O 9652   2.238   1.974   7.121
 3137WAT     H1 9653   2.314   2.002   7.062
 3137WAT     H2 9654   2.250   1.878   7.147
 3138WAT      O 9655   5.863   9.397   6.717
 3138WAT     H1 9656   5.850   9.476   6.657
 3138WAT     H2 9657   5.958   9.395   6.749
 3139WAT      O 9658   7.415   4.214   0.827
 3139WAT     H1 9659   7.492   4.271   0.855
 3139WAT     H2 9660   7.428   4.121   0.862
 3140WAT      O 9661   6.168   6.244   8.602
 3140WAT     H1 9662   6.177   6.228   8.504
 3140WAT     H2 9663   6.255   6.277   8.639
 3141WAT      O 9664   8.142   8.868   5.325
 3141WAT     H1 9665   8.159   8.963   5.300
 3141WAT     H2 9666   8.101   8.864   5.416
 3142WAT      O 9667   7.823   7.928   9.129
 3142WAT     H1 9668   7.853   8.020   9.104
 3142WAT     H2 9669   7.839   7.865   9.053
 3143WAT      O 9670   6.243   7.055   1.836
 3143WAT     H1 9671   6.235   7.026   1.932
 3143WAT     H2 9672   6.272   7.151   1.832
 3144WAT      O 9673   1.403   0.065   0.690
 3144WAT     H1 9674   1.428  -0.002   0.620
 3144WAT     H2 9675   1.432   0.156   0.660
 3145WAT      O 9676   4.477   4.301   9.483
 3145WAT     H1 9677   4.499   4.205   9.464
 3145WAT     H2 9678   4.442   4.343   9.400
 3146WAT      O 9679   4.705   7.328   3.595
 3146WAT     H1 9680   4.741   7.420   3.610
 3146WAT     H2 9681   4.611   7.334   3.562
 3147WAT      O 9682   5.955   7.632   1.587
 3147WAT     H1 9683   5.876   7.693   1.586
 3147WAT     H2 9684   6.033   7.678   1.544
 3148WAT      O 9685   3.228   2.974   2.588
 3148WAT     H1 9686   3.301   2.908   2.572
 3148WAT     H2 9687   3.148   2.926   2.624
 3149WAT      O 9688   4.017   8.168   7.250
 3149WAT     H1 9689   3.921   8.196   7.242
 3149WAT     H2 9690   4.060   8.219   7.325
 3150WAT      O 9691   7.221   5.824   9.104
 3150WAT     H1 9692   7.152   5.810   9.033
 3150WAT     H2 9693   7.180   5.809   9.194
 3151WAT      O 9694   9.522   6.960   1.392
 3151WAT     H1 9695   9.586   6.914   1.453
 3151WAT     H2 9696   9.527   7.059   1.407
 3152WAT      O 9697   6.561   4.396   6.215
 3152WAT     H1 9698   6.607   4.342   6.145
 3152WAT     H2 9699   6.590   4.491   6.210
 3153WAT      O 9700   8.110   8.083   0.346
 3153WAT     H1 9701   8.156   8.172   0.346
 3153WAT     H2 9702   8.175   8.012   0.320
 3154WAT      O 9703   8.593   5.275   7.365
 3154WAT     H1 9704   8.601   5.316   7.456
 3154WAT     H2 9705   8.498   5.282   7.333
 3155WAT      O 9706   5.822   7.474   3.872
 3155WAT     H1 9707   5.865   7.403   3.816
 3155WAT     H2 9708   5.882   7.496   3.949
 3156WAT      O 9709   6.609   2.685   1.536
 3156WAT     H1 9710   6.514   2.695   1.566
 3156WAT     H2 9711   6.641   2.771   1.496
 3157WAT      O 9712   4.805   9.395   9.856
 3157WAT     H1 9713   4.718   9.434   9.829
 3157WAT     H2 9714   4.849   9.351   9.777
 3158WAT      O 9715   6.546   5.121   6.462
 3158WAT     H1 9716   6.545   5.109   6.561
 3158WAT     H2 9717   6.456   5.152   6.431
 3159WAT      O 9718   4.528   2.209   1.556
 3159WAT     H1 9719   4.605   2.158   1.593
 3159WAT     H2 9720   4.507   2.175   1.464
 3160WAT      O 9721   5.708   8.393   1.752
 3160WAT     H1 9722   5.633   8.344   1.797
 3160WAT     H2 9723   5.790   8.387   1.808
 3161WAT      O 9724   4.783   2.794   0.589
 3161WAT     H1 9725   4.755   2.859   0.659
 3161WAT     H2 9726   4.725   2.806   0.508
 3162WAT      O 9727   5.054   8.480   3.252
 3162WAT     H1 9728   5.007   8.487   3.164
 3162WAT     H2 9729   5.147   8.517   3.244
 3163WAT      O 9730   1.678   3.760   8.715
 3163WAT     H1 9731   1.740   3.731   8.643
 3163WAT     H2 9732   1.714   3.842   8.760
 3164WAT      O 9733   0.767   8.610   4.643
 3164WAT     H1 9734   0.737   8.688   4.698
 3164WAT     H2 9735   0.688   8.564   4.603
 3165WAT      O 9736   8.475   6.920   6.049
 3165WAT     H1 9737   8.413   6.899   5.973
 3165WAT     H2 9738   8.434   6.890   6.135
 3166WAT      O 9739   0.719   3.085   1.782
 3166WAT     H1 9740   0.654   3.047   1.847
 3166WAT     H2 9741   0.677   3.090   1.691
 3167WAT      O 9742   9.378   5.052   4.402
 3167WAT     H1 9743   9.448   5.049   4.330
 3167WAT     H2 9744   9.418   5.023   4.489
 3168WAT      O 9745   8.173   9.414   7.987
 3168WAT     H1 9746   8.156   9.346   7.916
 3168WAT     H2 9747   8.262   9.397   8.029
 3169WAT      O 9748   2.970   3.275   7.221
 3169WAT     H1 9749   2.876   3.281   7.189
 3169WAT     H2 9750   3.011   3.366   7.223
 3170WAT      O 9751   3.990   2.165   4.957
 3170WAT     H1 9752   3.990   2.226   4.878
 3170WAT     H2 9753   3.961   2.074   4.929
 3171WAT      O 9754   3.413   9.776   4.150
 3171WAT     H1 9755   3.356   9.812   4.224
 3171WAT     H2 9756   3.492   9.836   4.136
 3172WAT      O 9757   7.898   4.527   3.831
 3172WAT     H1 9758   7.962   4.470   3.780
 3172WAT     H2 9759   7.902   4.504   3.928
 3173WAT      O 9760   6.689   5.255   6.926
 3173WAT     H1 9761   6.762   5.245   6.858
 3173WAT     H2 9762   6.725   5.302   7.007
 3174WAT      O 9763   2.696   8.912   7.710
 3174WAT     H1 9764   2.650   8.990   7.668
 3174WAT     H2 9765   2.784   8.941   7.749
 3175WAT      O 9766   6.043   6.066   5.295
 3175WAT     H1 9767   6.011   6.018   5.213
 3175WAT     H2 9768   6.052   6.002   5.371
 3176WAT      O 9769   4.288   6.994   3.806
 3176WAT     H1 9770   4.358   7.023   3.740
 3176WAT     H2 9771   4.331   6.942   3.879
 3177WAT      O 9772   3.153   2.743   5.220
 3177WAT     H1 9773   3.244   2.785   5.230
 3177WAT     H2 9774   3.152   2.687   5.138
 3178WAT      O 9775   5.367   3.076   9.890
 3178WAT     H1 9776   5.294   3.072   9.821
 3178WAT     H2 9777   5.370   2.990   9.941
 3179WAT      O 9778   0.621   8.313   4.703
 3179WAT     H1 9779   0.585   8.385   4.763
 3179WAT     H2 9780   0.545   8.268   4.656
 3180WAT      O 9781   1.527   4.616   6.849
 3180WAT     H1 9782   1.529   4.697   6.908
 3180WAT     H2 9783   1.616   4.571   6.850
 3181WAT      O 9784   7.623   5.412   8.317
 3181WAT     H1 9785   7.624   5.501   8.271
 3181WAT     H2 9786   7.563   5.417   8.397
 3182WAT      O 9787   8.139   4.330   8.366
 3182WAT     H1 9788   8.055   4.279   8.346
 3182WAT     H2 9789   8.217   4.286   8.321
 3183WAT      O 9790   3.184   6.368   8.080
 3183WAT     H1 9791   3.161   6.272   8.063
 3183WAT     H2 9792   3.103   6.416   8.113
 3184WAT      O 9793   9.213   2.615   8.594
 3184WAT     H1 9794   9.148   2.600   8.669
 3184WAT     H2 9795   9.213   2.711   8.568
 3185WAT      O 9796   7.290   9.326   6.657
 3185WAT     H1 9797   7.205   9.333   6.709
 3185WAT     H2 9798   7.277   9.263   6.580
 3186WAT      O 9799   8.625   8.119   3.016
 3186WAT     H1 9800   8.537   8.112   3.063
 3186WAT     H2 9801   8.697   8.088   3.077
 3187WAT      O 9802   3.289   1.446   9.713
 3187WAT     H1 9803   3.259   1.382   9.643
 3187WAT     H2 9804   3.377   1.486   9.687
 3188WAT      O 9805   3.704   1.432   4.523
 3188WAT     H1 9806   3.671   1.521   4.494
 3188WAT     H2 9807   3.784   1.406   4.469
 3189WAT      O 9808   8.391   2.154   7.365
 3189WAT     H1 9809   8.389   2.102   7.450
 3189WAT     H2 9810   8.380   2.252   7.386
 3190WAT      O 9811   5.350   9.298   3.921
 3190WAT     H1 9812   5.365   9.202   3.900
 3190WAT     H2 9813   5.256   9.310   3.954
 3191WAT      O 9814   8.520   8.862   6.783
 3191WAT     H1 9815   8.426   8.887   6.759
 3191WAT     H2 9816   8.520   8.812   6.870
 3192WAT      O 9817   3.519   9.093   2.454
 3192WAT     H1 9818   3.428   9.094   2.496
 3192WAT     H2 9819   3.530   9.009   2.401
 3193WAT      O 9820   0.109   4.467   2.886
 3193WAT     H1 9821   0.028   4.517   2.856
 3193WAT     H2 9822   0.189   4.528   2.881
 3194WAT      O 9823   4.055   2.509   0.464
 3194WAT     H1 9824   4.125   2.506   0.534
 3194WAT     H2 9825   3.966   2.486   0.504
 3195WAT      O 9826   5.165   3.952   4.295
 3195WAT     H1 9827   5.245   3.977   4.241
 3195WAT     H2 9828   5.118   3.875   4.250
 3196WAT      O 9829   6.255   7.597   5.443
 3196WAT     H1 9830   6.267   7.503   5.476
 3196WAT     H2 9831   6.287   7.661   5.513
 3197WAT      O 9832   7.794   5.822   8.510
 3197WAT     H1 9833   7.792   5.835   8.609
 3197WAT     H2 9834   7.879   5.778   8.483
 3198WAT      O 9835   7.289   7.276   8.218
 3198WAT     H1 9836   7.382   7.240   8.228
 3198WAT     H2 9837   7.291   7.357   8.160
 3199WAT      O 9838   6.547   8.738   6.934
 3199WAT     H1 9839   6.606   8.682   6.992
 3199WAT     H2 9840   6.601   8.772   6.857
 3200WAT      O 9841   7.869   0.847   7.720
 3200WAT     H1 9842   7.810   0.900   7.659
 3200WAT     H2 9843   7.952   0.900   7.740
 3201WAT      O 9844   8.949   1.009   7.094
 3201WAT     H1 9845   9.034   1.042   7.052
 3201WAT     H2 9846   8.923   0.922   7.052
 3202WAT      O 9847   2.014   9.038   1.343
 3202WAT     H1 9848   1.936   9.046   1.405
 3202WAT     H2 9849   2.067   8.956   1.366
 3203WAT      O 9850   4.747   0.416   0.919
 3203WAT     H1 9851   4.815   0.365   0.867
 3203WAT     H2 9852   4.786   0.503   0.949
 3204WAT      O 9853   7.425   1.739   9.190
 3204WAT     H1 9854   7.430   1.816   9.126
 3204WAT     H2 9855   7.499   1.674   9.170
 3205WAT      O 9856   1.584   6.816   3.528
 3205WAT     H1 9857   1.672   6.772   3.507
 3205WAT     H2 9858   1.591   6.914   3.509
 3206WAT      O 9859   1.625   0.868   5.980
 3206WAT     H1 9860   1.629   0.800   5.907
 3206WAT     H2 9861   1.623   0.960   5.940
 3207WAT      O 9862   8.835   7.283   6.828
 3207WAT     H1 9863   8.774   7.255   6.755
 3207WAT     H2 9864   8.918   7.323   6.789
 3208WAT      O 9865   0.580   4.867   5.609
 3208WAT     H1 9866   0.660   4.822   5.569
 3208WAT     H2 9867   0.498   4.814   5.588
 3209WAT      O 9868   0.764   5.060   0.495
 3209WAT     H1 9869   0.748   4.971   0.536
 3209WAT     H2 9870   0.691   5.123   0.521
 3210WAT      O 9871   0.250   3.542   4.034
 3210WAT     H1 9872   0.347   3.565   4.031
 3210WAT     H2 9873   0.240   3.449   4.070
 3211WAT      O 9874   4.060   3.242   1.651
 3211WAT     H1 9875   3.977   3.203   1.610
 3211WAT     H2 9876   4.133   3.245   1.582
 3212WAT      O 9877   2.698   8.289   5.207
 3212WAT     H1 9878   2.693   8.379   5.162
 3212WAT     H2 9879   2.637   8.288   5.286
 3213WAT      O 9880   1.860   0.207   4.257
 3213WAT     H1 9881   1.864   0.158   4.169
 3213WAT     H2 9882   1.766   0.237   4.274
 3214WAT      O 9883   2.235   2.815   9.452
 3214WAT     H1 9884   2.195   2.841   9.364
 3214WAT     H2 9885   2.161   2.796   9.517
 3215WAT      O 9886   6.237   3.613   6.587
 3215WAT     H1 9887   6.249   3.710   6.562
 3215WAT     H2 9888   6.291   3.556   6.525
 3216WAT      O 9889   8.617   7.068   9.029
 3216WAT     H1 9890   8.664   6.985   8.997
 3216WAT     H2 9891   8.518   7.054   9.024
 3217WAT      O 9892   9.040   7.231   8.308
 3217WAT     H1 9893   9.137   7.233   8.332
 3217WAT     H2 9894   8.985   7.242   8.390
 3218WAT      O 9895   8.778   0.162   5.204
 3218WAT     H1 9896   8.761   0.074   5.248
 3218WAT     H2 9897   8.836   0.218   5.264
 3219WAT      O 9898   9.665   2.684   9.698
 3219WAT     H1 9899   9.638   2.774   9.732
 3219WAT     H2 9900   9.762   2.668   9.718
 3220WAT      O 9901   5.214   1.265   0.578
 3220WAT     H1 9902   5.201   1.291   0.674
 3220WAT     H2 9903   5.240   1.169   0.573
 3221WAT      O 9904   1.560   2.116   2.009
 3221WAT     H1 9905   1.597   2.059   2.082
 3221WAT     H2 9906   1.633   2.142   1.946
 3222WAT      O 9907   0.893   3.530   3.167
 3222WAT     H1 9908   0.808   3.524   3.219
 3222WAT     H2 9909   0.937   3.440   3.164
 3223WAT      O 9910   4.722   4.658   4.997
 3223WAT     H1 9911   4.641   4.653   4.939
 3223WAT     H2 9912   4.769   4.570   4.997
 3224WAT      O 9913   6.243   3.371   1.518
 3224WAT     H1 9914   6.215   3.305   1.448
 3224WAT     H2 9915   6.191   3.456   1.506
 3225WAT      O 9916   9.748   9.428   7.222
 3225WAT     H1 9917   9.818   9.453   7.289
 3225WAT     H2 9918   9.668   9.391   7.269
 3226WAT      O 9919   6.934   1.261   4.633
 3226WAT     H1 9920   6.852   1.315   4.654
 3226WAT     H2 9921   6.957   1.272   4.536
 3227WAT      O 9922   9.046   8.558   2.949
 3227WAT     H1 9923   9.119   8.503   2.990
 3227WAT     H2 9924   9.085   8.642   2.912
 3228WAT      O 9925   8.081   5.853   2.171
 3228WAT     H1 9926   8.129   5.771   2.140
 3228WAT     H2 9927   8.130   5.894   2.248
 3229WAT      O 9928   1.140   4.293   3.306
 3229WAT     H1 9929   1.193   4.325   3.384
 3229WAT     H2 9930   1.190   4.311   3.221
 3230WAT      O 9931   1.575   8.873   1.868
 3230WAT     H1 9932   1.604   8.791   1.818
 3230WAT     H2 9933   1.569   8.852   1.966
 3231WAT      O 9934   1.555   1.462   0.002
 3231WAT     H1 9935   1.506   1.451   0.088
 3231WAT     H2 9936   1.599   1.552   0.000
 3232WAT      O 9937   6.616   6.007   3.500
 3232WAT     H1 9938   6.540   5.952   3.465
 3232WAT     H2 9939   6.612   6.098   3.459
 3233WAT      O 9940   9.324   2.473   1.155
 3233WAT     H1 9941   9.245   2.523   1.120
 3233WAT     H2 9942   9.333   2.490   1.253
 3234WAT      O 9943   0.379   7.660   5.369
 3234WAT     H1 9944   0.371   7.707   5.281
 3234WAT     H2 9945   0.466   7.612   5.373
 3235WAT      O 9946   5.730   3.770   4.221
 3235WAT     H1 9947   5.656   3.738   4.279
 3235WAT     H2 9948   5.697   3.845   4.164
 3236WAT      O 9949   0.443   1.945   6.468
 3236WAT     H1 9950   0.523   1.936   6.527
 3236WAT     H2 9951   0.364   1.906   6.514
 3237WAT      O 9952   1.945   1.696   3.618
 3237WAT     H1 9953   2.022   1.647   3.658
 3237WAT     H2 9954   1.973   1.739   3.532
 3238WAT      O 9955   1.338   1.334   1.813
 3238WAT     H1 9956   1.385   1.256   1.853
 3238WAT     H2 9957   1.306   1.394   1.886
 3239WAT      O 9958   1.331   3.620   5.644
 3239WAT     H1 9959   1.314   3.586   5.737
 3239WAT     H2 9960   1.359   3.545   5.586
 3240WAT      O 9961   3.445   8.287   9.724
 3240WAT     H1 9962   3.469   8.383   9.713
 3240WAT     H2 9963   3.503   8.231   9.664
 3241WAT      O 9964   3.498   1.886   3.506
 3241WAT     H1 9965   3.578   1.873   3.565
 3241WAT     H2 9966   3.474   1.798   3.464
 3242WAT      O 9967   5.942   7.694   1.924
 3242WAT     H1 9968   6.006   7.746   1.868
 3242WAT     H2 9969   5.972   7.598   1.930
 3243WAT      O 9970   2.885   4.739   7.059
 3243WAT     H1 9971   2.885   4.812   6.990
 3243WAT     H2 9972   2.799   4.687   7.052
 3244WAT      O 9973   2.822   8.672   3.700
 3244WAT     H1 9974   2.922   8.669   3.702
 3244WAT     H2 9975   2.791   8.767   3.708
 3245WAT      O 9976   0.742   5.295   5.644
 3245WAT     H1 9977   0.795   5.298   5.729
 3245WAT     H2 9978   0.718   5.388   5.616
 3246WAT      O 9979   1.517   4.259   8.693
 3246WAT     H1 9980   1.499   4.174   8.643
 3246WAT     H2 9981   1.490   4.248   8.789
 3247WAT      O 9982   3.337   4.355   0.572
 3247WAT     H1 9983   3.300   4.419   0.505
 3247WAT     H2 9984   3.324   4.393   0.664
 3248WAT      O 9985   3.595   1.504   9.761
 3248WAT     H1 9986   3.573   1.416   9.803
 3248WAT     H2 9987   3.694   1.512   9.750
 3249WAT      O 9988   6.376   4.471   0.600
 3249WAT     H1 9989   6.281   4.454   0.574
 3249WAT     H2 9990   6.381   4.551   0.660
 3250WAT      O 9991   6.967   2.501   4.882
 3250WAT     H1 9992   6.988   2.598   4.868
 3250WAT     H2 9993   7.020   2.446   4.816
 3251WAT      O 9994   7.277   8.133   4.053
 3251WAT     H1 9995   7.194   8.146   4.107
 3251WAT     H2 9996   7.257   8.072   3.976
 3252WAT      O 9997   9.649   8.399   4.921
 3252WAT     H1 9998   9.616   8.316   4.877
 3252WAT     H2 9999   9.590   8.421   4.999
 3253WAT      O10000   8.317   0.218   3.497
 3253WAT     H110001   8.403   0.168   3.489
 3253WAT     H210002   8.320   0.279   3.577
 3254WAT      O10003   4.272   6.509   0.721
 3254WAT     H110004   4.259   6.420   0.678
 3254WAT     H210005   4.193   6.567   0.703
 3255WAT      O10006   0.680   4.827   0.611
 3255WAT     H110007   0.625   4.868   0.684
 3255WAT     H210008   0.667   4.727   0.612
 3256WAT      O10009   3.387   6.421   5.334
 3256WAT     H110010   3.336   6.398   5.416
 3256WAT     H210011   3.389   6.521   5.323
 3257WAT      O10012   1.319   0.756   7.749
 3257WAT     H110013   1.293   0.713   7.663
 3257WAT     H210014   1.374   0.838   7.730
 3258WAT      O10015   3.342   6.104   1.841
 3258WAT     H110016   3.273   6.090   1.769
 3258WAT     H210017   3.311   6.059   1.925
 3259WAT      O10018   0.174   5.008   3.796
 3259WAT     H110019   0.195   5.035   3.702
 3259WAT     H210020   0.095   4.947   3.796
 3260WAT      O10021   2.681   4.768   7.592
 3260WAT     H110022   2.625   4.793   7.513
 3260WAT     H210023   2.696   4.849   7.649
 3261WAT      O10024   3.913   6.983   7.701
 3261WAT     H110025   3.832   6.936   7.737
 3261WAT     H210026   3.949   7.045   7.770
 3262WAT      O10027   6.073   7.802   0.813
 3262WAT     H110028   5.997   7.737   0.809
 3262WAT     H210029   6.049   7.886   0.765
 3263WAT      O10030   7.674   0.483   9.631
 3263WAT     H110031   7.748   0.541   9.664
 3263WAT     H210032   7.643   0.423   9.705
 3264WAT      O10033   3.131   5.714   3.313
 3264WAT     H110034   3.093   5.719   3.220
 3264WAT     H210035   3.126   5.803   3.356
 3265WAT      O10036   4.945   3.114   6.467
 3265WAT     H110037   4.945   3.213   6.482
 3265WAT     H210038   5.007   3.091   6.392
 3266WAT      O10039   8.801   6.296   7.831
 3266WAT     H110040   8.713   6.327   7.864
 3266WAT     H210041   8.816   6.202   7.861
 3267WAT      O10042   9.466   1.472   5.245
 3267WAT     H110043   9.527   1.397   5.217
 3267WAT     H210044   9.385   1.434   5.290
 3268WAT      O10045   9.300   4.704   2.040
 3268WAT     H110046   9.349   4.621   2.070
 3268WAT     H210047   9.266   4.690   1.947
 3269WAT      O10048   5.899   7.184   2.288
 3269WAT     H110049   5.888   7.160   2.192
 3269WAT     H210050   5.922   7.102   2.340
 3270WAT      O10051   6.852   9.465   1.590
 3270WAT     H110052   6.941   9.459   1.635
 3270WAT     H210053   6.790   9.397   1.628
 3271WAT      O10054   1.310   9.401   1.224
 3271WAT     H110055   1.222   9.446   1.244
 3271WAT     H210056   1.378   9.471   1.203
 3272WAT      O10057   3.035   2.860   1.386
 3272WAT     H110058   2.962   2.797   1.361
 3272WAT     H210059   3.121   2.810   1.394
 3273WAT      O10060   7.353   0.736   3.104
 3273WAT     H110061   7.310   0.677   3.035
 3273WAT     H210062   7.298   0.733   3.187
 3274WAT      O10063   5.937   4.683   8.323
 3274WAT     H110064   5.972   4.762   8.373
 3274WAT     H210065   5.868   4.713   8.258
 3275WAT      O10066   9.313   1.824   4.332
 3275WAT     H110067   9.382   1.870   4.388
 3275WAT     H210068   9.293   1.879   4.251
 3276WAT      O10069   1.506   6.723   6.322
 3276WAT     H110070   1.423   6.690   6.366
 3276WAT     H210071   1.577   6.653   6.326
 3277WAT      O10072   3.609   2.573   9.379
 3277WAT     H110073   3.683   2.612   9.434
 3277WAT     H210074   3.631   2.585   9.282
 3278WAT      O10075   4.313   5.080   1.310
 3278WAT     H110076   4.392   5.019   1.317
 3278WAT     H210077   4.330   5.162   1.364
 3279WAT      O10078   8.010   2.517   0.925
 3279WAT     H110079   8.024   2.436   0.869
 3279WAT     H210080   8.077   2.587   0.901
 3280WAT      O10081   7.765   0.530   8.307
 3280WAT     H110082   7.726   0.622   8.304
 3280WAT     H210083   7.844   0.525   8.246
 3281WAT      O10084   2.159   9.024   3.801
 3281WAT     H110085   2.241   9.074   3.774
 3281WAT     H210086   2.180   8.969   3.882
 3282WAT      O10087   1.704   3.561   7.782
 3282WAT     H110088   1.769   3.575   7.707
 3282WAT     H210089   1.745   3.500   7.850
 3283WAT      O10090   9.688   0.484   0.059
 3283WAT     H110091   9.726   0.392   0.044
 3283WAT     H210092   9.760   0.544   0.095
 3284WAT      O10093   3.019   0.590   8.526
 3284WAT     H110094   3.066   0.606   8.614
 3284WAT     H210095   2.932   0.544   8.543
 3285WAT      O10096   5.977   7.537   6.227
 3285WAT     H110097   6.074   7.523   6.207
 3285WAT     H210098   5.922   7.505   6.151
 3286WAT      O10099   7.398   6.301   9.567
 3286WAT     H110100   7.353   6.212   9.558
 3286WAT     H210101   7.341   6.361   9.624
 3287WAT      O10102   2.823   5.284   3.811
 3287WAT     H110103   2.895   5.219   3.837
 3287WAT     H210104   2.769   5.308   3.891
 3288WAT      O10105   7.473   9.471   5.417
 3288WAT     H110106   7.484   9.494   5.320
 3288WAT     H210107   7.381   9.435   5.432
 3289WAT      O10108   4.336   5.552   9.772
 3289WAT     H110109   4.274   5.476   9.755
 3289WAT     H210110   4.429   5.517   9.783
 3290WAT      O10111   3.516   9.635   6.313
 3290WAT     H110112   3.432   9.685   6.290
 3290WAT     H210113   3.582   9.697   6.355
 3291WAT      O10114   1.561   4.840   7.004
 3291WAT     H110115   1.522   4.931   6.995
 3291WAT     H210116   1.517   4.792   7.080
 3292WAT      O10117   5.832   0.857   9.160
 3292WAT     H110118   5.783   0.785   9.111
 3292WAT     H210119   5.901   0.815   9.220
 3293WAT      O10120   0.253   0.370   5.927
 3293WAT     H110121   0.299   0.448   5.886
 3293WAT     H210122   0.154   0.382   5.921
 3294WAT      O10123   6.178   0.879   6.030
 3294WAT     H110124   6.270   0.848   6.006
 3294WAT     H210125   6.177   0.915   6.123
 3295WAT      O10126   2.075   8.707   6.502
 3295WAT     H110127   2.096   8.654   6.420
 3295WAT     H210128   1.979   8.736   6.500
 3296WAT      O10129   6.028   5.782   6.737
 3296WAT     H110130   5.997   5.689   6.717
 3296WAT     H210131   5.989   5.846   6.671
 3297WAT      O10132   0.704   9.347   8.181
 3297WAT     H110133   0.620   9.296   8.197
 3297WAT     H210134   0.682   9.444   8.165
 3298WAT      O10135   7.185   2.931   9.705
 3298WAT     H110136   7.106   2.877   9.676
 3298WAT     H210137   7.170   2.963   9.799
 3299WAT      O10138   9.808   5.519   6.129
 3299WAT     H110139   9.854   5.550   6.212
 3299WAT     H210140   9.718   5.483   6.153
 3300WAT      O10141   7.262   8.630   7.900
 3300WAT     H110142   7.181   8.664   7.852
 3300WAT     H210143   7.236   8.555   7.961
 3301WAT      O10144   0.174   4.980   0.011
 3301WAT     H110145   0.274   4.973   0.003
 3301WAT     H210146   0.140   4.902   0.064
 3302WAT      O10147   3.654   3.260   8.615
 3302WAT     H110148   3.715   3.276   8.693
 3302WAT     H210149   3.618   3.347   8.583
 3303WAT      O10150   5.281   2.753   1.917
 3303WAT     H110151   5.236   2.713   1.837
 3303WAT     H210152   5.313   2.679   1.977
 3304WAT      O10153   6.513   1.267   8.616
 3304WAT     H110154   6.428   1.277   8.668
 3304WAT     H210155   6.512   1.180   8.567
 3305WAT      O10156   9.006   7.321   5.013
 3305WAT     H110157   8.992   7.270   4.928
 3305WAT     H210158   8.972   7.414   5.003
 3306WAT      O10159   0.168   1.212   4.100
 3306WAT     H110160   0.200   1.299   4.138
 3306WAT     H210161   0.245   1.150   4.089
 3307WAT      O10162   2.103   3.349   5.892
 3307WAT     H110163   2.195   3.311   5.897
 3307WAT     H210164   2.036   3.275   5.899
 3308WAT      O10165   7.483   4.267   3.799
 3308WAT     H110166   7.428   4.183   3.798
 3308WAT     H210167   7.489   4.301   3.893
 3309WAT      O10168   0.492   1.117   4.405
 3309WAT     H110169   0.539   1.058   4.339
 3309WAT     H210170   0.418   1.066   4.449
 3310WAT      O10171   1.862   5.167   2.745
 3310WAT     H110172   1.776   5.127   2.711
 3310WAT     H210173   1.843   5.220   2.827
 3311WAT      O10174   3.912   3.995   7.740
 3311WAT     H110175   3.931   3.939   7.820
 3311WAT     H210176   3.869   3.939   7.669
 3312WAT      O10177   0.908   5.781   8.564
 3312WAT     H110178   0.856   5.707   8.606
 3312WAT     H210179   0.878   5.793   8.469
 3313WAT      O10180   3.768   1.492   3.723
 3313WAT     H110181   3.736   1.527   3.635
 3313WAT     H210182   3.705   1.422   3.756
 3314WAT      O10183   1.359   7.745   1.275
 3314WAT     H110184   1.362   7.843   1.255
 3314WAT     H210185   1.444   7.717   1.318
 3315WAT      O10186   5.424   3.039   6.188
 3315WAT     H110187   5.453   3.109   6.253
 3315WAT     H210188   5.459   2.950   6.218
 3316WAT      O10189   1.165   6.677   6.804
 3316WAT     H110190   1.156   6.739   6.882
 3316WAT     H210191   1.116   6.715   6.725
 3317WAT      O10192   2.873   0.259   1.348
 3317WAT     H110193   2.836   0.171   1.317
 3317WAT     H210194   2.839   0.332   1.289
 3318WAT      O10195   1.153   5.534   8.427
 3318WAT     H110196   1.212   5.503   8.501
 3318WAT     H210197   1.191   5.617   8.386
 3319WAT      O10198   8.214   9.498   1.967
 3319WAT     H110199   8.228   9.403   1.941
 3319WAT     H210200   8.179   9.502   2.061
 3320WAT      O10201   6.733   1.317   1.415
 3320WAT     H110202   6.638   1.326   1.445
 3320WAT     H210203   6.757   1.220   1.412
 3321WAT      O10204   3.581   1.853   4.171
 3321WAT     H110205   3.488   1.881   4.147
 3321WAT     H210206   3.600   1.763   4.132
 3322WAT      O10207   5.615   2.584   8.253
 3322WAT     H110208   5.664   2.509   8.297
 3322WAT     H210209   5.519   2.558   8.240
 3323WAT      O10210   1.408   3.371   2.704
 3323WAT     H110211   1.387   3.353   2.800
 3323WAT     H210212   1.446   3.463   2.696
 3324WAT      O10213   2.075   6.605   2.269
 3324WAT     H110214   2.085   6.619   2.368
 3324WAT     H210215   2.040   6.513   2.252
 3325WAT      O10216   0.954   5.966   3.720
 3325WAT     H110217   0.905   6.052   3.716
 3325WAT     H210218   0.890   5.890   3.728
 3326WAT      O10219   5.722   8.928   8.386
 3326WAT     H110220   5.672   9.005   8.347
 3326WAT     H210221   5.694   8.843   8.342
 3327WAT      O10222   7.063   8.377   1.194
 3327WAT     H110223   7.146   8.417   1.232
 3327WAT     H210224   7.025   8.439   1.125
 3328WAT      O10225   9.710   5.788   8.267
 3328WAT     H110226   9.710   5.747   8.358
 3328WAT     H210227   9.634   5.851   8.258
 3329WAT      O10228   8.738   7.101   2.949
 3329WAT     H110229   8.672   7.167   2.912
 3329WAT     H210230   8.736   7.106   3.049
 3330WAT      O10231   8.895   0.400   2.717
 3330WAT     H110232   8.916   0.488   2.758
 3330WAT     H210233   8.979   0.347   2.707
 3331WAT      O10234   2.480   4.415   4.265
 3331WAT     H110235   2.403   4.468   4.231
 3331WAT     H210236   2.499   4.438   4.360
 3332WAT      O10237   0.390   4.798   2.501
 3332WAT     H110238   0.360   4.889   2.531
 3332WAT     H210239   0.326   4.729   2.534
 3333WAT      O10240   5.134   9.485   4.366
 3333WAT     H110241   5.057   9.547   4.382
 3333WAT     H210242   5.101   9.391   4.362
 3334WAT      O10243   9.888   3.609   8.673
 3334WAT     H110244   9.864   3.615   8.576
 3334WAT     H210245   9.839   3.533   8.715
 3335WAT      O10246   0.435   6.631   8.424
 3335WAT     H110247   0.369   6.559   8.403
 3335WAT     H210248   0.528   6.595   8.413
 3336WAT      O10249   3.048   8.773   3.249
 3336WAT     H110250   3.105   8.694   3.228
 3336WAT     H210251   3.096   8.833   3.312
 3337WAT      O10252   1.075   6.663   4.799
 3337WAT     H110253   1.123   6.737   4.752
 3337WAT     H210254   1.142   6.605   4.846
 3338WAT      O10255   7.858   5.594   7.266
 3338WAT     H110256   7.832   5.573   7.360
 3338WAT     H210257   7.842   5.692   7.248
 3339WAT      O10258   3.270   9.352   8.654
 3339WAT     H110259   3.346   9.323   8.596
 3339WAT     H210260   3.261   9.289   8.731
 3340WAT      O10261   8.480   2.805   1.792
 3340WAT     H110262   8.564   2.831   1.839
 3340WAT     H210263   8.435   2.887   1.757
 3341WAT      O10264   0.621   1.687   5.017
 3341WAT     H110265   0.623   1.590   5.043
 3341WAT     H210266   0.708   1.730   5.040
 3342WAT      O10267   0.004   5.871   5.960
 3342WAT     H110268   0.093   5.861   6.006
 3342WAT     H210269   0.017   5.922   5.875
 3343WAT      O10270   2.386   5.821   1.761
 3343WAT     H110271   2.377   5.921   1.760
 3343WAT     H210272   2.295   5.780   1.750
 3344WAT      O10273   8.765   1.440   7.605
 3344WAT     H110274   8.759   1.503   7.528
 3344WAT     H210275   8.684   1.451   7.663
 3345WAT      O10276   6.149   2.625   6.674
 3345WAT     H110277   6.143   2.535   6.630
 3345WAT     H210278   6.224   2.625   6.739
 3346WAT      O10279   1.015   1.606   3.106
 3346WAT     H110280   1.019   1.704   3.084
 3346WAT     H210281   0.922   1.580   3.128
 3347WAT      O10282   0.619   6.070   6.703
 3347WAT     H110283   0.707   6.118   6.714
 3347WAT     H210284   0.597   6.023   6.788
 3348WAT      O10285   7.044   9.830   0.889
 3348WAT     H110286   6.981   9.867   0.956
 3348WAT     H210287   7.120   9.784   0.935
 3349WAT      O10288   8.774   8.921   4.010
 3349WAT     H110289   8.827   8.993   4.054
 3349WAT     H210290   8.749   8.851   4.077
 3350WAT      O10291   4.815   2.739   5.752
 3350WAT     H110292   4.874   2.669   5.712
 3350WAT     H210293   4.815   2.820   5.693
 3351WAT      O10294   5.203   1.515   5.530
 3351WAT     H110295   5.292   1.504   5.485
 3351WAT     H210296   5.194   1.609   5.562
 3352WAT      O10297   0.588   3.770   2.560
 3352WAT     H110298   0.650   3.727   2.627
 3352WAT     H210299   0.562   3.861   2.594
 3353WAT      O10300   1.359   2.696   4.467
 3353WAT     H110301   1.418   2.652   4.399
 3353WAT     H210302   1.277   2.640   4.481
 3354WAT      O10303   2.055   8.571   7.014
 3354WAT     H110304   2.059   8.634   7.092
 3354WAT     H210305   2.088   8.617   6.932
 3355WAT      O10306   3.546   5.103   1.802
 3355WAT     H110307   3.596   5.033   1.853
 3355WAT     H210308   3.610   5.174   1.772
 3356WAT      O10309   5.009   3.912   6.654
 3356WAT     H110310   4.948   3.862   6.716
 3356WAT     H210311   5.033   4.000   6.694
 3357WAT      O10312   7.467   4.602   0.943
 3357WAT     H110313   7.397   4.546   0.986
 3357WAT     H210314   7.466   4.693   0.984
 3358WAT      O10315   2.419   5.480   9.583
 3358WAT     H110316   2.488   5.537   9.536
 3358WAT     H210317   2.328   5.514   9.561
 3359WAT      O10318   5.510   0.476   3.480
 3359WAT     H110319   5.566   0.495   3.400
 3359WAT     H210320   5.451   0.397   3.462
 3360WAT      O10321   4.091   7.453   7.854
 3360WAT     H110322   4.082   7.532   7.793
 3360WAT     H210323   3.999   7.421   7.880
 3361WAT      O10324   5.969   6.618   8.427
 3361WAT     H110325   5.942   6.539   8.483
 3361WAT     H210326   5.933   6.607   8.334
 3362WAT      O10327   9.450   4.865   2.231
 3362WAT     H110328   9.390   4.815   2.168
 3362WAT     H210329   9.394   4.915   2.297
 3363WAT      O10330   4.530   7.556   8.356
 3363WAT     H110331   4.489   7.644   8.329
 3363WAT     H210332   4.459   7.499   8.399
 3364WAT      O10333   0.171   1.803   6.863
 3364WAT     H110334   0.101   1.733   6.869
 3364WAT     H210335   0.228   1.800   6.945
 3365WAT      O10336   6.454   8.100   5.731
 3365WAT     H110337   6.364   8.144   5.731
 3365WAT     H210338   6.523   8.164   5.765
 3366WAT      O10339   2.556   5.828   7.957
 3366WAT     H110340   2.634   5.783   7.913
 3366WAT     H210341   2.570   5.927   7.957
 3367WAT      O10342   7.595   7.112   6.554
 3367WAT     H110343   7.599   7.176   6.478
 3367WAT     H210344   7.658   7.142   6.626
 3368WAT      O10345   0.829   4.759   0.065
 3368WAT     H110346   0.751   4.704   0.094
 3368WAT     H210347   0.912   4.724   0.106
 3369WAT      O10348   6.574   4.760   6.852
 3369WAT     H110349   6.654   4.799   6.898
 3369WAT     H210350   6.536   4.827   6.789
 3370WAT      O10351   0.893   3.219   4.161
 3370WAT     H110352   0.854   3.311   4.171
 3370WAT     H210353   0.883   3.169   4.247
 3371WAT      O10354   6.986   5.927   0.480
 3371WAT     H110355   6.978   5.935   0.580
 3371WAT     H210356   7.005   5.832   0.455
 3372WAT      O10357   3.355   8.011   5.942
 3372WAT     H110358   3.352   8.111   5.936
 3372WAT     H210359   3.261   7.975   5.941
 3373WAT      O10360   3.644   8.154   2.264
 3373WAT     H110361   3.599   8.242   2.256
 3373WAT     H210362   3.700   8.152   2.346
 3374WAT      O10363   1.580   2.045   6.345
 3374WAT     H110364   1.489   2.079   6.368
 3374WAT     H210365   1.604   1.970   6.407
 3375WAT      O10366   4.421   1.769   9.453
 3375WAT     H110367   4.396   1.861   9.424
 3375WAT     H210368   4.371   1.746   9.537
 3376WAT      O10369   7.810   0.144   7.727
 3376WAT     H110370   7.728   0.133   7.783
 3376WAT     H210371   7.791   0.116   7.633
 3377WAT      O10372  -0.001   5.692   3.436
 3377WAT     H110373  -0.033   5.707   3.530
 3377WAT     H210374   0.093   5.726   3.428
 3378WAT      O10375   1.681   6.339   8.848
 3378WAT     H110376   1.710   6.413   8.908
 3378WAT     H210377   1.679   6.253   8.899
 3379WAT      O10378   1.197   8.623   5.789
 3379WAT     H110379   1.151   8.695   5.839
 3379WAT     H210380   1.201   8.647   5.692
 3380WAT      O10381   5.335   1.692   4.215
 3380WAT     H110382   5.279   1.762   4.259
 3380WAT     H210383   5.303   1.601   4.243
 3381WAT      O10384   3.361   7.640   2.824
 3381WAT     H110385   3.333   7.616   2.917
 3381WAT     H210386   3.454   7.678   2.826
 3382WAT      O10387   1.978   4.899   7.648
 3382WAT     H110388   2.001   4.943   7.562
 3382WAT     H210389   1.992   4.800   7.640
 3383WAT      O10390   8.941   3.128   2.388
 3383WAT     H110391   9.013   3.058   2.396
 3383WAT     H210392   8.983   3.218   2.379
 3384WAT      O10393   9.381   1.715   8.829
 3384WAT     H110394   9.406   1.660   8.750
 3384WAT     H210395   9.460   1.767   8.860
 3385WAT      O10396   8.147   1.799   2.894
 3385WAT     H110397   8.075   1.757   2.840
 3385WAT     H210398   8.114   1.886   2.932
 3386WAT      O10399   8.454   3.641   2.001
 3386WAT     H110400   8.549   3.613   1.988
 3386WAT     H210401   8.451   3.719   2.065
 3387WAT      O10402   5.062   8.076   8.686
 3387WAT     H110403   5.058   8.058   8.784
 3387WAT     H210404   4.971   8.065   8.645
 3388WAT      O10405   4.297   5.466   9.090
 3388WAT     H110406   4.349   5.501   9.012
 3388WAT     H210407   4.341   5.496   9.175
 3389WAT      O10408   7.384   9.376   1.343
 3389WAT     H110409   7.452   9.327   1.289
 3389WAT     H210410   7.321   9.425   1.282
 3390WAT      O10411   2.539   7.211   2.689
 3390WAT     H110412   2.601   7.134   2.677
 3390WAT     H210413   2.487   7.226   2.605
 3391WAT      O10414   3.400   7.735   7.425
 3391WAT     H110415   3.307   7.771   7.434
 3391WAT     H210416   3.465   7.811   7.431
 3392WAT      O10417   1.822   2.833   5.423
 3392WAT     H110418   1.901   2.867   5.474
 3392WAT     H210419   1.759   2.909   5.405
 3393WAT      O10420   9.645   4.055   2.546
 3393WAT     H110421   9.617   4.126   2.482
 3393WAT     H210422   9.586   3.975   2.534
 3394WAT      O10423   6.508   0.138   3.681
 3394WAT     H110424   6.519   0.039   3.683
 3394WAT     H210425   6.565   0.177   3.608
 3395WAT      O10426   6.537   8.555   6.038
 3395WAT     H110427   6.496   8.549   6.129
 3395WAT     H210428   6.523   8.647   6.001
 3396WAT      O10429   3.799   1.692   9.617
 3396WAT     H110430   3.830   1.784   9.643
 3396WAT     H210431   3.836   1.625   9.683
 3397WAT      O10432   4.896   7.153   9.298
 3397WAT     H110433   4.989   7.125   9.274
 3397WAT     H210434   4.889   7.166   9.397
 3398WAT      O10435   1.746   0.820   4.781
 3398WAT     H110436   1.710   0.753   4.717
 3398WAT     H210437   1.763   0.907   4.733
 3399WAT      O10438   3.763   6.368   3.419
 3399WAT     H110439   3.778   6.269   3.413
 3399WAT     H210440   3.821   6.406   3.491
 3400WAT      O10441   0.921   7.821   6.170
 3400WAT     H110442   0.928   7.723   6.154
 3400WAT     H210443   0.928   7.841   6.267
 3401WAT      O10444   9.555   3.533   0.594
 3401WAT     H110445   9.499   3.458   0.630
 3401WAT     H210446   9.540   3.615   0.650
 3402WAT      O10447   2.190   6.224   2.151
 3402WAT     H110448   2.253   6.223   2.073
 3402WAT     H210449   2.204   6.142   2.206
 3403WAT      O10450   1.881   8.205   5.638
 3403WAT     H110451   1.970   8.187   5.681
 3403WAT     H210452   1.871   8.146   5.558
 3404WAT      O10453   4.114   6.089   2.056
 3404WAT     H110454   4.183   6.095   2.128
 3404WAT     H210455   4.068   6.178   2.047
 3405WAT      O10456   8.446   7.012   4.055
 3405WAT     H110457   8.430   6.931   4.000
 3405WAT     H210458   8.496   6.987   4.138
 3406WAT      O10459   7.023   4.237   0.550
 3406WAT     H110460   7.102   4.290   0.581
 3406WAT     H210461   7.003   4.165   0.616
 3407WAT      O10462   4.975   1.754   5.975
 3407WAT     H110463   4.930   1.822   6.033
 3407WAT     H210464   5.060   1.791   5.939
 3408WAT      O10465   2.112   6.874   3.914
 3408WAT     H110466   2.143   6.883   4.009
 3408WAT     H210467   2.060   6.790   3.904
 3409WAT      O10468   5.258   6.284   2.174
 3409WAT     H110469   5.292   6.366   2.127
 3409WAT     H210470   5.289   6.285   2.269
 3410WAT      O10471   3.429   0.012   0.668
 3410WAT     H110472   3.493   0.006   0.745
 3410WAT     H210473   3.348  -0.042   0.688
 3411WAT      O10474   3.379   7.860   0.037
 3411WAT     H110475   3.415   7.953   0.031
 3411WAT     H210476   3.339   7.834  -0.051
 3412WAT      O10477   9.455   8.175   8.230
 3412WAT     H110478   9.474   8.078   8.244
 3412WAT     H210479   9.441   8.193   8.132
 3413WAT      O10480   0.397   0.977   1.422
 3413WAT     H110481   0.494   0.977   1.447
 3413WAT     H210482   0.354   1.060   1.459
 3414WAT      O10483   6.688   7.499   7.712
 3414WAT     H110484   6.738   7.466   7.632
 3414WAT     H210485   6.661   7.421   7.768
 3415WAT      O10486   0.201   5.769   6.191
 3415WAT     H110487   0.204   5.670   6.199
 3415WAT     H210488   0.137   5.806   6.258
 3416WAT      O10489   3.735   1.982   1.046
 3416WAT     H110490   3.642   1.965   1.011
 3416WAT     H210491   3.733   1.982   1.146
 3417WAT      O10492   0.121   0.472   9.791
 3417WAT     H110493   0.056   0.418   9.738
 3417WAT     H210494   0.183   0.521   9.729
 3418WAT      O10495   6.735   2.027   7.758
 3418WAT     H110496   6.750   2.126   7.749
 3418WAT     H210497   6.675   1.996   7.684
 3419WAT      O10498   3.585   9.225   2.747
 3419WAT     H110499   3.494   9.199   2.779
 3419WAT     H210500   3.600   9.189   2.655
 3420WAT      O10501   3.835   1.981   4.096
 3420WAT     H110502   3.900   1.906   4.089
 3420WAT     H210503   3.751   1.949   4.141
 3421WAT      O10504   1.814   5.896   7.584
 3421WAT     H110505   1.806   5.887   7.683
 3421WAT     H210506   1.901   5.856   7.555
 3422WAT      O10507   7.087   1.799   2.778
 3422WAT     H110508   7.173   1.794   2.828
 3422WAT     H210509   7.011   1.796   2.842
 3423WAT      O10510   5.910   3.686   8.469
 3423WAT     H110511   5.980   3.618   8.447
 3423WAT     H210512   5.921   3.715   8.564
 3424WAT      O10513   2.300   6.499   4.105
 3424WAT     H110514   2.283   6.551   4.189
 3424WAT     H210515   2.394   6.464   4.106
 3425WAT      O10516   5.199   3.173   0.779
 3425WAT     H110517   5.221   3.080   0.747
 3425WAT     H210518   5.280   3.230   0.772
 3426WAT      O10519   5.593   2.088   8.978
 3426WAT     H110520   5.520   2.024   9.001
 3426WAT     H210521   5.636   2.121   9.062
 3427WAT      O10522   1.668   3.455   2.870
 3427WAT     H110523   1.710   3.388   2.932
 3427WAT     H210524   1.581   3.486   2.908
 3428WAT      O10525   4.214   8.772   1.669
 3428WAT     H110526   4.164   8.696   1.629
 3428WAT     H210527   4.226   8.844   1.600
 3429WAT      O10528   6.987   4.759   2.518
 3429WAT     H110529   7.081   4.723   2.523
 3429WAT     H210530   6.984   4.849   2.560
 3430WAT      O10531   1.174   8.088   7.510
 3430WAT     H110532   1.116   8.141   7.572
 3430WAT     H210533   1.256   8.142   7.488
 3431WAT      O10534   6.512   2.984   8.353
 3431WAT     H110535   6.473   2.944   8.436
 3431WAT     H210536   6.459   2.955   8.274
 3432WAT      O10537   8.925   7.622   8.402
 3432WAT     H110538   8.955   7.543   8.456
 3432WAT     H210539   8.966   7.619   8.311
 3433WAT      O10540   2.296   0.208   7.887
 3433WAT     H110541   2.383   0.193   7.934
 3433WAT     H210542   2.291   0.303   7.857
 3434WAT      O10543   7.774   2.869   5.922
 3434WAT     H110544   7.709   2.833   5.988
 3434WAT     H210545   7.788   2.803   5.849
 3435WAT      O10546   3.637   8.865   5.327
 3435WAT     H110547   3.636   8.861   5.427
 3435WAT     H210548   3.545   8.889   5.295
 3436WAT      O10549   7.514   2.998   2.369
 3436WAT     H110550   7.578   2.936   2.414
 3436WAT     H210551   7.555   3.034   2.285
 3437WAT      O10552   2.810   0.863   0.433
 3437WAT     H110553   2.841   0.910   0.350
 3437WAT     H210554   2.739   0.797   0.410
 3438WAT      O10555   0.367   8.722   1.005
 3438WAT     H110556   0.275   8.709   1.042
 3438WAT     H210557   0.428   8.756   1.077
 3439WAT      O10558   0.222   0.156   9.821
 3439WAT     H110559   0.198   0.246   9.858
 3439WAT     H210560   0.315   0.159   9.784
 3440WAT      O10561   7.684   7.512   4.480
 3440WAT     H110562   7.586   7.529   4.469
 3440WAT     H210563   7.725   7.585   4.533
 3441WAT      O10564   9.179   6.320   7.787
 3441WAT     H110565   9.119   6.256   7.738
 3441WAT     H210566   9.258   6.342   7.730
 3442WAT      O10567   0.276   0.570   7.271
 3442WAT     H110568   0.290   0.473   7.251
 3442WAT     H210569   0.212   0.579   7.347
 3443WAT      O10570   1.819   8.600   7.181
 3443WAT     H110571   1.736   8.647   7.153
 3443WAT     H210572   1.873   8.576   7.100
 3444WAT      O10573   3.275   5.955   4.206
 3444WAT     H110574   3.231   5.865   4.210
 3444WAT     H210575   3.278   5.995   4.297
 3445WAT      O10576   7.580   1.730   9.826
 3445WAT     H110577   7.579   1.630   9.818
 3445WAT     H210578   7.632   1.756   9.908
 3446WAT      O10579   2.563   3.684   1.413
 3446WAT     H110580   2.640   3.747   1.404
 3446WAT     H210581   2.481   3.725   1.372
 3447WAT      O10582   0.498   2.906   1.786
 3447WAT     H110583   0.528   2.855   1.866
 3447WAT     H210584   0.432   2.976   1.814
 3448WAT      O10585   3.258   6.556   7.337
 3448WAT     H110586   3.300   6.595   7.255
 3448WAT     H210587   3.326   6.554   7.411
 3449WAT      O10588   6.792   4.115   7.984
 3449WAT     H110589   6.748   4.201   8.009
 3449WAT     H210590   6.802   4.058   8.066
 3450WAT      O10591   2.896   5.648   6.033
 3450WAT     H110592   2.886   5.554   6.065
 3450WAT     H210593   2.970   5.653   5.966
 3451WAT      O10594   0.100   0.528   2.800
 3451WAT     H110595   0.185   0.523   2.748
 3451WAT     H210596   0.116   0.494   2.893
 3452WAT      O10597   3.982   3.131   7.688
 3452WAT     H110598   3.981   3.038   7.650
 3452WAT     H210599   3.944   3.194   7.620
 3453WAT      O10600   5.882   8.670   1.649
 3453WAT     H110601   5.831   8.675   1.735
 3453WAT     H210602   5.977   8.697   1.665
 3454WAT      O10603   9.311   3.829   3.793
 3454WAT     H110604   9.359   3.745   3.767
 3454WAT     H210605   9.317   3.896   3.719
 3455WAT      O10606   5.719   7.808   0.044
 3455WAT     H110607   5.743   7.747  -0.031
 3455WAT     H210608   5.802   7.839   0.091
 3456WAT      O10609   7.798   0.430   8.568
 3456WAT     H110610   7.704   0.411   8.597
 3456WAT     H210611   7.797   0.462   8.473
 3457WAT      O10612   2.709   0.457   7.956
 3457WAT     H110613   2.798   0.454   8.001
 3457WAT     H210614   2.665   0.545   7.976
 3458WAT      O10615   8.421   7.947   7.332
 3458WAT     H110616   8.348   7.901   7.281
 3458WAT     H210617   8.438   8.037   7.292
 3459WAT      O10618   1.123   2.163   1.807
 3459WAT     H110619   1.173   2.139   1.725
 3459WAT     H210620   1.132   2.090   1.875
 3460WAT      O10621   4.054   7.579   9.823
 3460WAT     H110622   4.027   7.592   9.728
 3460WAT     H210623   4.011   7.650   9.880
 3461WAT      O10624   2.152   6.241   6.288
 3461WAT     H110625   2.147   6.193   6.200
 3461WAT     H210626   2.246   6.273   6.303
 3462WAT      O10627   3.115   0.740   6.276
 3462WAT     H110628   3.024   0.706   6.254
 3462WAT     H210629   3.134   0.823   6.223
 3463WAT      O10630   5.906   8.119   6.368
 3463WAT     H110631   5.828   8.057   6.368
 3463WAT     H210632   5.904   8.177   6.287
 3464WAT      O10633   1.288   2.564   5.886
 3464WAT     H110634   1.213   2.499   5.898
 3464WAT     H210635   1.299   2.619   5.969
 3465WAT      O10636   5.900   6.670   6.846
 3465WAT     H110637   5.915   6.667   6.747
 3465WAT     H210638   5.854   6.587   6.876
 3466WAT      O10639   8.247   0.292   2.164
 3466WAT     H110640   8.265   0.253   2.255
 3466WAT     H210641   8.195   0.227   2.109
 3467WAT      O10642   2.418   3.665   9.579
 3467WAT     H110643   2.513   3.656   9.609
 3467WAT     H210644   2.394   3.585   9.525
 3468WAT      O10645   7.544   5.540   9.387
 3468WAT     H110646   7.447   5.537   9.413
 3468WAT     H210647   7.573   5.450   9.355
 3469WAT      O10648   2.485   0.536   8.559
 3469WAT     H110649   2.544   0.616   8.571
 3469WAT     H210650   2.516   0.483   8.480
 3470WAT      O10651   5.119   7.282   6.534
 3470WAT     H110652   5.160   7.344   6.467
 3470WAT     H210653   5.150   7.188   6.515
 3471WAT      O10654   9.302   0.820   9.009
 3471WAT     H110655   9.241   0.897   9.025
 3471WAT     H210656   9.266   0.739   9.055
 3472WAT      O10657   9.569   7.605   9.370
 3472WAT     H110658   9.566   7.664   9.290
 3472WAT     H210659   9.527   7.517   9.348
 3473WAT      O10660   8.119   2.068   5.434
 3473WAT     H110661   8.184   1.999   5.464
 3473WAT     H210662   8.037   2.024   5.398
 3474WAT      O10663   5.944   2.142   5.487
 3474WAT     H110664   5.912   2.082   5.413
 3474WAT     H210665   6.023   2.194   5.456
 3475WAT      O10666   2.634   4.036   5.885
 3475WAT     H110667   2.582   4.084   5.815
 3475WAT     H210668   2.614   3.939   5.882
 3476WAT      O10669   6.799   6.164   2.981
 3476WAT     H110670   6.846   6.135   3.064
 3476WAT     H210671   6.799   6.090   2.914
 3477WAT      O10672   1.375   4.993   0.361
 3477WAT     H110673   1.470   4.966   0.371
 3477WAT     H210674   1.368   5.065   0.292
 3478WAT      O10675   6.206   6.372   5.600
 3478WAT     H110676   6.119   6.413   5.627
 3478WAT     H210677   6.275   6.389   5.671
 3479WAT      O10678   5.515   2.899   5.387
 3479WAT     H110679   5.558   2.879   5.475
 3479WAT     H210680   5.454   2.978   5.397
 3480WAT      O10681   7.082   4.536   8.501
 3480WAT     H110682   7.088   4.560   8.404
 3480WAT     H210683   7.167   4.493   8.531
 3481WAT      O10684   8.987   7.956   4.231
 3481WAT     H110685   9.053   8.019   4.190
 3481WAT     H210686   8.913   7.938   4.166
 3482WAT      O10687   0.103   0.745   5.264
 3482WAT     H110688   0.203   0.744   5.257
 3482WAT     H210689   0.063   0.757   5.174
 3483WAT      O10690   1.099   0.605   8.293
 3483WAT     H110691   1.100   0.591   8.392
 3483WAT     H210692   1.005   0.615   8.261
 3484WAT      O10693   6.286   0.310   2.944
 3484WAT     H110694   6.230   0.350   2.872
 3484WAT     H210695   6.236   0.235   2.987
 3485WAT      O10696   6.692   1.729   3.817
 3485WAT     H110697   6.635   1.747   3.736
 3485WAT     H210698   6.731   1.638   3.810
 3486WAT      O10699   2.539   0.512   4.127
 3486WAT     H110700   2.575   0.488   4.037
 3486WAT     H210701   2.484   0.595   4.119
 3487WAT      O10702   5.778   6.141   3.751
 3487WAT     H110703   5.762   6.237   3.772
 3487WAT     H210704   5.865   6.112   3.792
 3488WAT      O10705   7.265   8.565   1.054
 3488WAT     H110706   7.206   8.529   0.982
 3488WAT     H210707   7.212   8.628   1.112
 3489WAT      O10708   4.524   0.272   4.086
 3489WAT     H110709   4.617   0.304   4.107
 3489WAT     H210710   4.500   0.196   4.146
 3490WAT      O10711   8.712   8.089   7.639
 3490WAT     H110712   8.628   8.059   7.593
 3490WAT     H210713   8.736   8.181   7.609
 3491WAT      O10714   4.554   2.653   2.885
 3491WAT     H110715   4.553   2.580   2.817
 3491WAT     H210716   4.518   2.737   2.844
 3492WAT      O10717   5.227   4.423   4.868
 3492WAT     H110718   5.281   4.371   4.933
 3492WAT     H210719   5.276   4.429   4.781
 3493WAT      O10720   8.186   0.335   4.990
 3493WAT     H110721   8.250   0.379   4.927
 3493WAT     H210722   8.118   0.401   5.020
 3494WAT      O10723   0.545   4.199   9.271
 3494WAT     H110724   0.640   4.228   9.267
 3494WAT     H210725   0.491   4.269   9.318
 3495WAT      O10726   0.373   6.478   0.687
 3495WAT     H110727   0.288   6.505   0.643
 3495WAT     H210728   0.380   6.379   0.690
 3496WAT      O10729   3.292   8.572   9.548
 3496WAT     H110730   3.197   8.542   9.562
 3496WAT     H210731   3.304   8.599   9.452
 3497WAT      O10732   8.790   2.734   5.806
 3497WAT     H110733   8.749   2.765   5.720
 3497WAT     H210734   8.868   2.674   5.786
 3498WAT      O10735   0.257   7.407   1.403
 3498WAT     H110736   0.248   7.472   1.327
 3498WAT     H210737   0.338   7.429   1.457
 3499WAT      O10738   6.740   4.921   2.848
 3499WAT     H110739   6.814   4.974   2.890
 3499WAT     H210740   6.735   4.832   2.892
 3500WAT      O10741   1.445   0.887   3.540
 3500WAT     H110742   1.529   0.833   3.541
 3500WAT     H210743   1.430   0.924   3.448
 3501WAT      O10744   6.840   0.554   5.431
 3501WAT     H110745   6.813   0.536   5.336
 3501WAT     H210746   6.774   0.512   5.493
 3502WAT      O10747   5.722   7.921   0.835
 3502WAT     H110748   5.687   7.867   0.758
 3502WAT     H210749   5.719   7.865   0.918
 3503WAT      O10750   2.694   5.632   4.259
 3503WAT     H110751   2.700   5.596   4.166
 3503WAT     H210752   2.601   5.665   4.276
 3504WAT      O10753   2.317   6.188   6.929
 3504WAT     H110754   2.295   6.092   6.946
 3504WAT     H210755   2.260   6.246   6.987
 3505WAT      O10756   8.974   6.332   1.230
 3505WAT     H110757   8.964   6.370   1.138
 3505WAT     H210758   8.907   6.374   1.291
 3506WAT      O10759   1.352   9.598   5.562
 3506WAT     H110760   1.424   9.666   5.577
 3506WAT     H210761   1.378   9.511   5.605
 3507WAT      O10762   5.600   8.198   5.827
 3507WAT     H110763   5.618   8.212   5.729
 3507WAT     H210764   5.676   8.235   5.880
 3508WAT      O10765   0.927   5.064   3.617
 3508WAT     H110766   0.919   4.989   3.551
 3508WAT     H210767   1.021   5.097   3.619
 3509WAT      O10768   2.762   6.026   0.814
 3509WAT     H110769   2.828   6.090   0.855
 3509WAT     H210770   2.797   5.932   0.824
 3510WAT      O10771   5.691   1.025   7.850
 3510WAT     H110772   5.720   1.059   7.939
 3510WAT     H210773   5.715   0.928   7.842
 3511WAT      O10774   2.358   1.191   8.084
 3511WAT     H110775   2.418   1.272   8.087
 3511WAT     H210776   2.288   1.199   8.154
 3512WAT      O10777   0.572   4.625   7.193
 3512WAT     H110778   0.670   4.611   7.186
 3512WAT     H210779   0.531   4.551   7.246
 3513WAT      O10780   3.469   7.068   6.365
 3513WAT     H110781   3.391   7.130   6.351
 3513WAT     H210782   3.440   6.992   6.423
 3514WAT      O10783   5.381   9.362   3.168
 3514WAT     H110784   5.335   9.274   3.157
 3514WAT     H210785   5.324   9.435   3.133
 3515WAT      O10786   9.011   8.470   7.235
 3515WAT     H110787   8.914   8.478   7.257
 3515WAT     H210788   9.022   8.424   7.147
 3516WAT      O10789   1.113   5.915   4.777
 3516WAT     H110790   1.018   5.937   4.799
 3516WAT     H210791   1.156   5.871   4.856
 3517WAT      O10792   3.404   1.921   3.844
 3517WAT     H110793   3.395   1.823   3.826
 3517WAT     H210794   3.325   1.969   3.805
 3518WAT      O10795   3.813   6.003   6.633
 3518WAT     H110796   3.836   5.940   6.708
 3518WAT     H210797   3.836   5.961   6.546
 3519WAT      O10798   1.982   9.322   3.180
 3519WAT     H110799   1.962   9.293   3.086
 3519WAT     H210800   2.023   9.413   3.178
 3520WAT      O10801   5.267   3.111   5.587
 3520WAT     H110802   5.347   3.120   5.646
 3520WAT     H210803   5.198   3.056   5.633
 3521WAT      O10804   5.018   8.090   8.968
 3521WAT     H110805   4.943   8.080   9.034
 3521WAT     H210806   5.099   8.044   9.003
 3522WAT      O10807   8.169   9.791   1.435
 3522WAT     H110808   8.210   9.708   1.474
 3522WAT     H210809   8.106   9.831   1.502
 3523WAT      O10810   9.889   1.627   7.029
 3523WAT     H110811   9.797   1.611   6.995
 3523WAT     H210812   9.886   1.645   7.127
 3524WAT      O10813   4.012   1.447   7.031
 3524WAT     H110814   4.035   1.385   6.955
 3524WAT     H210815   4.072   1.527   7.029
 3525WAT      O10816   5.037   6.383   6.136
 3525WAT     H110817   5.031   6.399   6.037
 3525WAT     H210818   4.953   6.412   6.180
 3526WAT      O10819   5.091   3.390   6.529
 3526WAT     H110820   5.050   3.448   6.600
 3526WAT     H210821   5.053   3.414   6.440
 3527WAT      O10822   8.891   1.065   6.129
 3527WAT     H110823   8.966   1.115   6.086
 3527WAT     H210824   8.921   1.032   6.219
 3528WAT      O10825   7.783   7.080   9.080
 3528WAT     H110826   7.738   7.006   9.031
 3528WAT     H210827   7.807   7.153   9.015
 3529WAT      O10828   2.866   4.175   5.963
 3529WAT     H110829   2.789   4.121   5.931
 3529WAT     H210830   2.888   4.245   5.895
 3530WAT      O10831   9.832   8.554   2.057
 3530WAT     H110832   9.847   8.457   2.041
 3530WAT     H210833   9.816   8.570   2.154
 3531WAT      O10834   2.978   8.528   6.063
 3531WAT     H110835   2.956   8.625   6.059
 3531WAT     H210836   3.034   8.509   6.144
 3532WAT      O10837   0.957   4.443   5.936
 3532WAT     H110838   0.985   4.531   5.973
 3532WAT     H210839   0.946   4.451   5.837
 3533WAT      O10840   7.014   1.385   6.559
 3533WAT     H110841   6.928   1.427   6.532
 3533WAT     H210842   7.030   1.401   6.657
 3534WAT      O10843   5.428   3.297   1.069
 3534WAT     H110844   5.428   3.330   0.975
 3534WAT     H210845   5.456   3.371   1.130
 3535WAT      O10846   4.411   7.719   1.722
 3535WAT     H110847   4.424   7.813   1.690
 3535WAT     H210848   4.329   7.714   1.779
 3536WAT      O10849   7.286   6.924   7.415
 3536WAT     H110850   7.385   6.933   7.404
 3536WAT     H210851   7.266   6.858   7.487
 3537WAT      O10852   7.274   6.930   2.391
 3537WAT     H110853   7.304   7.025   2.388
 3537WAT     H210854   7.207   6.914   2.319
 3538WAT      O10855   3.292   6.617   2.995
 3538WAT     H110856   3.207   6.604   3.046
 3538WAT     H210857   3.286   6.703   2.944
 3539WAT      O10858   3.524   3.222   7.847
 3539WAT     H110859   3.481   3.175   7.924
 3539WAT     H210860   3.612   3.260   7.875
 3540WAT      O10861   7.705   9.516   9.130
 3540WAT     H110862   7.771   9.578   9.171
 3540WAT     H210863   7.716   9.425   9.169
 3541WAT      O10864   5.190   5.574   2.590
 3541WAT     H110865   5.233   5.506   2.650
 3541WAT     H210866   5.186   5.537   2.497
 3542WAT      O10867   4.026   2.519   3.100
 3542WAT     H110868   4.057   2.441   3.155
 3542WAT     H210869   4.079   2.524   3.016
 3543WAT      O10870   6.602   6.283   4.630
 3543WAT     H110871   6.685   6.340   4.633
 3543WAT     H210872   6.558   6.293   4.541
 3544WAT      O10873   6.188   1.398   6.507
 3544WAT     H110874   6.265   1.402   6.569
 3544WAT     H210875   6.161   1.491   6.481
 3545WAT      O10876   3.060   7.970   9.760
 3545WAT     H110877   3.009   7.985   9.675
 3545WAT     H210878   3.103   8.056   9.789
 3546WAT      O10879   3.598   0.033   6.772
 3546WAT     H110880   3.572   0.128   6.761
 3546WAT     H210881   3.698   0.027   6.784
 3547WAT      O10882   3.478   4.683   1.658
 3547WAT     H110883   3.565   4.720   1.626
 3547WAT     H210884   3.487   4.584   1.671
 3548WAT      O10885   0.868   7.796   4.362
 3548WAT     H110886   0.964   7.797   4.333
 3548WAT     H210887   0.853   7.721   4.426
 3549WAT      O10888   8.273   6.982   3.244
 3549WAT     H110889   8.337   7.020   3.177
 3549WAT     H210890   8.179   7.007   3.219
 3550WAT      O10891   4.125   1.289   5.506
 3550WAT     H110892   4.181   1.337   5.438
 3550WAT     H210893   4.112   1.195   5.477
 3551WAT      O10894   5.894   6.431   3.142
 3551WAT     H110895   5.918   6.528   3.144
 3551WAT     H210896   5.892   6.395   3.235
 3552WAT      O10897   9.080   8.748   1.397
 3552WAT     H110898   9.112   8.798   1.478
 3552WAT     H210899   8.984   8.721   1.411
 3553WAT      O10900   8.724   7.188   9.255
 3553WAT     H110901   8.684   7.136   9.180
 3553WAT     H210902   8.674   7.274   9.266
 3554WAT      O10903   0.524   4.443   2.308
 3554WAT     H110904   0.568   4.359   2.278
 3554WAT     H210905   0.575   4.522   2.274
 3555WAT      O10906   4.565   6.867   7.010
 3555WAT     H110907   4.477   6.822   7.029
 3555WAT     H210908   4.548   6.962   6.982
 3556WAT      O10909   0.641   9.587   6.967
 3556WAT     H110910   0.564   9.636   6.925
 3556WAT     H210911   0.605   9.513   7.025
 3557WAT      O10912   3.620   8.569   5.350
 3557WAT     H110913   3.537   8.613   5.386
 3557WAT     H210914   3.673   8.635   5.297
 3558WAT      O10915   5.343   4.886   4.381
 3558WAT     H110916   5.384   4.965   4.427
 3558WAT     H210917   5.300   4.917   4.296
 3559WAT      O10918   6.172   0.341   9.199
 3559WAT     H110919   6.253   0.291   9.228
 3559WAT     H210920   6.198   0.434   9.173
 3560WAT      O10921   7.008   3.515   7.934
 3560WAT     H110922   7.090   3.541   7.985
 3560WAT     H210923   6.958   3.597   7.907
 3561WAT      O10924   1.880   6.970   8.082
 3561WAT     H110925   1.784   6.997   8.084
 3561WAT     H210926   1.912   6.965   7.988
 3562WAT      O10927   7.469   7.146   3.368
 3562WAT     H110928   7.450   7.211   3.442
 3562WAT     H210929   7.519   7.068   3.405
 3563WAT      O10930   3.431   3.079   8.082
 3563WAT     H110931   3.339   3.116   8.071
 3563WAT     H210932   3.462   3.094   8.176
 3564WAT      O10933   9.760   4.593   2.808
 3564WAT     H110934   9.805   4.661   2.750
 3564WAT     H210935   9.669   4.626   2.833
 3565WAT      O10936   3.989   4.008   1.186
 3565WAT     H110937   4.077   3.979   1.224
 3565WAT     H210938   3.940   3.929   1.149
 3566WAT      O10939   1.845   7.360   1.344
 3566WAT     H110940   1.867   7.352   1.441
 3566WAT     H210941   1.777   7.291   1.320
 3567WAT      O10942   1.975   0.323   5.857
 3567WAT     H110943   1.984   0.224   5.862
 3567WAT     H210944   2.017   0.357   5.773
 3568WAT      O10945   8.635   9.818   2.658
 3568WAT     H110946   8.582   9.787   2.737
 3568WAT     H210947   8.725   9.851   2.688
 3569WAT      O10948   7.164   5.991   7.587
 3569WAT     H110949   7.069   5.987   7.616
 3569WAT     H210950   7.170   5.978   7.488
 3570WAT      O10951   1.687   1.611   6.344
 3570WAT     H110952   1.689   1.626   6.246
 3570WAT     H210953   1.780   1.595   6.378
 3571WAT      O10954   9.229   0.059   3.466
 3571WAT     H110955   9.329   0.061   3.471
 3571WAT     H210956   9.196   0.137   3.413
 3572WAT      O10957   0.710   1.335   7.029
 3572WAT     H110958   0.690   1.418   7.081
 3572WAT     H210959   0.808   1.318   7.030
 3573WAT      O10960   6.182   4.275   8.730
 3573WAT     H110961   6.156   4.306   8.639
 3573WAT     H210962   6.101   4.238   8.776
 3574WAT      O10963   1.415   9.696   2.093
 3574WAT     H110964   1.377   9.610   2.126
 3574WAT     H210965   1.414   9.696   1.993
 3575WAT      O10966   6.798   4.725   8.851
 3575WAT     H110967   6.736   4.798   8.821
 3575WAT     H210968   6.893   4.755   8.838
 3576WAT      O10969   0.144   9.276   3.042
 3576WAT     H110970   0.211   9.315   3.105
 3576WAT     H210971   0.111   9.347   2.980
 3577WAT      O10972   8.504   3.754   0.779
 3577WAT     H110973   8.492   3.785   0.685
 3577WAT     H210974   8.484   3.830   0.842
 3578WAT      O10975   8.643   5.920   3.043
 3578WAT     H110976   8.552   5.922   3.001
 3578WAT     H210977   8.713   5.922   2.972
 3579WAT      O10978   8.634   9.122   3.322
 3579WAT     H110979   8.561   9.095   3.385
 3579WAT     H210980   8.688   9.041   3.297
 3580WAT      O10981   6.212   3.174   3.116
 3580WAT     H110982   6.275   3.166   3.194
 3580WAT     H210983   6.179   3.268   3.110
 3581WAT      O10984   6.213   8.342   7.838
 3581WAT     H110985   6.246   8.346   7.743
 3581WAT     H210986   6.118   8.312   7.839
 3582WAT      O10987   6.338   1.804   0.798
 3582WAT     H110988   6.374   1.849   0.716
 3582WAT     H210989   6.401   1.732   0.827
 3583WAT      O10990   3.449   8.837   0.207
 3583WAT     H110991   3.459   8.789   0.120
 3583WAT     H210992   3.403   8.777   0.273
 3584WAT      O10993   0.487   7.452   6.224
 3584WAT     H110994   0.474   7.551   6.212
 3584WAT     H210995   0.451   7.404   6.144
 3585WAT      O10996   6.709   4.394   5.389
 3585WAT     H110997   6.783   4.344   5.433
 3585WAT     H210998   6.623   4.379   5.438
 3586WAT      O10999   3.981   2.099   3.900
 3586WAT     H111000   3.998   2.015   3.849
 3586WAT     H211001   3.924   2.078   3.980
 3587WAT      O11002   7.704   7.918   1.833
 3587WAT     H111003   7.625   7.978   1.843
 3587WAT     H211004   7.770   7.961   1.770
 3588WAT      O11005   4.949   5.404   5.895
 3588WAT     H111006   5.004   5.324   5.920
 3588WAT     H211007   4.919   5.450   5.978
 3589WAT      O11008   6.459   6.890   7.556
 3589WAT     H111009   6.388   6.940   7.505
 3589WAT     H211010   6.431   6.795   7.565
 3590WAT      O11011   8.599   9.120   3.625
 3590WAT     H111012   8.546   9.094   3.705
 3590WAT     H211013   8.672   9.183   3.653
 3591WAT      O11014   4.952   9.439   5.990
 3591WAT     H111015   4.900   9.524   5.997
 3591WAT     H211016   4.922   9.377   6.063
 3592WAT      O11017   6.041   9.603   0.036
 3592WAT     H111018   5.942   9.587   0.040
 3592WAT     H211019   6.066   9.673   0.103
 3593WAT      O11020   8.027   4.382   8.824
 3593WAT     H111021   8.040   4.457   8.888
 3593WAT     H211022   7.980   4.307   8.869
 3594WAT      O11023   9.172   4.225   1.678
 3594WAT     H111024   9.082   4.194   1.651
 3594WAT     H211025   9.177   4.325   1.668
 3595WAT      O11026   0.177   2.758   6.124
 3595WAT     H111027   0.136   2.772   6.214
 3595WAT     H211028   0.192   2.846   6.080
 3596WAT      O11029   9.851   0.682   0.143
 3596WAT     H111030   9.908   0.660   0.223
 3596WAT     H211031   9.813   0.774   0.155
 3597WAT      O11032   2.208   1.678   3.100
 3597WAT     H111033   2.200   1.745   3.174
 3597WAT     H211034   2.118   1.661   3.060
 3598WAT      O11035   8.963   1.663   3.252
 3598WAT     H111036   8.871   1.668   3.214
 3598WAT     H211037   9.020   1.734   3.212
 3599WAT      O11038   1.386   3.590   0.201
 3599WAT     H111039   1.471   3.610   0.250
 3599WAT     H211040   1.377   3.492   0.188
 3600WAT      O11041   5.227   6.560   4.765
 3600WAT     H111042   5.289   6.500   4.713
 3600WAT     H211043   5.281   6.616   4.828
 3601WAT      O11044   3.206   5.574   1.169
 3601WAT     H111045   3.300   5.576   1.202
 3601WAT     H211046   3.150   5.518   1.231
 3602WAT      O11047   7.700   4.788   7.646
 3602WAT     H111048   7.728   4.878   7.681
 3602WAT     H211049   7.781   4.733   7.627
 3603WAT      O11050   3.567   9.380   8.975
 3603WAT     H111051   3.664   9.382   9.000
 3603WAT     H211052   3.521   9.306   9.023
 3604WAT      O11053   6.012   3.145   7.145
 3604WAT     H111054   6.014   3.045   7.137
 3604WAT     H211055   6.064   3.186   7.069
 3605WAT      O11056   1.617   6.867   7.370
 3605WAT     H111057   1.669   6.826   7.294
 3605WAT     H211058   1.654   6.833   7.457
 3606WAT      O11059   3.482   7.843   6.329
 3606WAT     H111060   3.508   7.823   6.234
 3606WAT     H211061   3.386   7.869   6.333
 3607WAT      O11062   0.075   6.273   7.638
 3607WAT     H111063   0.072   6.372   7.654
 3607WAT     H211064  -0.017   6.240   7.617
 3608WAT      O11065   6.864   1.328   4.362
 3608WAT     H111066   6.929   1.313   4.288
 3608WAT     H211067   6.852   1.426   4.377
 3609WAT      O11068   0.308   5.918   2.401
 3609WAT     H111069   0.407   5.934   2.410
 3609WAT     H211070   0.275   5.961   2.317
 3610WAT      O11071   2.808   7.835   0.295
 3610WAT     H111072   2.883   7.867   0.237
 3610WAT     H211073   2.794   7.737   0.281
 3611WAT      O11074   9.400   9.614   5.738
 3611WAT     H111075   9.441   9.615   5.647
 3611WAT     H211076   9.414   9.703   5.782
 3612WAT      O11077   8.134   4.359   1.864
 3612WAT     H111078   8.093   4.270   1.880
 3612WAT     H211079   8.066   4.431   1.882
 3613WAT      O11080   3.093   0.284   6.809
 3613WAT     H111081   2.998   0.312   6.819
 3613WAT     H211082   3.140   0.290   6.897
 3614WAT      O11083   5.874   4.658   2.995
 3614WAT     H111084   5.939   4.582   2.987
 3614WAT     H211085   5.919   4.743   2.966
 3615WAT      O11086   7.859   9.587   6.607
 3615WAT     H111087   7.891   9.505   6.559
 3615WAT     H211088   7.883   9.580   6.704
 3616WAT      O11089   9.745   1.896   9.752
 3616WAT     H111090   9.773   1.979   9.705
 3616WAT     H211091   9.682   1.920   9.826
 3617WAT      O11092   6.665   4.622   4.322
 3617WAT     H111093   6.725   4.641   4.400
 3617WAT     H211094   6.647   4.707   4.273
 3618WAT      O11095   1.287   3.916   6.692
 3618WAT     H111096   1.208   3.955   6.739
 3618WAT     H211097   1.264   3.900   6.595
 3619WAT      O11098   7.546   0.603   2.258
 3619WAT     H111099   7.537   0.689   2.309
 3619WAT     H211100   7.483   0.603   2.181
 3620WAT      O11101   0.592   5.366   7.996
 3620WAT     H111102   0.573   5.295   8.064
 3620WAT     H211103   0.620   5.450   8.043
 3621WAT      O11104   0.512   5.919   6.974
 3621WAT     H111105   0.427   5.867   6.965
 3621WAT     H211106   0.492   6.007   7.017
 3622WAT      O11107   1.329   5.962   9.416
 3622WAT     H111108   1.415   5.980   9.465
 3622WAT     H211109   1.341   5.883   9.357
 3623WAT      O11110   9.001   0.588   0.712
 3623WAT     H111111   9.065   0.619   0.641
 3623WAT     H211112   8.940   0.664   0.737
 3624WAT      O11113   9.699   7.911   0.968
 3624WAT     H111114   9.756   7.944   0.893
 3624WAT     H211115   9.603   7.926   0.946
 3625WAT      O11116   6.463   2.403   4.795
 3625WAT     H111117   6.528   2.470   4.830
 3625WAT     H211118   6.370   2.434   4.812
 3626WAT      O11119   7.103   4.172   8.931
 3626WAT     H111120   7.094   4.080   8.969
 3626WAT     H211121   7.054   4.176   8.843
 3627WAT      O11122   5.444   6.427   4.652
 3627WAT     H111123   5.469   6.331   4.641
 3627WAT     H211124   5.527   6.484   4.649
 3628WAT      O11125   5.699   0.946   8.266
 3628WAT     H111126   5.643   0.882   8.213
 3628WAT     H211127   5.735   0.899   8.347
 3629WAT      O11128   6.122   1.486   3.584
 3629WAT     H111129   6.046   1.541   3.620
 3629WAT     H211130   6.115   1.482   3.484
 3630WAT      O11131   4.304   1.550   4.050
 3630WAT     H111132   4.329   1.553   3.953
 3630WAT     H211133   4.354   1.476   4.095
 3631WAT      O11134   8.139   9.197   9.359
 3631WAT     H111135   8.194   9.239   9.431
 3631WAT     H211136   8.130   9.261   9.282
 3632WAT      O11137   8.007   9.062   3.056
 3632WAT     H111138   7.926   9.114   3.030
 3632WAT     H211139   8.011   8.978   3.001
 3633WAT      O11140   2.165   9.593   5.769
 3633WAT     H111141   2.159   9.524   5.696
 3633WAT     H211142   2.135   9.553   5.855
 3634WAT      O11143   3.575   3.231   0.616
 3634WAT     H111144   3.481   3.243   0.584
 3634WAT     H211145   3.600   3.308   0.675
 3635WAT      O11146   9.104   3.230   4.473
 3635WAT     H111147   9.118   3.135   4.501
 3635WAT     H211148   9.026   3.268   4.522
 3636WAT      O11149   8.459   1.328   3.861
 3636WAT     H111150   8.553   1.321   3.828
 3636WAT     H211151   8.459   1.328   3.961
 3637WAT      O11152   5.540   6.955   1.598
 3637WAT     H111153   5.502   7.011   1.525
 3637WAT     H211154   5.625   6.996   1.631
 3638WAT      O11155   0.733   4.554   6.561
 3638WAT     H111156   0.734   4.647   6.598
 3638WAT     H211157   0.767   4.555   6.467
 3639WAT      O11158   0.760   6.400   1.923
 3639WAT     H111159   0.764   6.435   1.829
 3639WAT     H211160   0.844   6.425   1.971
 3640WAT      O11161   7.705   5.844   2.999
 3640WAT     H111162   7.640   5.869   3.070
 3640WAT     H211163   7.798   5.848   3.035
 3641WAT      O11164   9.053   8.388   4.100
 3641WAT     H111165   8.984   8.348   4.161
 3641WAT     H211166   9.133   8.415   4.153
 3642WAT      O11167   4.615   3.942   6.587
 3642WAT     H111168   4.663   4.026   6.564
 3642WAT     H211169   4.523   3.945   6.549
 3643WAT      O11170   0.347   1.161   1.656
 3643WAT     H111171   0.370   1.211   1.740
 3643WAT     H211172   0.277   1.092   1.676
 3644WAT      O11173   2.514   8.649   6.516
 3644WAT     H111174   2.483   8.735   6.556
 3644WAT     H211175   2.563   8.668   6.431
 3645WAT      O11176   8.874   8.002   3.148
 3645WAT     H111177   8.897   7.917   3.100
 3645WAT     H211178   8.951   8.066   3.142
 3646WAT      O11179   4.289   9.799   3.236
 3646WAT     H111180   4.366   9.806   3.299
 3646WAT     H211181   4.305   9.859   3.158
 3647WAT      O11182   5.867   8.644   6.098
 3647WAT     H111183   5.801   8.688   6.159
 3647WAT     H211184   5.823   8.622   6.011
 3648WAT      O11185   5.725   2.070   3.501
 3648WAT     H111186   5.733   1.975   3.470
 3648WAT     H211187   5.628   2.095   3.505
 3649WAT      O11188   6.144   2.877   0.280
 3649WAT     H111189   6.172   2.874   0.185
 3649WAT     H211190   6.104   2.789   0.306
 3650WAT      O11191   9.191   7.868   8.883
 3650WAT     H111192   9.127   7.849   8.808
 3650WAT     H211193   9.282   7.887   8.845
 3651WAT      O11194   8.716   3.065   2.272
 3651WAT     H111195   8.704   2.974   2.312
 3651WAT     H211196   8.802   3.105   2.306
 3652WAT      O11197   2.303   9.198   1.485
 3652WAT     H111198   2.331   9.127   1.420
 3652WAT     H211199   2.298   9.286   1.439
 3653WAT      O11200   0.898   0.790   4.478
 3653WAT     H111201   0.910   0.701   4.434
 3653WAT     H211202   0.979   0.813   4.531
 3654WAT      O11203   9.499   7.847   6.189
 3654WAT     H111204   9.413   7.884   6.222
 3654WAT     H211205   9.537   7.784   6.257
 3655WAT      O11206   6.379   6.670   3.589
 3655WAT     H111207   6.318   6.633   3.518
 3655WAT     H211208   6.365   6.768   3.598
 3656WAT      O11209   8.446   0.455   5.390
 3656WAT     H111210   8.441   0.372   5.334
 3656WAT     H211211   8.535   0.459   5.435
 3657WAT      O11212   0.590   3.087   3.299
 3657WAT     H111213   0.577   3.043   3.387
 3657WAT     H211214   0.591   3.186   3.310
 3658WAT      O11215   1.740   0.716   3.856
 3658WAT     H111216   1.784   0.657   3.923
 3658WAT     H211217   1.641   0.708   3.866
 3659WAT      O11218   2.012   7.901   9.264
 3659WAT     H111219   1.976   7.993   9.251
 3659WAT     H211220   2.070   7.876   9.186
 3660WAT      O11221   7.304   2.017   1.526
 3660WAT     H111222   7.286   1.983   1.434
 3660WAT     H211223   7.316   2.117   1.523
 3661WAT      O11224   1.440   1.673   3.040
 3661WAT     H111225   1.510   1.626   3.095
 3661WAT     H211226   1.455   1.772   3.046
 3662WAT      O11227   4.539   6.726   3.727
 3662WAT     H111228   4.611   6.665   3.759
 3662WAT     H211229   4.575   6.785   3.654
 3663WAT      O11230   4.517   9.832   6.855
 3663WAT     H111231   4.522   9.853   6.757
 3663WAT     H211232   4.550   9.739   6.871
 3664WAT      O11233   5.958   6.986   1.812
 3664WAT     H111234   5.945   6.890   1.788
 3664WAT     H211235   6.055   7.003   1.830
 3665WAT      O11236   6.108   0.649   5.102
 3665WAT     H111237   6.157   0.574   5.145
 3665WAT     H211238   6.159   0.734   5.115
 3666WAT      O11239   1.095   4.624   1.255
 3666WAT     H111240   1.045   4.678   1.188
 3666WAT     H211241   1.171   4.577   1.211
 3667WAT      O11242   7.349   3.562   6.960
 3667WAT     H111243   7.409   3.484   6.944
 3667WAT     H211244   7.321   3.601   6.873
 3668WAT      O11245   7.384   8.858   7.939
 3668WAT     H111246   7.393   8.924   7.865
 3668WAT     H211247   7.384   8.765   7.901
 3669WAT      O11248   7.622   3.935   9.236
 3669WAT     H111249   7.556   3.992   9.188
 3669WAT     H211250   7.714   3.971   9.220
 3670WAT      O11251   7.857   2.871   7.053
 3670WAT     H111252   7.881   2.800   6.986
 3670WAT     H211253   7.926   2.873   7.126
 3671WAT      O11254   5.797   7.416   8.692
 3671WAT     H111255   5.859   7.357   8.642
 3671WAT     H211256   5.777   7.498   8.638
 3672WAT      O11257   9.269   9.600   8.900
 3672WAT     H111258   9.357   9.616   8.855
 3672WAT     H211259   9.284   9.573   8.995
 3673WAT      O11260   7.682   7.040   4.341
 3673WAT     H111261   7.666   7.007   4.248
 3673WAT     H211262   7.674   6.964   4.405
 3674WAT      O11263   2.303   2.312   4.945
 3674WAT     H111264   2.340   2.345   5.032
 3674WAT     H211265   2.369   2.327   4.873
 3675WAT      O11266   5.211   3.093   9.618
 3675WAT     H111267   5.302   3.125   9.592
 3675WAT     H211268   5.160   3.065   9.537
 3676WAT      O11269   2.046   7.253   4.961
 3676WAT     H111270   1.959   7.284   4.999
 3676WAT     H211271   2.035   7.161   4.922
 3677WAT      O11272   6.033   6.078   3.793
 3677WAT     H111273   6.060   6.123   3.708
 3677WAT     H211274   6.087   5.995   3.805
 3678WAT      O11275   9.153   8.310   8.313
 3678WAT     H111276   9.083   8.339   8.379
 3678WAT     H211277   9.126   8.223   8.271
 3679WAT      O11278   7.722   0.814   3.024
 3679WAT     H111279   7.782   0.864   2.961
 3679WAT     H211280   7.652   0.876   3.059
 3680WAT      O11281   2.950   4.544   9.872
 3680WAT     H111282   2.909   4.477   9.809
 3680WAT     H211283   2.908   4.633   9.859
 3681WAT      O11284   4.687   9.523   9.514
 3681WAT     H111285   4.670   9.430   9.480
 3681WAT     H211286   4.785   9.536   9.529
 3682WAT      O11287   0.604   7.898   2.789
 3682WAT     H111288   0.553   7.984   2.791
 3682WAT     H211289   0.669   7.900   2.713
 3683WAT      O11290   5.418   1.603   8.387
 3683WAT     H111291   5.465   1.594   8.475
 3683WAT     H211292   5.389   1.512   8.355
 3684WAT      O11293   7.465   9.506   3.620
 3684WAT     H111294   7.432   9.549   3.537
 3684WAT     H211295   7.561   9.481   3.609
 3685WAT      O11296   3.309   5.130   6.366
 3685WAT     H111297   3.269   5.140   6.275
 3685WAT     H211298   3.351   5.216   6.393
 3686WAT      O11299   2.230   7.274   8.939
 3686WAT     H111300   2.165   7.219   8.992
 3686WAT     H211301   2.180   7.335   8.877
 3687WAT      O11302   4.315   7.416   9.365
 3687WAT     H111303   4.368   7.500   9.371
 3687WAT     H211304   4.303   7.378   9.457
 3688WAT      O11305   7.097   5.282   4.777
 3688WAT     H111306   7.183   5.332   4.772
 3688WAT     H211307   7.107   5.194   4.730
 3689WAT      O11308   9.407   5.062   0.156
 3689WAT     H111309   9.328   5.120   0.135
 3689WAT     H211310   9.375   4.971   0.182
 3690WAT      O11311   3.975   3.617   9.823
 3690WAT     H111312   3.910   3.623   9.899
 3690WAT     H211313   4.068   3.607   9.860
 3691WAT      O11314   4.772   5.033   4.197
 3691WAT     H111315   4.812   5.122   4.217
 3691WAT     H211316   4.841   4.975   4.154
 3692WAT      O11317   5.299  -0.004   5.472
 3692WAT     H111318   5.199  -0.008   5.482
 3692WAT     H211319   5.329   0.091   5.473
 3693WAT      O11320   7.506   1.846   7.881
 3693WAT     H111321   7.478   1.856   7.977
 3693WAT     H211322   7.429   1.870   7.822
 3694WAT      O11323   7.280   0.982   7.257
 3694WAT     H111324   7.220   0.988   7.337
 3694WAT     H211325   7.360   1.040   7.271
 3695WAT      O11326   4.290   0.346   4.259
 3695WAT     H111327   4.225   0.368   4.331
 3695WAT     H211328   4.374   0.398   4.272
 3696WAT      O11329   5.865   3.624   8.042
 3696WAT     H111330   5.846   3.572   8.125
 3696WAT     H211331   5.963   3.620   8.022
 3697WAT      O11332   1.477   8.744   6.818
 3697WAT     H111333   1.481   8.785   6.727
 3697WAT     H211334   1.381   8.727   6.842
 3698WAT      O11335   4.057   1.832   5.066
 3698WAT     H111336   4.140   1.787   5.032
 3698WAT     H211337   4.003   1.865   4.989
 3699WAT      O11338   5.147   1.118   9.883
 3699WAT     H111339   5.159   1.061   9.801
 3699WAT     H211340   5.217   1.093   9.950
 3700WAT      O11341   1.933   8.511   8.544
 3700WAT     H111342   1.928   8.602   8.503
 3700WAT     H211343   1.846   8.463   8.530
 3701WAT      O11344   8.278   8.298   2.713
 3701WAT     H111345   8.266   8.273   2.617
 3701WAT     H211346   8.371   8.278   2.742
 3702WAT      O11347   7.759   7.094   6.141
 3702WAT     H111348   7.847   7.142   6.136
 3702WAT     H211349   7.745   7.042   6.057
 3703WAT      O11350   8.782   0.736   9.853
 3703WAT     H111351   8.707   0.766   9.913
 3703WAT     H211352   8.746   0.673   9.784
 3704WAT      O11353   1.995   6.064   3.685
 3704WAT     H111354   2.054   6.073   3.605
 3704WAT     H211355   1.900   6.080   3.658
 3705WAT      O11356   8.902   8.395   6.959
 3705WAT     H111357   8.944   8.481   6.931
 3705WAT     H211358   8.819   8.413   7.012
 3706WAT      O11359   1.506   2.562   8.231
 3706WAT     H111360   1.517   2.505   8.150
 3706WAT     H211361   1.546   2.516   8.311
 3707WAT      O11362   3.754   9.256   2.074
 3707WAT     H111363   3.786   9.348   2.097
 3707WAT     H211364   3.803   9.223   1.993
 3708WAT      O11365   8.352   1.303   6.775
 3708WAT     H111366   8.255   1.305   6.799
 3708WAT     H211367   8.402   1.246   6.840
 3709WAT      O11368   8.880   4.409   1.881
 3709WAT     H111369   8.793   4.453   1.862
 3709WAT     H211370   8.929   4.393   1.795
 3710WAT      O11371   1.887   8.545   0.130
 3710WAT     H111372   1.966   8.507   0.178
 3710WAT     H211373   1.867   8.489   0.049
 3711WAT      O11374   3.979   3.582   0.833
 3711WAT     H111375   3.970   3.655   0.765
 3711WAT     H211376   4.059   3.600   0.891
 3712WAT      O11377   3.720   2.568   7.286
 3712WAT     H111378   3.714   2.660   7.248
 3712WAT     H211379   3.787   2.515   7.234
 3713WAT      O11380   9.418   1.221   3.383
 3713WAT     H111381   9.386   1.308   3.420
 3713WAT     H211382   9.453   1.235   3.290
 3714WAT      O11383   9.597   5.411   4.890
 3714WAT     H111384   9.676   5.354   4.866
 3714WAT     H211385   9.513   5.368   4.857
 3715WAT      O11386   1.254   3.413   2.009
 3715WAT     H111387   1.283   3.318   1.995
 3715WAT     H211388   1.271   3.439   2.104
 3716WAT      O11389   5.079   3.107   1.590
 3716WAT     H111390   5.025   3.032   1.629
 3716WAT     H211391   5.174   3.097   1.619
 3717WAT      O11392   2.353   8.793   7.101
 3717WAT     H111393   2.270   8.739   7.116
 3717WAT     H211394   2.329   8.888   7.085
 3718WAT      O11395   2.871   8.793   5.675
 3718WAT     H111396   2.800   8.745   5.726
 3718WAT     H211397   2.844   8.889   5.664
 3719WAT      O11398   8.721   4.653   7.269
 3719WAT     H111399   8.663   4.733   7.285
 3719WAT     H211400   8.665   4.571   7.265
 3720WAT      O11401   4.033   4.856   5.693
 3720WAT     H111402   4.055   4.810   5.607
 3720WAT     H211403   4.112   4.907   5.725
 3721WAT      O11404   6.369   6.680   1.486
 3721WAT     H111405   6.309   6.678   1.566
 3721WAT     H211406   6.361   6.769   1.441
 3722WAT      O11407   7.869   3.740   5.954
 3722WAT     H111408   7.895   3.777   6.043
 3722WAT     H211409   7.817   3.808   5.903
 3723WAT      O11410   6.121   0.961   3.760
 3723WAT     H111411   6.155   0.933   3.850
 3723WAT     H211412   6.096   0.880   3.707
 3724WAT      O11413   4.381   0.719   7.981
 3724WAT     H111414   4.448   0.778   7.938
 3724WAT     H211415   4.297   0.772   8.000
 3725WAT      O11416   7.926   0.713   6.306
 3725WAT     H111417   7.863   0.770   6.252
 3725WAT     H211418   7.921   0.740   6.402
 3726WAT      O11419   7.924   4.035   3.364
 3726WAT     H111420   8.022   4.035   3.387
 3726WAT     H211421   7.871   4.029   3.449
 3727WAT      O11422   1.342   7.268   8.185
 3727WAT     H111423   1.428   7.319   8.192
 3727WAT     H211424   1.358   7.173   8.210
 3728WAT      O11425   1.231   1.668   3.997
 3728WAT     H111426   1.324   1.684   4.030
 3728WAT     H211427   1.166   1.690   4.070
 3729WAT      O11428   2.760   5.575   2.452
 3729WAT     H111429   2.826   5.557   2.525
 3729WAT     H211430   2.671   5.596   2.492
 3730WAT      O11431   5.738   5.167   7.873
 3730WAT     H111432   5.726   5.081   7.822
 3730WAT     H211433   5.816   5.217   7.836
 3731WAT      O11434   8.928   5.814   1.422
 3731WAT     H111435   8.905   5.895   1.367
 3731WAT     H211436   8.868   5.739   1.396
 3732WAT      O11437   7.162   9.792   8.421
 3732WAT     H111438   7.098   9.722   8.388
 3732WAT     H211439   7.215   9.828   8.344
 3733WAT      O11440   8.374   2.800   4.238
 3733WAT     H111441   8.409   2.710   4.211
 3733WAT     H211442   8.381   2.810   4.337
 3734WAT      O11443   8.355   6.577   0.467
 3734WAT     H111444   8.271   6.596   0.417
 3734WAT     H211445   8.417   6.654   0.459
 3735WAT      O11446   4.140   1.856   4.687
 3735WAT     H111447   4.197   1.828   4.765
 3735WAT     H211448   4.115   1.776   4.633
 3736WAT      O11449   9.284   4.401   4.530
 3736WAT     H111450   9.187   4.377   4.528
 3736WAT     H211451   9.302   4.473   4.464
 3737WAT      O11452   8.102   9.601   0.062
 3737WAT     H111453   8.049   9.577   0.143
 3737WAT     H211454   8.041   9.612  -0.016
 3738WAT      O11455   8.629   6.929   8.108
 3738WAT     H111456   8.720   6.918   8.148
 3738WAT     H211457   8.638   6.963   8.014
 3739WAT      O11458   0.029   4.589   0.357
 3739WAT     H111459   0.047   4.684   0.332
 3739WAT     H211460  -0.016   4.543   0.281
 3740WAT      O11461   2.317   9.254   3.524
 3740WAT     H111462   2.379   9.328   3.497
 3740WAT     H211463   2.223   9.278   3.498
 3741WAT      O11464   4.591   5.693   9.441
 3741WAT     H111465   4.565   5.608   9.395
 3741WAT     H211466   4.509   5.748   9.456
 3742WAT      O11467   8.113   0.376   8.499
 3742WAT     H111468   8.180   0.439   8.458
 3742WAT     H211469   8.029   0.426   8.520
 3743WAT      O11470   6.689   2.368   5.976
 3743WAT     H111471   6.750   2.396   6.050
 3743WAT     H211472   6.639   2.286   6.003
 3744WAT      O11473   2.520   3.591   8.446
 3744WAT     H111474   2.597   3.610   8.507
 3744WAT     H211475   2.508   3.667   8.383
 3745WAT      O11476   8.084   8.654   4.508
 3745WAT     H111477   8.112   8.749   4.519
 3745WAT     H211478   8.119   8.620   4.421
 3746WAT      O11479   8.697   2.530   8.614
 3746WAT     H111480   8.715   2.436   8.585
 3746WAT     H211481   8.620   2.566   8.561
 3747WAT      O11482   3.109   4.093   5.968
 3747WAT     H111483   3.020   4.138   5.967
 3747WAT     H211484   3.181   4.163   5.970
 3748WAT      O11485   4.979   5.527   4.306
 3748WAT     H111486   5.058   5.563   4.356
 3748WAT     H211487   4.896   5.574   4.337
 3749WAT      O11488   1.543   8.661   3.870
 3749WAT     H111489   1.472   8.627   3.932
 3749WAT     H211490   1.562   8.593   3.800
 3750WAT      O11491   8.786   1.959   8.975
 3750WAT     H111492   8.882   1.971   9.003
 3750WAT     H211493   8.726   2.001   9.043
 3751WAT      O11494   5.587   4.838   5.335
 3751WAT     H111495   5.623   4.893   5.260
 3751WAT     H211496   5.661   4.820   5.400
 3752WAT      O11497   1.982   0.643   7.506
 3752WAT     H111498   1.911   0.613   7.442
 3752WAT     H211499   1.955   0.619   7.599
 3753WAT      O11500   7.725   6.399   6.640
 3753WAT     H111501   7.757   6.317   6.593
 3753WAT     H211502   7.659   6.447   6.582
 3754WAT      O11503   1.540   0.558   7.458
 3754WAT     H111504   1.551   0.539   7.556
 3754WAT     H211505   1.509   0.475   7.412
 3755WAT      O11506   8.380   7.032   6.440
 3755WAT     H111507   8.362   7.023   6.538
 3755WAT     H211508   8.348   7.122   6.408
 3756WAT      O11509   2.258   7.593   2.709
 3756WAT     H111510   2.227   7.538   2.787
 3756WAT     H211511   2.237   7.689   2.725
 3757WAT      O11512   5.285   1.567   3.428
 3757WAT     H111513   5.224   1.570   3.349
 3757WAT     H211514   5.267   1.646   3.487
 3758WAT      O11515   0.282   2.531   3.995
 3758WAT     H111516   0.192   2.506   3.960
 3758WAT     H211517   0.352   2.506   3.928
 3759WAT      O11518   1.245   6.265   8.860
 3759WAT     H111519   1.167   6.328   8.868
 3759WAT     H211520   1.303   6.274   8.942
 3760WAT      O11521   3.905   5.774   1.066
 3760WAT     H111522   3.813   5.809   1.083
 3760WAT     H211523   3.969   5.851   1.062
 3761WAT      O11524   0.069   5.526   7.916
 3761WAT     H111525   0.095   5.486   7.828
 3761WAT     H211526   0.110   5.617   7.924
 3762WAT      O11527   5.675   6.396   3.390
 3762WAT     H111528   5.656   6.298   3.398
 3762WAT     H211529   5.663   6.424   3.295
 3763WAT      O11530   5.927   6.096   5.763
 3763WAT     H111531   6.027   6.104   5.762
 3763WAT     H211532   5.887   6.186   5.777
 3764WAT      O11533   7.796   8.686   4.437
 3764WAT     H111534   7.839   8.736   4.512
 3764WAT     H211535   7.843   8.599   4.424
 3765WAT      O11536   3.419   0.926   3.120
 3765WAT     H111537   3.510   0.895   3.149
 3765WAT     H211538   3.352   0.902   3.191
 3766WAT      O11539   5.836   5.909   2.040
 3766WAT     H111540   5.781   5.828   2.061
 3766WAT     H211541   5.787   5.965   1.972
 3767WAT      O11542   8.098   8.805   1.990
 3767WAT     H111543   8.044   8.802   1.906
 3767WAT     H211544   8.132   8.713   2.010
 3768WAT      O11545   2.696   3.530   2.478
 3768WAT     H111546   2.600   3.523   2.506
 3768WAT     H211547   2.710   3.615   2.428
 3769WAT      O11548   1.283   5.583   8.706
 3769WAT     H111549   1.360   5.632   8.748
 3769WAT     H211550   1.222   5.649   8.663
 3770WAT      O11551   1.044   4.449   8.601
 3770WAT     H111552   1.019   4.461   8.504
 3770WAT     H211553   1.048   4.351   8.622
 3771WAT      O11554   8.662   4.657   8.887
 3771WAT     H111555   8.604   4.637   8.809
 3771WAT     H211556   8.619   4.727   8.945
 3772WAT      O11557   6.101   6.280   3.603
 3772WAT     H111558   6.043   6.269   3.523
 3772WAT     H211559   6.122   6.377   3.616
 3773WAT      O11560   6.471   6.652   5.953
 3773WAT     H111561   6.470   6.593   6.033
 3773WAT     H211562   6.566   6.674   5.929
 3774WAT      O11563   0.850   1.972   6.752
 3774WAT     H111564   0.864   1.983   6.850
 3774WAT     H211565   0.937   1.951   6.708
 3775WAT      O11566   7.140   7.340   6.532
 3775WAT     H111567   7.206   7.319   6.604
 3775WAT     H211568   7.079   7.413   6.563
 3776WAT      O11569   5.503   4.749   5.107
 3776WAT     H111570   5.420   4.785   5.066
 3776WAT     H211571   5.525   4.800   5.190
 3777WAT      O11572   4.918   9.523   7.375
 3777WAT     H111573   4.907   9.461   7.452
 3777WAT     H211574   4.940   9.615   7.410
 3778WAT      O11575   1.415   0.027   7.870
 3778WAT     H111576   1.414  -0.070   7.894
 3778WAT     H211577   1.399   0.082   7.953
 3779WAT      O11578   9.189   6.698   6.300
 3779WAT     H111579   9.176   6.602   6.272
 3779WAT     H211580   9.132   6.757   6.244
 3780WAT      O11581   9.524   1.156   4.745
 3780WAT     H111582   9.504   1.204   4.830
 3780WAT     H211583   9.592   1.084   4.762
 3781WAT      O11584   9.871   2.811   3.164
 3781WAT     H111585   9.926   2.832   3.245
 3781WAT     H211586   9.774   2.816   3.187
 3782WAT      O11587   8.272   9.412   8.573
 3782WAT     H111588   8.209   9.415   8.650
 3782WAT     H211589   8.284   9.503   8.535
 3783WAT      O11590   6.386   4.420   4.709
 3783WAT     H111591   6.317   4.481   4.670
 3783WAT     H211592   6.445   4.385   4.636
 3784WAT      O11593   8.431   7.250   0.641
 3784WAT     H111594   8.451   7.343   0.611
 3784WAT     H211595   8.352   7.252   0.702
 3785WAT      O11596   3.832   0.236   9.390
 3785WAT     H111597   3.770   0.236   9.311
 3785WAT     H211598   3.798   0.299   9.460
 3786WAT      O11599   2.279   9.840   7.054
 3786WAT     H111600   2.272   9.767   7.122
 3786WAT     H211601   2.300   9.800   6.965
 3787WAT      O11602   0.815   6.798   6.499
 3787WAT     H111603   0.911   6.804   6.525
 3787WAT     H211604   0.785   6.885   6.459
 3788WAT      O11605   9.382   4.214   0.912
 3788WAT     H111606   9.426   4.257   0.991
 3788WAT     H211607   9.353   4.285   0.848
 3789WAT      O11608   1.922   3.401   3.272
 3789WAT     H111609   1.879   3.401   3.362
 3789WAT     H211610   1.955   3.493   3.251
 3790WAT      O11611   5.437   9.622   9.112
 3790WAT     H111612   5.363   9.630   9.179
 3790WAT     H211613   5.426   9.536   9.062
 3791WAT      O11614   8.598   5.624   4.216
 3791WAT     H111615   8.525   5.681   4.177
 3791WAT     H211616   8.588   5.530   4.182
 3792WAT      O11617   6.207   2.445   5.586
 3792WAT     H111618   6.163   2.424   5.499
 3792WAT     H211619   6.282   2.380   5.601
 3793WAT      O11620   2.237   8.740   8.484
 3793WAT     H111621   2.209   8.695   8.568
 3793WAT     H211622   2.219   8.839   8.492
 3794WAT      O11623   2.630   0.643   7.466
 3794WAT     H111624   2.610   0.658   7.369
 3794WAT     H211625   2.728   0.628   7.478
 3795WAT      O11626   8.379   8.688   1.365
 3795WAT     H111627   8.297   8.632   1.350
 3795WAT     H211628   8.359   8.758   1.434
 3796WAT      O11629   9.277   3.832   2.145
 3796WAT     H111630   9.317   3.883   2.069
 3796WAT     H211631   9.321   3.860   2.231
 3797WAT      O11632   2.527   2.997   3.615
 3797WAT     H111633   2.447   2.998   3.555
 3797WAT     H211634   2.518   2.921   3.680
 3798WAT      O11635   6.026   9.284   8.588
 3798WAT     H111636   5.971   9.234   8.656
 3798WAT     H211637   5.970   9.356   8.546
 3799WAT      O11638   0.780   1.733   0.041
 3799WAT     H111639   0.691   1.724  -0.004
 3799WAT     H211640   0.767   1.759   0.136
 3800WAT      O11641   3.137   9.819   6.100
 3800WAT     H111642   3.147   9.721   6.113
 3800WAT     H211643   3.042   9.846   6.119
 3801WAT      O11644   5.059   4.166   6.678
 3801WAT     H111645   5.001   4.195   6.602
 3801WAT     H211646   5.080   4.245   6.735
 3802WAT      O11647   2.371   7.289   3.367
 3802WAT     H111648   2.397   7.374   3.414
 3802WAT     H211649   2.449   7.252   3.318
 3803WAT      O11650   4.243   6.133   2.295
 3803WAT     H111651   4.156   6.167   2.329
 3803WAT     H211652   4.312   6.140   2.367
 3804WAT      O11653   4.173   2.990   9.480
 3804WAT     H111654   4.145   3.012   9.386
 3804WAT     H211655   4.230   3.064   9.516
 3805WAT      O11656   4.886   7.048   9.724
 3805WAT     H111657   4.843   6.963   9.695
 3805WAT     H211658   4.882   7.054   9.824
 3806WAT      O11659   4.899   9.543   0.332
 3806WAT     H111660   4.933   9.509   0.245
 3806WAT     H211661   4.814   9.496   0.356
 3807WAT      O11662   9.134   7.658   5.301
 3807WAT     H111663   9.175   7.575   5.339
 3807WAT     H211664   9.133   7.652   5.201
 3808WAT      O11665   9.154   2.527   7.760
 3808WAT     H111666   9.247   2.516   7.795
 3808WAT     H211667   9.142   2.469   7.679
 3809WAT      O11668   2.604   3.774   1.073
 3809WAT     H111669   2.597   3.677   1.048
 3809WAT     H211670   2.537   3.826   1.021
 3810WAT      O11671   6.276   2.465   7.999
 3810WAT     H111672   6.221   2.492   7.920
 3810WAT     H211673   6.368   2.503   7.990
 3811WAT      O11674   7.411   5.527   3.406
 3811WAT     H111675   7.488   5.547   3.466
 3811WAT     H211676   7.408   5.429   3.386
 3812WAT      O11677   2.807   1.319   1.334
 3812WAT     H111678   2.873   1.317   1.409
 3812WAT     H211679   2.854   1.345   1.249
 3813WAT      O11680   1.796   0.529   3.391
 3813WAT     H111681   1.871   0.482   3.438
 3813WAT     H211682   1.757   0.599   3.451
 3814WAT      O11683   8.037   7.851   5.312
 3814WAT     H111684   8.013   7.948   5.325
 3814WAT     H211685   8.136   7.842   5.302
 3815WAT      O11686   3.611   2.972   7.720
 3815WAT     H111687   3.542   2.957   7.649
 3815WAT     H211688   3.600   3.065   7.757
 3816WAT      O11689   2.242   4.495   3.802
 3816WAT     H111690   2.216   4.549   3.882
 3816WAT     H211691   2.162   4.480   3.744
 3817WAT      O11692   3.041   9.432   7.335
 3817WAT     H111693   3.117   9.496   7.342
 3817WAT     H211694   3.013   9.404   7.427
 3818WAT      O11695   7.103   4.188   2.967
 3818WAT     H111696   7.105   4.286   2.988
 3818WAT     H211697   7.030   4.145   3.019
 3819WAT      O11698   1.955   5.521   1.463
 3819WAT     H111699   1.955   5.612   1.503
 3819WAT     H211700   2.046   5.479   1.474
 3820WAT      O11701   6.330   4.660   1.577
 3820WAT     H111702   6.365   4.619   1.493
 3820WAT     H211703   6.230   4.649   1.581
 3821WAT      O11704   0.880   2.461   2.720
 3821WAT     H111705   0.910   2.470   2.625
 3821WAT     H211706   0.924   2.530   2.776
 3822WAT      O11707   1.608   9.393   7.342
 3822WAT     H111708   1.696   9.388   7.296
 3822WAT     H211709   1.562   9.479   7.318
 3823WAT      O11710   1.832   8.821   1.707
 3823WAT     H111711   1.791   8.745   1.756
 3823WAT     H211712   1.926   8.835   1.739
 3824WAT      O11713   8.439   6.755   3.964
 3824WAT     H111714   8.409   6.746   3.869
 3824WAT     H211715   8.387   6.690   4.021
 3825WAT      O11716   1.974   4.574   0.848
 3825WAT     H111717   1.963   4.665   0.808
 3825WAT     H211718   2.070   4.546   0.840
 3826WAT      O11719   9.685   1.840   5.730
 3826WAT     H111720   9.740   1.769   5.773
 3826WAT     H211721   9.663   1.812   5.636
 3827WAT      O11722   2.492   7.982   1.276
 3827WAT     H111723   2.489   8.047   1.352
 3827WAT     H211724   2.580   7.987   1.231
 3828WAT      O11725   9.330   5.519   9.625
 3828WAT     H111726   9.313   5.509   9.527
 3828WAT     H211727   9.350   5.429   9.665
 3829WAT      O11728   0.697   4.355   0.880
 3829WAT     H111729   0.688   4.436   0.938
 3829WAT     H211730   0.648   4.278   0.923
 3830WAT      O11731   9.186   2.032   0.280
 3830WAT     H111732   9.212   1.988   0.366
 3830WAT     H211733   9.089   2.019   0.264
 3831WAT      O11734   8.175   6.947   9.693
 3831WAT     H111735   8.086   6.992   9.689
 3831WAT     H211736   8.227   6.983   9.770
 3832WAT      O11737   0.152   0.149   5.681
 3832WAT     H111738   0.136   0.241   5.646
 3832WAT     H211739   0.214   0.100   5.619
 3833WAT      O11740   1.724   2.904   3.877
 3833WAT     H111741   1.644   2.900   3.817
 3833WAT     H211742   1.695   2.933   3.969
 3834WAT      O11743   3.857   7.158   3.999
 3834WAT     H111744   3.896   7.237   4.047
 3834WAT     H211745   3.847   7.082   4.063
 3835WAT      O11746   2.890   5.580   1.239
 3835WAT     H111747   2.801   5.623   1.255
 3835WAT     H211748   2.935   5.563   1.326
 3836WAT      O11749   9.376   9.218   9.037
 3836WAT     H111750   9.453   9.203   8.975
 3836WAT     H211751   9.293   9.232   8.983
 3837WAT      O11752   9.891   4.103   2.367
 3837WAT     H111753   9.841   4.186   2.394
 3837WAT     H211754   9.866   4.028   2.429
 3838WAT      O11755   2.780   6.712   1.941
 3838WAT     H111756   2.689   6.685   1.910
 3838WAT     H211757   2.831   6.754   1.865
 3839WAT      O11758   1.993   6.653   8.774
 3839WAT     H111759   2.036   6.620   8.690
 3839WAT     H211760   1.895   6.636   8.770
 3840WAT      O11761   5.633   7.172   5.630
 3840WAT     H111762   5.680   7.210   5.550
 3840WAT     H211763   5.548   7.129   5.601
 3841WAT      O11764   7.716   6.934   5.908
 3841WAT     H111765   7.754   6.881   5.832
 3841WAT     H211766   7.626   6.897   5.931
 3842WAT      O11767   8.906   5.517   7.468
 3842WAT     H111768   8.934   5.598   7.519
 3842WAT     H211769   8.868   5.544   7.380
 3843WAT      O11770   5.936   8.419   1.163
 3843WAT     H111771   5.843   8.453   1.150
 3843WAT     H211772   5.975   8.459   1.246
 3844WAT      O11773   8.906   9.098   3.664
 3844WAT     H111774   8.934   9.158   3.739
 3844WAT     H211775   8.901   9.003   3.697
 3845WAT      O11776   5.345   2.575   6.938
 3845WAT     H111777   5.322   2.559   6.842
 3845WAT     H211778   5.425   2.635   6.943
 3846WAT      O11779   1.365   2.454   7.231
 3846WAT     H111780   1.428   2.530   7.247
 3846WAT     H211781   1.271   2.488   7.234
 3847WAT      O11782   8.302   1.571   0.840
 3847WAT     H111783   8.371   1.590   0.770
 3847WAT     H211784   8.212   1.595   0.805
 3848WAT      O11785   7.585   2.050   6.980
 3848WAT     H111786   7.504   2.110   6.982
 3848WAT     H211787   7.556   1.955   6.990
 3849WAT      O11788   4.345   1.557   0.663
 3849WAT     H111789   4.376   1.518   0.750
 3849WAT     H211790   4.401   1.636   0.639
 3850WAT      O11791   6.929   4.390   9.729
 3850WAT     H111792   7.015   4.438   9.712
 3850WAT     H211793   6.895   4.414   9.820
 3851WAT      O11794   4.271   6.761   2.849
 3851WAT     H111795   4.337   6.687   2.838
 3851WAT     H211796   4.262   6.783   2.946
 3852WAT      O11797   1.954   4.562   9.896
 3852WAT     H111798   2.013   4.482   9.910
 3852WAT     H211799   1.917   4.559   9.803
 3853WAT      O11800   9.873   5.641   0.646
 3853WAT     H111801   9.886   5.689   0.559
 3853WAT     H211802   9.945   5.573   0.658
 3854WAT      O11803   7.544   6.878   9.000
 3854WAT     H111804   7.502   6.920   9.080
 3854WAT     H211805   7.505   6.787   8.985
 3855WAT      O11806   5.728   1.937   8.067
 3855WAT     H111807   5.647   1.885   8.042
 3855WAT     H211808   5.810   1.880   8.051
 3856WAT      O11809   0.901   8.443   3.409
 3856WAT     H111810   0.853   8.358   3.388
 3856WAT     H211811   0.996   8.422   3.431
 3857WAT      O11812   0.243   7.304   5.543
 3857WAT     H111813   0.213   7.223   5.593
 3857WAT     H211814   0.327   7.283   5.493
 3858WAT      O11815   3.529   4.171   0.124
 3858WAT     H111816   3.553   4.150   0.218
 3858WAT     H211817   3.471   4.252   0.121
 3859WAT      O11818   2.501   0.759   2.883
 3859WAT     H111819   2.564   0.752   2.805
 3859WAT     H211820   2.428   0.691   2.874
 3860WAT      O11821   4.135   9.528   4.416
 3860WAT     H111822   4.058   9.483   4.370
 3860WAT     H211823   4.194   9.571   4.347
 3861WAT      O11824   5.128   8.252   3.973
 3861WAT     H111825   5.201   8.189   4.000
 3861WAT     H211826   5.152   8.295   3.885
 3862WAT      O11827   0.662   4.153   1.270
 3862WAT     H111828   0.606   4.176   1.350
 3862WAT     H211829   0.616   4.186   1.187
 3863WAT      O11830   5.990   4.044   3.503
 3863WAT     H111831   5.919   4.075   3.439
 3863WAT     H211832   5.947   3.999   3.581
 3864WAT      O11833   4.031   7.574   6.212
 3864WAT     H111834   3.972   7.494   6.199
 3864WAT     H211835   4.125   7.550   6.189
 3865WAT      O11836   3.836   1.581   9.360
 3865WAT     H111837   3.827   1.622   9.451
 3865WAT     H211838   3.751   1.592   9.310
 3866WAT      O11839   0.193   8.407   4.236
 3866WAT     H111840   0.212   8.503   4.212
 3866WAT     H211841   0.260   8.348   4.191
 3867WAT      O11842   8.502   7.981   1.557
 3867WAT     H111843   8.481   7.904   1.498
 3867WAT     H211844   8.543   8.055   1.503
 3868WAT      O11845   6.710   8.281   3.320
 3868WAT     H111846   6.637   8.284   3.251
 3868WAT     H211847   6.766   8.364   3.313
 3869WAT      O11848   2.967   7.621   6.551
 3869WAT     H111849   2.885   7.673   6.575
 3869WAT     H211850   3.048   7.677   6.567
 3870WAT      O11851   5.453   6.679   4.320
 3870WAT     H111852   5.537   6.630   4.343
 3870WAT     H211853   5.429   6.740   4.396
 3871WAT      O11854   9.073   9.808   0.871
 3871WAT     H111855   8.993   9.799   0.812
 3871WAT     H211856   9.102   9.904   0.873
 3872WAT      O11857   2.775   6.275   6.073
 3872WAT     H111858   2.785   6.312   5.981
 3872WAT     H211859   2.736   6.183   6.068
 3873WAT      O11860   4.376   8.815   6.556
 3873WAT     H111861   4.351   8.850   6.647
 3873WAT     H211862   4.300   8.828   6.493
 3874WAT      O11863   6.145   7.065   2.643
 3874WAT     H111864   6.081   7.088   2.715
 3874WAT     H211865   6.114   6.984   2.594
 3875WAT      O11866   3.590   7.897   8.715
 3875WAT     H111867   3.642   7.933   8.792
 3875WAT     H211868   3.526   7.966   8.682
 3876WAT      O11869   2.043   5.735   6.947
 3876WAT     H111870   1.985   5.692   7.016
 3876WAT     H211871   1.986   5.777   6.877
 3877WAT      O11872   2.374   3.042   9.112
 3877WAT     H111873   2.410   3.125   9.153
 3877WAT     H211874   2.281   3.025   9.146
 3878WAT      O11875   7.548   8.115   8.199
 3878WAT     H111876   7.521   8.203   8.239
 3878WAT     H211877   7.507   8.041   8.252
 3879WAT      O11878   2.509   1.868   9.521
 3879WAT     H111879   2.421   1.909   9.546
 3879WAT     H211880   2.573   1.940   9.494
 3880WAT      O11881   7.753   7.810   1.528
 3880WAT     H111882   7.742   7.835   1.432
 3880WAT     H211883   7.792   7.887   1.578
 3881WAT      O11884   5.491   5.536   6.700
 3881WAT     H111885   5.441   5.588   6.631
 3881WAT     H211886   5.534   5.456   6.658
 3882WAT      O11887   2.333   0.590   5.634
 3882WAT     H111888   2.341   0.600   5.733
 3882WAT     H211889   2.270   0.515   5.613
 3883WAT      O11890   3.088   9.556   7.012
 3883WAT     H111891   3.119   9.616   7.086
 3883WAT     H211892   3.001   9.513   7.038
 3884WAT      O11893   3.668   2.402   4.444
 3884WAT     H111894   3.600   2.333   4.466
 3884WAT     H211895   3.670   2.417   4.345
 3885WAT      O11896   1.109   6.426   1.636
 3885WAT     H111897   1.151   6.468   1.556
 3885WAT     H211898   1.105   6.327   1.624
 3886WAT      O11899   4.521   2.944   4.801
 3886WAT     H111900   4.600   3.004   4.799
 3886WAT     H211901   4.450   2.980   4.739
 3887WAT      O11902   7.977   0.815   1.696
 3887WAT     H111903   8.062   0.763   1.697
 3887WAT     H211904   7.931   0.805   1.785
 3888WAT      O11905   8.466   8.267   6.954
 3888WAT     H111906   8.498   8.177   6.923
 3888WAT     H211907   8.434   8.320   6.876
 3889WAT      O11908   5.856   0.233   4.462
 3889WAT     H111909   5.912   0.290   4.401
 3889WAT     H211910   5.870   0.261   4.557
 3890WAT      O11911   1.592   1.805   6.518
 3890WAT     H111912   1.605   1.722   6.463
 3890WAT     H211913   1.606   1.784   6.615
 3891WAT      O11914   1.318   6.875   3.882
 3891WAT     H111915   1.333   6.786   3.838
 3891WAT     H211916   1.285   6.940   3.814
 3892WAT      O11917   9.686   4.501   0.481
 3892WAT     H111918   9.777   4.527   0.448
 3892WAT     H211919   9.656   4.567   0.550
 3893WAT      O11920   8.899   9.634   3.501
 3893WAT     H111921   8.842   9.580   3.439
 3893WAT     H211922   8.949   9.703   3.448
 3894WAT      O11923   0.214   9.058   9.033
 3894WAT     H111924   0.166   9.127   9.088
 3894WAT     H211925   0.183   8.967   9.060
 3895WAT      O11926   3.879   1.800   7.854
 3895WAT     H111927   3.961   1.745   7.842
 3895WAT     H211928   3.881   1.878   7.791
 3896WAT      O11929   4.854   5.506   2.990
 3896WAT     H111930   4.830   5.420   2.945
 3896WAT     H211931   4.797   5.518   3.071
 3897WAT      O11932   1.369   3.981   5.016
 3897WAT     H111933   1.308   3.945   4.945
 3897WAT     H211934   1.359   4.081   5.020
 3898WAT      O11935   6.021   4.657   0.401
 3898WAT     H111936   5.928   4.649   0.436
 3898WAT     H211937   6.065   4.567   0.404
 3899WAT      O11938   5.167   7.753   6.297
 3899WAT     H111939   5.162   7.831   6.360
 3899WAT     H211940   5.202   7.785   6.209
 3900WAT      O11941   3.882   3.263   3.699
 3900WAT     H111942   3.929   3.328   3.758
 3900WAT     H211943   3.949   3.214   3.643
 3901WAT      O11944   1.160   5.865   7.166
 3901WAT     H111945   1.218   5.903   7.238
 3901WAT     H211946   1.124   5.940   7.109
 3902WAT      O11947   8.062   6.308   6.126
 3902WAT     H111948   8.043   6.231   6.065
 3902WAT     H211949   7.995   6.311   6.199
 3903WAT      O11950   5.987   1.970   0.775
 3903WAT     H111951   5.893   1.947   0.748
 3903WAT     H211952   6.017   1.908   0.848
 3904WAT      O11953   2.477   3.854   3.794
 3904WAT     H111954   2.421   3.876   3.714
 3904WAT     H211955   2.569   3.831   3.764
 3905WAT      O11956   0.244   5.150   5.923
 3905WAT     H111957   0.281   5.083   5.987
 3905WAT     H211958   0.221   5.234   5.971
 3906WAT      O11959   7.445   6.473   7.750
 3906WAT     H111960   7.406   6.443   7.837
 3906WAT     H211961   7.389   6.438   7.675
 3907WAT      O11962   8.743   5.444   3.415
 3907WAT     H111963   8.778   5.443   3.508
 3907WAT     H211964   8.810   5.486   3.354
 3908WAT      O11965   8.485   5.214   2.691
 3908WAT     H111966   8.530   5.157   2.759
 3908WAT     H211967   8.553   5.270   2.643
 3909WAT      O11968   4.534   1.044   3.111
 3909WAT     H111969   4.601   0.973   3.133
 3909WAT     H211970   4.524   1.052   3.012
 3910WAT      O11971   1.423   3.174   3.422
 3910WAT     H111972   1.350   3.225   3.377
 3910WAT     H211973   1.392   3.145   3.513
 3911WAT      O11974   3.232   3.400   2.549
 3911WAT     H111975   3.289   3.341   2.607
 3911WAT     H211976   3.156   3.346   2.512
 3912WAT      O11977   4.005   5.431   2.250
 3912WAT     H111978   3.978   5.362   2.316
 3912WAT     H211979   3.930   5.448   2.186
 3913WAT      O11980   8.929   3.607   4.502
 3913WAT     H111981   8.901   3.616   4.406
 3913WAT     H211982   8.983   3.687   4.529
 3914WAT      O11983   7.475   7.898   8.365
 3914WAT     H111984   7.404   7.833   8.336
 3914WAT     H211985   7.557   7.848   8.394
 3915WAT      O11986   4.890   4.309   2.077
 3915WAT     H111987   4.811   4.348   2.029
 3915WAT     H211988   4.936   4.243   2.017
 3916WAT      O11989   6.145   0.854   6.707
 3916WAT     H111990   6.220   0.794   6.736
 3916WAT     H211991   6.128   0.841   6.610
 3917WAT      O11992   6.964   2.630   3.404
 3917WAT     H111993   6.884   2.609   3.459
 3917WAT     H211994   7.001   2.719   3.430
 3918WAT      O11995   8.787   1.418   0.947
 3918WAT     H111996   8.880   1.426   0.983
 3918WAT     H211997   8.765   1.500   0.894
 3919WAT      O11998   4.711   2.721   8.124
 3919WAT     H111999   4.676   2.662   8.196
 3919WAT     H212000   4.722   2.669   8.040
 3920WAT      O12001   0.369   1.318   6.029
 3920WAT     H112002   0.355   1.402   5.977
 3920WAT     H212003   0.450   1.328   6.087
 3921WAT      O12004   7.396   8.458   2.612
 3921WAT     H112005   7.424   8.396   2.539
 3921WAT     H212006   7.408   8.553   2.583
 3922WAT      O12007   6.698   1.727   5.498
 3922WAT     H112008   6.734   1.821   5.496
 3922WAT     H212009   6.643   1.715   5.581
 3923WAT      O12010   0.816   3.888   8.758
 3923WAT     H112011   0.732   3.836   8.774
 3923WAT     H212012   0.885   3.828   8.716
 3924WAT      O12013   6.357   7.197   3.480
 3924WAT     H112014   6.354   7.256   3.399
 3924WAT     H212015   6.348   7.101   3.452
 3925WAT      O12016   4.249   0.357   8.955
 3925WAT     H112017   4.152   0.335   8.970
 3925WAT     H212018   4.273   0.335   8.860
 3926WAT      O12019   3.660   3.476   2.508
 3926WAT     H112020   3.750   3.512   2.533
 3926WAT     H212021   3.637   3.504   2.414
 3927WAT      O12022   7.831   6.339   9.527
 3927WAT     H112023   7.895   6.283   9.580
 3927WAT     H212024   7.865   6.434   9.525
 3928WAT      O12025   6.442   7.422   9.422
 3928WAT     H112026   6.387   7.487   9.476
 3928WAT     H212027   6.518   7.470   9.380
 3929WAT      O12028   2.292   1.874   5.674
 3929WAT     H112029   2.370   1.914   5.721
 3929WAT     H212030   2.282   1.778   5.702
 3930WAT      O12031   3.086   1.651   9.310
 3930WAT     H112032   3.101   1.748   9.331
 3930WAT     H212033   3.143   1.625   9.232
 3931WAT      O12034   8.489   3.132   7.189
 3931WAT     H112035   8.397   3.170   7.178
 3931WAT     H212036   8.501   3.056   7.126
 3932WAT      O12037   8.777   6.290   8.641
 3932WAT     H112038   8.763   6.263   8.545
 3932WAT     H212039   8.755   6.213   8.701
 3933WAT      O12040   1.158   4.396   6.874
 3933WAT     H112041   1.217   4.319   6.849
 3933WAT     H212042   1.156   4.462   6.799
 3934WAT      O12043   3.709   0.345   4.973
 3934WAT     H112044   3.731   0.266   5.029
 3934WAT     H212045   3.792   0.384   4.935
 3935WAT      O12046   4.426   1.029   8.846
 3935WAT     H112047   4.400   0.944   8.801
 3935WAT     H212048   4.383   1.106   8.798
 3936WAT      O12049   0.474   8.185   2.463
 3936WAT     H112050   0.413   8.140   2.528
 3936WAT     H212051   0.531   8.252   2.511
 3937WAT      O12052   5.353   0.377   7.825
 3937WAT     H112053   5.341   0.356   7.922
 3937WAT     H212054   5.293   0.318   7.771
 3938WAT      O12055   6.156   0.521   8.676
 3938WAT     H112056   6.066   0.565   8.680
 3938WAT     H212057   6.177   0.481   8.765
 3939WAT      O12058   8.622   3.782   5.646
 3939WAT     H112059   8.668   3.831   5.720
 3939WAT     H212060   8.680   3.781   5.565
 3940WAT      O12061   7.456   2.138   4.184
 3940WAT     H112062   7.407   2.157   4.099
 3940WAT     H212063   7.553   2.158   4.172
 3941WAT      O12064   3.413   8.458   0.899
 3941WAT     H112065   3.335   8.404   0.930
 3941WAT     H212066   3.422   8.539   0.957
 3942WAT      O12067   7.333   4.568   1.554
 3942WAT     H112068   7.432   4.575   1.560
 3942WAT     H212069   7.300   4.624   1.478
 3943WAT      O12070   9.871   0.416   3.943
 3943WAT     H112071   9.799   0.472   3.903
 3943WAT     H212072   9.954   0.423   3.887
 3944WAT      O12073   7.902   5.494   9.501
 3944WAT     H112074   7.900   5.395   9.490
 3944WAT     H212075   7.867   5.537   9.417
 3945WAT      O12076   4.995   4.552   0.676
 3945WAT     H112077   4.971   4.648   0.689
 3945WAT     H212078   5.055   4.544   0.596
 3946WAT      O12079   9.552   3.785   2.279
 3946WAT     H112080   9.644   3.798   2.316
 3946WAT     H212081   9.505   3.714   2.331
 3947WAT      O12082   9.220   4.884   2.807
 3947WAT     H112083   9.200   4.980   2.827
 3947WAT     H212084   9.280   4.847   2.878
 3948WAT      O12085   2.767   9.802   1.754
 3948WAT     H112086   2.701   9.790   1.680
 3948WAT     H212087   2.761   9.725   1.817
 3949WAT      O12088   3.991   8.779   6.884
 3949WAT     H112089   3.992   8.872   6.921
 3949WAT     H212090   3.995   8.782   6.784
 3950WAT      O12091   9.133   9.162   2.225
 3950WAT     H112092   9.069   9.239   2.228
 3950WAT     H212093   9.139   9.119   2.315
 3951WAT      O12094   4.613   0.924   6.057
 3951WAT     H112095   4.692   0.980   6.082
 3951WAT     H212096   4.598   0.929   5.958
 3952WAT      O12097   1.079   4.560   7.812
 3952WAT     H112098   1.056   4.590   7.719
 3952WAT     H212099   1.112   4.466   7.810
 3953WAT      O12100   1.555   2.290   1.383
 3953WAT     H112101   1.563   2.192   1.401
 3953WAT     H212102   1.489   2.330   1.445
 3954WAT      O12103   1.027   7.509   2.327
 3954WAT     H112104   1.104   7.560   2.365
 3954WAT     H212105   1.010   7.427   2.382
 3955WAT      O12106   7.761   1.564   3.871
 3955WAT     H112107   7.763   1.591   3.968
 3955WAT     H212108   7.835   1.498   3.854
 3956WAT      O12109   0.269   6.399   8.395
 3956WAT     H112110   0.253   6.330   8.324
 3956WAT     H212111   0.275   6.354   8.484
 3957WAT      O12112   5.825   7.817   3.197
 3957WAT     H112113   5.776   7.887   3.144
 3957WAT     H212114   5.791   7.727   3.172
 3958WAT      O12115   4.279   3.817   7.957
 3958WAT     H112116   4.273   3.739   7.895
 3958WAT     H212117   4.316   3.896   7.908
 3959WAT      O12118   1.248   0.534   0.030
 3959WAT     H112119   1.150   0.549   0.030
 3959WAT     H212120   1.269   0.451   0.083
 3960WAT      O12121   3.773   4.429   4.522
 3960WAT     H112122   3.749   4.513   4.569
 3960WAT     H212123   3.858   4.442   4.471
 3961WAT      O12124   6.078   3.266   9.407
 3961WAT     H112125   6.131   3.192   9.367
 3961WAT     H212126   6.058   3.334   9.337
 3962WAT      O12127   5.928   9.008   9.368
 3962WAT     H112128   6.025   9.032   9.359
 3962WAT     H212129   5.920   8.918   9.410
 3963WAT      O12130   9.540   3.382   9.659
 3963WAT     H112131   9.558   3.469   9.612
 3963WAT     H212132   9.550   3.307   9.594
 3964WAT      O12133   3.569   4.024   2.673
 3964WAT     H112134   3.558   3.947   2.611
 3964WAT     H212135   3.643   4.083   2.642
 3965WAT      O12136   4.764   7.521   7.429
 3965WAT     H112137   4.820   7.444   7.458
 3965WAT     H212138   4.698   7.491   7.360
 3966WAT      O12139   3.637   3.526   2.248
 3966WAT     H112140   3.541   3.552   2.234
 3966WAT     H212141   3.679   3.505   2.159
 3967WAT      O12142   2.622   6.003   4.988
 3967WAT     H112143   2.666   6.004   4.899
 3967WAT     H212144   2.692   5.994   5.060
 3968WAT      O12145   1.400   5.243   8.313
 3968WAT     H112146   1.471   5.307   8.344
 3968WAT     H212147   1.443   5.156   8.289
 3969WAT      O12148   4.855   3.200   3.966
 3969WAT     H112149   4.793   3.279   3.972
 3969WAT     H212150   4.947   3.227   3.995
 3970WAT      O12151   1.200   6.318   8.229
 3970WAT     H112152   1.175   6.303   8.134
 3970WAT     H212153   1.225   6.230   8.271
 3971WAT      O12154   1.614   2.289   0.293
 3971WAT     H112155   1.689   2.267   0.356
 3971WAT     H212156   1.638   2.370   0.239
 3972WAT      O12157   0.881   1.714   7.004
 3972WAT     H112158   0.942   1.634   7.009
 3972WAT     H212159   0.936   1.797   7.009
 3973WAT      O12160   9.552   8.509   0.387
 3973WAT     H112161   9.538   8.518   0.485
 3973WAT     H212162   9.470   8.540   0.338
 3974WAT      O12163   7.615   3.777   5.463
 3974WAT     H112164   7.692   3.744   5.517
 3974WAT     H212165   7.550   3.703   5.449
 3975WAT      O12166   4.273   7.874   3.636
 3975WAT     H112167   4.284   7.775   3.635
 3975WAT     H212168   4.362   7.917   3.652
 3976WAT      O12169   4.033   8.195   0.476
 3976WAT     H112170   3.961   8.191   0.545
 3976WAT     H212171   4.086   8.279   0.489
 3977WAT      O12172   4.055   4.357   7.383
 3977WAT     H112173   3.961   4.389   7.394
 3977WAT     H212174   4.092   4.334   7.473
 3978WAT      O12175   4.093   8.879   5.232
 3978WAT     H112176   4.101   8.978   5.218
 3978WAT     H212177   4.150   8.852   5.310
 3979WAT      O12178   2.186   7.869   9.081
 3979WAT     H112179   2.212   7.949   9.028
 3979WAT     H212180   2.261   7.844   9.143
 3980WAT      O12181   4.382   7.985   5.525
 3980WAT     H112182   4.346   8.078   5.533
 3980WAT     H212183   4.461   7.975   5.586
 3981WAT      O12184   4.851   1.920   3.411
 3981WAT     H112185   4.913   1.998   3.415
 3981WAT     H212186   4.758   1.952   3.394
 3982WAT      O12187   8.710   6.757   3.917
 3982WAT     H112188   8.613   6.776   3.926
 3982WAT     H212189   8.731   6.733   3.822
 3983WAT      O12190   0.874   6.830   3.483
 3983WAT     H112191   0.837   6.742   3.514
 3983WAT     H212192   0.887   6.827   3.384
 3984WAT      O12193   5.304   8.767   6.575
 3984WAT     H112194   5.226   8.709   6.599
 3984WAT     H212195   5.281   8.823   6.496
 3985WAT      O12196   6.520   1.217   2.730
 3985WAT     H112197   6.531   1.171   2.642
 3985WAT     H212198   6.491   1.311   2.715
 3986WAT      O12199   8.458   7.657   5.647
 3986WAT     H112200   8.542   7.642   5.698
 3986WAT     H212201   8.472   7.732   5.582
 3987WAT      O12202   6.662   7.584   9.765
 3987WAT     H112203   6.603   7.609   9.842
 3987WAT     H212204   6.658   7.655   9.695
 3988WAT      O12205   0.357   6.142   3.624
 3988WAT     H112206   0.270   6.156   3.671
 3988WAT     H212207   0.432   6.152   3.690
 3989WAT      O12208   6.529   1.812   1.511
 3989WAT     H112209   6.475   1.762   1.443
 3989WAT     H212210   6.562   1.747   1.580
 3990WAT      O12211   0.613   2.684   6.395
 3990WAT     H112212   0.665   2.693   6.310
 3990WAT     H212213   0.675   2.689   6.473
 3991WAT      O12214   6.332   3.993   9.785
 3991WAT     H112215   6.298   3.908   9.825
 3991WAT     H212216   6.272   4.021   9.711
 3992WAT      O12217   0.321   7.899   4.089
 3992WAT     H112218   0.356   7.900   4.183
 3992WAT     H212219   0.397   7.913   4.025
 3993WAT      O12220   4.787   7.232   9.558
 3993WAT     H112221   4.824   7.163   9.620
 3993WAT     H212222   4.714   7.283   9.603
 3994WAT      O12223   5.548   2.806   0.464
 3994WAT     H112224   5.533   2.789   0.561
 3994WAT     H212225   5.647   2.807   0.446
 3995WAT      O12226   1.264   6.637   6.407
 3995WAT     H112227   1.194   6.613   6.474
 3995WAT     H212228   1.277   6.562   6.343
 3996WAT      O12229   9.463   7.234   3.443
 3996WAT     H112230   9.431   7.305   3.507
 3996WAT     H212231   9.529   7.274   3.380
 3997WAT      O12232   0.255   3.842   0.490
 3997WAT     H112233   0.333   3.870   0.434
 3997WAT     H212234   0.187   3.915   0.492
 3998WAT      O12235   1.743   3.479   5.470
 3998WAT     H112236   1.755   3.437   5.559
 3998WAT     H212237   1.681   3.557   5.477
 3999WAT      O12238   6.418   9.439   8.501
 3999WAT     H112239   6.490   9.375   8.478
 3999WAT     H212240   6.435   9.527   8.456
 4000WAT      O12241   0.601   1.062   5.895
 4000WAT     H112242   0.563   1.148   5.860
 4000WAT     H212243   0.645   1.078   5.983
 4001WAT      O12244   3.739   0.457   3.937
 4001WAT     H112245   3.722   0.371   3.889
 4001WAT     H212246   3.750   0.531   3.870
 4002WAT      O12247   6.426   3.383   4.600
 4002WAT     H112248   6.453   3.312   4.535
 4002WAT     H212249   6.410   3.469   4.551
 4003WAT      O12250   8.534   5.946   2.616
 4003WAT     H112251   8.485   5.896   2.687
 4003WAT     H212252   8.573   6.030   2.655
 4004WAT      O12253   4.188   7.998   2.390
 4004WAT     H112254   4.269   7.970   2.338
 4004WAT     H212255   4.123   8.043   2.329
 4005WAT      O12256   4.837   4.489   8.132
 4005WAT     H112257   4.890   4.407   8.112
 4005WAT     H212258   4.855   4.558   8.063
 4006WAT      O12259   8.609   7.165   0.922
 4006WAT     H112260   8.610   7.229   0.845
 4006WAT     H212261   8.515   7.152   0.952
 4007WAT      O12262   4.898   8.795   8.733
 4007WAT     H112263   4.911   8.802   8.634
 4007WAT     H212264   4.827   8.860   8.762
 4008WAT      O12265   5.604   5.094   4.908
 4008WAT     H112266   5.640   5.037   4.835
 4008WAT     H212267   5.534   5.156   4.871
 4009WAT      O12268   8.318   1.451   2.001
 4009WAT     H112269   8.220   1.436   1.995
 4009WAT     H212270   8.364   1.367   2.029
 4010WAT      O12271   0.250   6.679   4.470
 4010WAT     H112272   0.275   6.745   4.541
 4010WAT     H212273   0.220   6.594   4.512
 4011WAT      O12274   2.514   3.734   7.430
 4011WAT     H112275   2.560   3.785   7.502
 4011WAT     H212276   2.561   3.648   7.414
 4012WAT      O12277   6.666   8.794   3.955
 4012WAT     H112278   6.619   8.872   3.996
 4012WAT     H212279   6.745   8.826   3.902
 4013WAT      O12280   6.619   3.409   0.218
 4013WAT     H112281   6.694   3.470   0.243
 4013WAT     H212282   6.654   3.317   0.203
 4014WAT      O12283   6.140   6.644   6.989
 4014WAT     H112284   6.162   6.557   7.033
 4014WAT     H212285   6.048   6.639   6.950
 4015WAT      O12286   9.806   2.989   8.147
 4015WAT     H112287   9.888   2.967   8.200
 4015WAT     H212288   9.727   2.997   8.208
 4016WAT      O12289   5.546   7.806   8.321
 4016WAT     H112290   5.473   7.874   8.331
 4016WAT     H212291   5.506   7.718   8.295
 4017WAT      O12292   9.773   9.337   5.680
 4017WAT     H112293   9.690   9.292   5.714
 4017WAT     H212294   9.798   9.299   5.592
 4018WAT      O12295   5.812   6.880   1.436
 4018WAT     H112296   5.796   6.858   1.339
 4018WAT     H212297   5.864   6.966   1.442
 4019WAT      O12298   8.318   1.705   1.704
 4019WAT     H112299   8.399   1.663   1.743
 4019WAT     H212300   8.291   1.784   1.760
 4020WAT      O12301   9.396   7.531   3.282
 4020WAT     H112302   9.401   7.601   3.211
 4020WAT     H212303   9.306   7.487   3.279
 4021WAT      O12304   5.279   4.919   2.251
 4021WAT     H112305   5.284   4.833   2.199
 4021WAT     H212306   5.340   4.914   2.330
 4022WAT      O12307   5.338   4.730   9.718
 4022WAT     H112308   5.372   4.766   9.804
 4022WAT     H212309   5.366   4.634   9.708
 4023WAT      O12310   5.838   3.655   1.393
 4023WAT     H112311   5.802   3.721   1.459
 4023WAT     H212312   5.794   3.669   1.304
 4024WAT      O12313   0.134   4.382   3.344
 4024WAT     H112314   0.061   4.339   3.292
 4024WAT     H212315   0.175   4.316   3.407
 4025WAT      O12316   7.262   7.085   0.968
 4025WAT     H112317   7.205   7.044   0.897
 4025WAT     H212318   7.204   7.118   1.043
 4026WAT      O12319   2.655   5.907   0.385
 4026WAT     H112320   2.675   5.829   0.445
 4026WAT     H212321   2.583   5.963   0.427
 4027WAT      O12322   8.842   9.131   1.744
 4027WAT     H112323   8.783   9.111   1.666
 4027WAT     H212324   8.832   9.059   1.812
 4028WAT      O12325   6.760   6.691   4.622
 4028WAT     H112326   6.664   6.709   4.599
 4028WAT     H212327   6.811   6.776   4.622
 4029WAT      O12328   2.041   5.016   3.918
 4029WAT     H112329   2.019   5.006   3.821
 4029WAT     H212330   2.052   4.925   3.959
 4030WAT      O12331   4.188   9.149   9.772
 4030WAT     H112332   4.288   9.138   9.771
 4030WAT     H212333   4.163   9.225   9.712
 4031WAT      O12334   7.178   2.048   2.715
 4031WAT     H112335   7.123   1.965   2.716
 4031WAT     H212336   7.213   2.064   2.623
 4032WAT      O12337   8.846   9.232   4.452
 4032WAT     H112338   8.768   9.174   4.478
 4032WAT     H212339   8.876   9.208   4.360
 4033WAT      O12340   3.172   0.833   5.802
 4033WAT     H112341   3.091   0.778   5.820
 4033WAT     H212342   3.155   0.893   5.723
 4034WAT      O12343   9.268   8.102   9.187
 4034WAT     H112344   9.350   8.133   9.140
 4034WAT     H212345   9.291   8.030   9.252
 4035WAT      O12346   6.058   5.033   6.356
 4035WAT     H112347   6.085   4.978   6.436
 4035WAT     H212348   6.046   5.128   6.384
 4036WAT      O12349   7.264   8.548   6.843
 4036WAT     H112350   7.364   8.538   6.847
 4036WAT     H212351   7.236   8.549   6.747
 4037WAT      O12352   8.590   8.671   6.609
 4037WAT     H112353   8.551   8.739   6.672
 4037WAT     H212354   8.570   8.579   6.642
 4038WAT      O12355   8.327   0.705   2.421
 4038WAT     H112356   8.395   0.682   2.490
 4038WAT     H212357   8.260   0.769   2.459
 4039WAT      O12358   4.821   3.291   8.530
 4039WAT     H112359   4.748   3.227   8.507
 4039WAT     H212360   4.850   3.275   8.624
 4040WAT      O12361   9.507   1.696   3.065
 4040WAT     H112362   9.492   1.790   3.032
 4040WAT     H212363   9.543   1.699   3.158
 4041WAT      O12364   7.610   2.899   8.376
 4041WAT     H112365   7.635   2.850   8.460
 4041WAT     H212366   7.646   2.992   8.380
 4042WAT      O12367   2.515   6.940   4.961
 4042WAT     H112368   2.506   6.844   4.987
 4042WAT     H212369   2.443   6.963   4.895
 4043WAT      O12370   0.507   6.072   7.337
 4043WAT     H112371   0.432   6.012   7.309
 4043WAT     H212372   0.507   6.079   7.437
 4044WAT      O12373   5.045   8.844   5.425
 4044WAT     H112374   4.952   8.823   5.395
 4044WAT     H212375   5.084   8.763   5.469
 4045WAT      O12376   8.753   6.254   4.352
 4045WAT     H112377   8.821   6.265   4.280
 4045WAT     H212378   8.689   6.182   4.327
 4046WAT      O12379   3.628   0.491   8.607
 4046WAT     H112380   3.546   0.549   8.607
 4046WAT     H212381   3.703   0.541   8.562
 4047WAT      O12382   0.552   7.376   3.268
 4047WAT     H112383   0.562   7.474   3.282
 4047WAT     H212384   0.464   7.357   3.226
 4048WAT      O12385   1.910   6.825   8.477
 4048WAT     H112386   1.925   6.922   8.461
 4048WAT     H212387   1.980   6.790   8.540
 4049WAT      O12388   8.231   6.283   4.441
 4049WAT     H112389   8.288   6.226   4.500
 4049WAT     H212390   8.231   6.377   4.475
 4050WAT      O12391   0.076   9.169   9.257
 4050WAT     H112392   0.139   9.121   9.318
 4050WAT     H212393  -0.011   9.120   9.252
 4051WAT      O12394   1.868   5.397   3.864
 4051WAT     H112395   1.878   5.359   3.772
 4051WAT     H212396   1.956   5.435   3.894
 4052WAT      O12397   4.066   8.495   3.470
 4052WAT     H112398   4.047   8.446   3.555
 4052WAT     H212399   3.996   8.565   3.455
 4053WAT      O12400   4.091   7.010   4.255
 4053WAT     H112401   4.109   7.053   4.344
 4053WAT     H212402   3.993   6.992   4.247
 4054WAT      O12403   8.224   9.245   0.260
 4054WAT     H112404   8.185   9.254   0.352
 4054WAT     H212405   8.192   9.161   0.218
 4055WAT      O12406   5.570   3.463   5.081
 4055WAT     H112407   5.557   3.447   5.179
 4055WAT     H212408   5.481   3.467   5.035
 4056WAT      O12409   3.130   3.755   5.351
 4056WAT     H112410   3.111   3.846   5.315
 4056WAT     H212411   3.154   3.693   5.276
 4057WAT      O12412   5.681   4.000   9.433
 4057WAT     H112413   5.618   4.032   9.362
 4057WAT     H212414   5.731   3.920   9.401
 4058WAT      O12415   5.371   5.677   7.156
 4058WAT     H112416   5.370   5.601   7.091
 4058WAT     H212417   5.456   5.676   7.208
 4059WAT      O12418   5.205   8.017   2.777
 4059WAT     H112419   5.258   8.099   2.753
 4059WAT     H212420   5.149   8.037   2.857
 4060WAT      O12421   9.554   3.278   4.059
 4060WAT     H112422   9.601   3.338   4.123
 4060WAT     H212423   9.539   3.188   4.101
 4061WAT      O12424   4.989   1.529   1.412
 4061WAT     H112425   4.916   1.575   1.361
 4061WAT     H212426   4.956   1.503   1.502
 4062WAT      O12427   0.239   9.668   6.989
 4062WAT     H112428   0.250   9.761   7.024
 4062WAT     H212429   0.193   9.671   6.900
 4063WAT      O12430   7.051   8.534   0.867
 4063WAT     H112431   7.024   8.440   0.849
 4063WAT     H212432   7.107   8.569   0.792
 4064WAT      O12433   9.250   5.722   6.435
 4064WAT     H112434   9.194   5.771   6.502
 4064WAT     H212435   9.201   5.639   6.406
 4065WAT      O12436   2.351   1.924   6.551
 4065WAT     H112437   2.270   1.869   6.531
 4065WAT     H212438   2.354   2.004   6.491
 4066WAT      O12439   8.805   0.889   0.375
 4066WAT     H112440   8.716   0.915   0.414
 4066WAT     H212441   8.795   0.802   0.326
 4067WAT      O12442   9.214   4.220   3.198
 4067WAT     H112443   9.186   4.252   3.289
 4067WAT     H212444   9.172   4.277   3.128
 4068WAT      O12445   2.413   4.762   3.727
 4068WAT     H112446   2.357   4.725   3.801
 4068WAT     H212447   2.505   4.782   3.761
 4069WAT      O12448   7.845   9.014   4.005
 4069WAT     H112449   7.859   8.936   4.065
 4069WAT     H212450   7.781   9.078   4.047
 4070WAT      O12451   5.108   1.495   5.195
 4070WAT     H112452   5.183   1.517   5.258
 4070WAT     H212453   5.142   1.496   5.101
 4071WAT      O12454   6.826   5.617   7.946
 4071WAT     H112455   6.729   5.643   7.951
 4071WAT     H212456   6.841   5.560   7.866
 4072WAT      O12457   2.636   6.909   4.007
 4072WAT     H112458   2.540   6.883   4.022
 4072WAT     H212459   2.689   6.829   3.981
 4073WAT      O12460   2.300   5.802   8.066
 4073WAT     H112461   2.306   5.879   8.129
 4073WAT     H212462   2.385   5.795   8.014
 4074WAT      O12463   9.867   7.633   9.258
 4074WAT     H112464   9.862   7.727   9.291
 4074WAT     H212465   9.855   7.632   9.159
 4075WAT      O12466   3.515   9.439   1.570
 4075WAT     H112467   3.582   9.512   1.559
 4075WAT     H212468   3.424   9.479   1.582
 4076WAT      O12469   9.801   8.121   4.273
 4076WAT     H112470   9.706   8.103   4.250
 4076WAT     H212471   9.807   8.160   4.364
 4077WAT      O12472   5.717   4.381   0.757
 4077WAT     H112473   5.633   4.347   0.715
 4077WAT     H212474   5.750   4.460   0.705
 4078WAT      O12475   3.561   8.162   8.614
 4078WAT     H112476   3.484   8.139   8.554
 4078WAT     H212477   3.576   8.261   8.612
 4079WAT      O12478   1.668   9.202   8.351
 4079WAT     H112479   1.660   9.201   8.451
 4079WAT     H212480   1.590   9.250   8.311
 4080WAT      O12481   6.367   7.624   7.378
 4080WAT     H112482   6.420   7.650   7.459
 4080WAT     H212483   6.289   7.567   7.405
 4081WAT      O12484   7.163   7.849   5.919
 4081WAT     H112485   7.096   7.795   5.970
 4081WAT     H212486   7.118   7.889   5.839
 4082WAT      O12487   4.908   8.893   6.478
 4082WAT     H112488   4.872   8.984   6.461
 4082WAT     H212489   4.942   8.853   6.393
 4083WAT      O12490   5.732   0.419   7.601
 4083WAT     H112491   5.793   0.458   7.669
 4083WAT     H212492   5.643   0.465   7.606
 4084WAT      O12493   2.816   1.592   2.319
 4084WAT     H112494   2.756   1.541   2.381
 4084WAT     H212495   2.900   1.617   2.368
 4085WAT      O12496   2.301   6.360   0.086
 4085WAT     H112497   2.227   6.352   0.152
 4085WAT     H212498   2.384   6.321   0.124
 4086WAT      O12499   2.450   1.605   4.857
 4086WAT     H112500   2.479   1.515   4.825
 4086WAT     H212501   2.396   1.650   4.785
 4087WAT      O12502   7.286   7.921   3.895
 4087WAT     H112503   7.369   7.883   3.854
 4087WAT     H212504   7.262   7.869   3.977
 4088WAT      O12505   4.093   0.134   0.995
 4088WAT     H112506   4.164   0.083   1.043
 4088WAT     H212507   4.003   0.103   1.025
 4089WAT      O12508   2.702   8.717   6.334
 4089WAT     H112509   2.771   8.789   6.335
 4089WAT     H212510   2.648   8.724   6.250
 4090WAT      O12511   7.056   0.873   9.857
 4090WAT     H112512   7.105   0.813   9.794
 4090WAT     H212513   7.121   0.937   9.899
 4091WAT      O12514   0.120   6.404   1.958
 4091WAT     H112515   0.219   6.405   1.944
 4091WAT     H212516   0.081   6.490   1.925
 4092WAT      O12517   5.246   1.823   2.430
 4092WAT     H112518   5.192   1.748   2.392
 4092WAT     H212519   5.241   1.820   2.530
 4093WAT      O12520   9.770   1.329   9.324
 4093WAT     H112521   9.787   1.291   9.414
 4093WAT     H212522   9.678   1.369   9.321
 4094WAT      O12523   3.559   8.973   0.843
 4094WAT     H112524   3.593   9.043   0.781
 4094WAT     H212525   3.475   8.933   0.806
 4095WAT      O12526   5.328   5.664   3.810
 4095WAT     H112527   5.282   5.598   3.750
 4095WAT     H212528   5.297   5.652   3.904
 4096WAT      O12529   5.775   5.939   5.917
 4096WAT     H112530   5.812   6.004   5.850
 4096WAT     H212531   5.751   5.854   5.870
 4097WAT      O12532   1.111   6.812   5.072
 4097WAT     H112533   1.150   6.826   4.981
 4097WAT     H212534   1.100   6.900   5.118
 4098WAT      O12535   2.290   8.512   0.885
 4098WAT     H112536   2.199   8.512   0.927
 4098WAT     H212537   2.358   8.535   0.955
 4099WAT      O12538   4.244   8.645   4.169
 4099WAT     H112539   4.258   8.567   4.230
 4099WAT     H212540   4.327   8.661   4.116
 4100WAT      O12541   9.695   0.633   8.705
 4100WAT     H112542   9.759   0.682   8.764
 4100WAT     H212543   9.601   0.652   8.733
 4101WAT      O12544   2.912   0.286   5.411
 4101WAT     H112545   2.897   0.373   5.458
 4101WAT     H212546   2.920   0.213   5.479
 4102WAT      O12547   1.092   8.364   1.797
 4102WAT     H112548   1.023   8.332   1.862
 4102WAT     H212549   1.060   8.347   1.703
 4103WAT      O12550   0.104   8.907   2.049
 4103WAT     H112551   0.113   8.857   2.135
 4103WAT     H212552   0.147   8.997   2.058
 4104WAT      O12553   1.953   0.416   6.361
 4104WAT     H112554   2.019   0.472   6.311
 4104WAT     H212555   1.890   0.373   6.297
 4105WAT      O12556   0.351   4.063   8.035
 4105WAT     H112557   0.332   3.967   8.013
 4105WAT     H212558   0.270   4.106   8.075
 4106WAT      O12559   9.868   4.949   5.186
 4106WAT     H112560   9.863   4.937   5.087
 4106WAT     H212561   9.775   4.947   5.225
 4107WAT      O12562   6.561   9.162   4.565
 4107WAT     H112563   6.636   9.143   4.628
 4107WAT     H212564   6.595   9.218   4.489
 4108WAT      O12565   7.914   6.844   4.334
 4108WAT     H112566   7.893   6.751   4.362
 4108WAT     H212567   7.869   6.909   4.395
 4109WAT      O12568   6.940   1.884   4.992
 4109WAT     H112569   6.921   1.810   4.927
 4109WAT     H212570   6.936   1.848   5.086
 4110WAT      O12571   9.180   5.387   8.733
 4110WAT     H112572   9.224   5.442   8.662
 4110WAT     H212573   9.090   5.427   8.754
 4111WAT      O12574   2.104   7.265   7.122
 4111WAT     H112575   2.018   7.248   7.171
 4111WAT     H212576   2.169   7.311   7.182
 4112WAT      O12577   3.471   2.100   5.238
 4112WAT     H112578   3.413   2.019   5.233
 4112WAT     H212579   3.567   2.072   5.244
 4113WAT      O12580   8.210   3.803   7.848
 4113WAT     H112581   8.177   3.734   7.912
 4113WAT     H212582   8.309   3.798   7.840
 4114WAT      O12583   1.503   9.196   2.379
 4114WAT     H112584   1.579   9.261   2.387
 4114WAT     H212585   1.432   9.220   2.445
 4115WAT      O12586   1.959   6.495   7.227
 4115WAT     H112587   1.977   6.478   7.130
 4115WAT     H212588   2.040   6.536   7.269
 4116WAT      O12589   0.779   0.204   8.264
 4116WAT     H112590   0.830   0.236   8.185
 4116WAT     H212591   0.700   0.263   8.280
 4117WAT      O12592   0.516   9.207   7.792
 4117WAT     H112593   0.560   9.297   7.780
 4117WAT     H212594   0.582   9.143   7.830
 4118WAT      O12595   6.210   7.087   1.539
 4118WAT     H112596   6.260   7.172   1.524
 4118WAT     H212597   6.215   7.061   1.635
 4119WAT      O12598   6.116   8.025   8.829
 4119WAT     H112599   6.053   8.002   8.904
 4119WAT     H212600   6.067   8.077   8.760
 4120WAT      O12601   3.048   1.921   7.440
 4120WAT     H112602   3.083   1.978   7.515
 4120WAT     H212603   2.990   1.849   7.477
 4121WAT      O12604   2.552   6.187   3.318
 4121WAT     H112605   2.582   6.149   3.230
 4121WAT     H212606   2.595   6.276   3.332
 4122WAT      O12607   7.911   7.628   3.702
 4122WAT     H112608   7.996   7.578   3.685
 4122WAT     H212609   7.833   7.571   3.676
 4123WAT      O12610   5.930   2.194   1.089
 4123WAT     H112611   5.937   2.101   1.125
 4123WAT     H212612   5.977   2.199   1.000
 4124WAT      O12613   7.960   3.664   4.079
 4124WAT     H112614   7.892   3.728   4.044
 4124WAT     H212615   7.986   3.599   4.008
 4125WAT      O12616   5.009   4.893   4.394
 4125WAT     H112617   4.920   4.923   4.363
 4125WAT     H212618   5.050   4.962   4.453
 4126WAT      O12619   2.185   1.246   2.042
 4126WAT     H112620   2.110   1.236   1.978
 4126WAT     H212621   2.179   1.334   2.088
 4127WAT      O12622   8.135   9.259   3.714
 4127WAT     H112623   8.131   9.250   3.813
 4127WAT     H212624   8.065   9.323   3.683
 4128WAT      O12625   0.527   1.043   4.863
 4128WAT     H112626   0.625   1.063   4.866
 4128WAT     H212627   0.489   1.072   4.776
 4129WAT      O12628   5.677   4.716   7.317
 4129WAT     H112629   5.752   4.770   7.354
 4129WAT     H212630   5.613   4.692   7.390
 4130WAT      O12631   7.749   7.304   5.600
 4130WAT     H112632   7.663   7.254   5.605
 4130WAT     H212633   7.811   7.259   5.535
 4131WAT      O12634   3.983   8.620   9.484
 4131WAT     H112635   4.055   8.598   9.550
 4131WAT     H212636   3.973   8.719   9.478
 4132WAT      O12637   6.096   2.294   9.849
 4132WAT     H112638   6.139   2.252   9.769
 4132WAT     H212639   6.042   2.373   9.821
 4133WAT      O12640   9.536   3.182   2.994
 4133WAT     H112641   9.510   3.260   3.051
 4133WAT     H212642   9.635   3.185   2.977
 4134WAT      O12643   5.419   0.747   6.863
 4134WAT     H112644   5.460   0.757   6.954
 4134WAT     H212645   5.489   0.760   6.793
 4135WAT      O12646   4.412   1.215   4.061
 4135WAT     H112647   4.463   1.129   4.071
 4135WAT     H212648   4.445   1.281   4.129
 4136WAT      O12649   5.664   7.179   4.080
 4136WAT     H112650   5.754   7.150   4.048
 4136WAT     H212651   5.625   7.244   4.014
 4137WAT      O12652   3.691   4.103   1.654
 4137WAT     H112653   3.742   4.087   1.569
 4137WAT     H212654   3.749   4.079   1.732
 4138WAT      O12655   9.540   5.060   9.445
 4138WAT     H112656   9.534   5.034   9.541
 4138WAT     H212657   9.477   5.006   9.390
 4139WAT      O12658   8.763   4.810   9.634
 4139WAT     H112659   8.863   4.817   9.638
 4139WAT     H212660   8.737   4.726   9.587
 4140WAT      O12661   2.975   7.689   4.575
 4140WAT     H112662   3.011   7.598   4.598
 4140WAT     H212663   3.007   7.716   4.484
 4141WAT      O12664   5.740   6.857   1.183
 4141WAT     H112665   5.694   6.942   1.158
 4141WAT     H212666   5.764   6.807   1.099
 4142WAT      O12667   1.841   2.827   4.753
 4142WAT     H112668   1.939   2.831   4.734
 4142WAT     H212669   1.823   2.861   4.845
 4143WAT      O12670   2.856   2.855   8.842
 4143WAT     H112671   2.769   2.825   8.803
 4143WAT     H212672   2.855   2.954   8.854
 4144WAT      O12673   8.744   7.501   0.195
 4144WAT     H112674   8.758   7.410   0.156
 4144WAT     H212675   8.721   7.565   0.122
 4145WAT      O12676   0.037   3.012   8.910
 4145WAT     H112677  -0.041   3.042   8.856
 4145WAT     H212678   0.009   2.936   8.969
 4146WAT      O12679   3.633   6.185   0.361
 4146WAT     H112680   3.559   6.165   0.297
 4146WAT     H212681   3.670   6.276   0.342
 4147WAT      O12682   8.784   7.973   2.855
 4147WAT     H112683   8.736   8.040   2.912
 4147WAT     H212684   8.876   7.957   2.892
 4148WAT      O12685   2.335   3.437   4.296
 4148WAT     H112686   2.393   3.440   4.215
 4148WAT     H212687   2.392   3.438   4.378
 4149WAT      O12688   1.724   8.881   3.885
 4149WAT     H112689   1.767   8.879   3.975
 4149WAT     H212690   1.677   8.794   3.869
 4150WAT      O12691   7.245   0.847   7.566
 4150WAT     H112692   7.190   0.923   7.533
 4150WAT     H212693   7.257   0.855   7.665
 4151WAT      O12694   0.017   4.676   7.021
 4151WAT     H112695   0.020   4.605   6.951
 4151WAT     H212696   0.050   4.639   7.108
 4152WAT      O12697   5.506   9.163   8.980
 4152WAT     H112698   5.463   9.107   8.910
 4152WAT     H212699   5.463   9.145   9.069
 4153WAT      O12700   0.218   0.331   8.643
 4153WAT     H112701   0.259   0.306   8.555
 4153WAT     H212702   0.129   0.374   8.627
 4154WAT      O12703   9.369   8.212   0.129
 4154WAT     H112704   9.370   8.115   0.105
 4154WAT     H212705   9.354   8.266   0.047
 4155WAT      O12706   4.058   5.038   6.959
 4155WAT     H112707   4.147   5.000   6.932
 4155WAT     H212708   4.072   5.115   7.020
 4156WAT      O12709   5.898   3.518   3.820
 4156WAT     H112710   5.819   3.468   3.784
 4156WAT     H212711   5.982   3.478   3.782
 4157WAT      O12712   1.088   0.761   3.906
 4157WAT     H112713   1.067   0.669   3.874
 4157WAT     H212714   1.145   0.808   3.839
 4158WAT      O12715   4.381   1.936   5.385
 4158WAT     H112716   4.470   1.970   5.417
 4158WAT     H212717   4.311   2.006   5.401
 4159WAT      O12718   1.936   8.452   8.043
 4159WAT     H112719   1.906   8.546   8.030
 4159WAT     H212720   2.034   8.449   8.064
 4160WAT      O12721   2.303   1.936   7.786
 4160WAT     H112722   2.325   2.021   7.833
 4160WAT     H212723   2.240   1.954   7.710
 4161WAT      O12724   8.169   8.421   2.353
 4161WAT     H112725   8.260   8.447   2.385
 4161WAT     H212726   8.163   8.321   2.348
 4162WAT      O12727   0.077   8.054   8.455
 4162WAT     H112728   0.087   7.955   8.453
 4162WAT     H212729   0.002   8.081   8.394
 4163WAT      O12730   3.692   4.732   2.307
 4163WAT     H112731   3.671   4.682   2.223
 4163WAT     H212732   3.750   4.676   2.366
 4164WAT      O12733   0.906   3.291   2.718
 4164WAT     H112734   0.861   3.252   2.638
 4164WAT     H212735   0.893   3.390   2.718
 4165WAT      O12736   4.974   3.452   0.257
 4165WAT     H112737   4.947   3.535   0.207
 4165WAT     H212738   4.901   3.385   0.253
 4166WAT      O12739   7.378   0.506   4.268
 4166WAT     H112740   7.430   0.591   4.276
 4166WAT     H212741   7.396   0.448   4.348
 4167WAT      O12742   9.377   6.710   3.903
 4167WAT     H112743   9.374   6.670   3.995
 4167WAT     H212744   9.440   6.788   3.903
 4168WAT      O12745   8.010   1.739   1.799
 4168WAT     H112746   8.039   1.826   1.759
 4168WAT     H212747   8.044   1.664   1.743
 4169WAT      O12748   4.635   0.283   8.892
 4169WAT     H112749   4.726   0.251   8.864
 4169WAT     H212750   4.568   0.210   8.876
 4170WAT      O12751   4.543   1.355   2.413
 4170WAT     H112752   4.535   1.446   2.372
 4170WAT     H212753   4.597   1.362   2.497
 4171WAT      O12754   9.480   3.491   9.262
 4171WAT     H112755   9.505   3.543   9.344
 4171WAT     H212756   9.468   3.395   9.287
 4172WAT      O12757   5.321   2.544   2.854
 4172WAT     H112758   5.372   2.462   2.828
 4172WAT     H212759   5.223   2.525   2.848
 4173WAT      O12760   0.008   0.227   7.490
 4173WAT     H112761  -0.074   0.200   7.441
 4173WAT     H212762  -0.010   0.310   7.543
 4174WAT      O12763   0.574   3.000   6.478
 4174WAT     H112764   0.584   2.991   6.379
 4174WAT     H212765   0.551   3.094   6.501
 4175WAT      O12766   5.830   8.677   3.977
 4175WAT     H112767   5.883   8.760   3.992
 4175WAT     H212768   5.816   8.663   3.879
 4176WAT      O12769   1.355   9.333   6.251
 4176WAT     H112770   1.397   9.373   6.332
 4176WAT     H212771   1.342   9.404   6.181
 4177WAT      O12772   2.086   7.923   0.207
 4177WAT     H112773   2.140   8.006   0.197
 4177WAT     H212774   2.075   7.902   0.304
 4178WAT      O12775   2.745   6.297   5.130
 4178WAT     H112776   2.753   6.354   5.047
 4178WAT     H212777   2.800   6.215   5.119
 4179WAT      O12778   1.754   4.247   3.225
 4179WAT     H112779   1.755   4.252   3.125
 4179WAT     H212780   1.847   4.237   3.258
 4180WAT      O12781   4.873   7.406   9.009
 4180WAT     H112782   4.795   7.437   8.955
 4180WAT     H212783   4.854   7.423   9.106
 4181WAT      O12784   3.526   5.985   1.688
 4181WAT     H112785   3.619   6.001   1.722
 4181WAT     H212786   3.460   6.027   1.750
 4182WAT      O12787   6.927   5.725   4.407
 4182WAT     H112788   6.827   5.721   4.408
 4182WAT     H212789   6.963   5.642   4.363
 4183WAT      O12790   1.089   8.969   0.806
 4183WAT     H112791   1.081   9.036   0.732
 4183WAT     H212792   1.012   8.906   0.802
 4184WAT      O12793   8.977   0.498   1.837
 4184WAT     H112794   8.937   0.466   1.751
 4184WAT     H212795   8.906   0.539   1.894
 4185WAT      O12796   4.114   6.252   7.423
 4185WAT     H112797   4.186   6.201   7.377
 4185WAT     H212798   4.098   6.338   7.375
 4186WAT      O12799   0.861   4.203   2.101
 4186WAT     H112800   0.881   4.293   2.141
 4186WAT     H212801   0.947   4.157   2.078
 4187WAT      O12802   6.478   2.868   7.822
 4187WAT     H112803   6.508   2.862   7.727
 4187WAT     H212804   6.475   2.964   7.850
 4188WAT      O12805   3.035   3.471   8.051
 4188WAT     H112806   3.070   3.458   8.144
 4188WAT     H212807   2.947   3.425   8.043
 4189WAT      O12808   2.556   8.758   2.658
 4189WAT     H112809   2.645   8.774   2.615
 4189WAT     H212810   2.562   8.778   2.756
 4190WAT      O12811   6.817   8.297   8.779
 4190WAT     H112812   6.916   8.301   8.787
 4190WAT     H212813   6.783   8.384   8.742
 4191WAT      O12814   0.301   6.049   4.711
 4191WAT     H112815   0.326   5.965   4.760
 4191WAT     H212816   0.384   6.101   4.691
 4192WAT      O12817   1.614   6.152   0.725
 4192WAT     H112818   1.664   6.172   0.640
 4192WAT     H212819   1.679   6.145   0.801
 4193WAT      O12820   5.343   3.340   6.127
 4193WAT     H112821   5.265   3.369   6.072
 4193WAT     H212822   5.420   3.317   6.067
 4194WAT      O12823   0.171   6.723   9.574
 4194WAT     H112824   0.226   6.688   9.650
 4194WAT     H212825   0.118   6.802   9.605
 4195WAT      O12826   6.756   3.457   3.528
 4195WAT     H112827   6.782   3.525   3.459
 4195WAT     H212828   6.676   3.406   3.497
 4196WAT      O12829   2.819   8.634   2.910
 4196WAT     H112830   2.836   8.563   2.978
 4196WAT     H212831   2.816   8.592   2.819
 4197WAT      O12832   6.933   8.065   8.003
 4197WAT     H112833   6.867   8.070   7.928
 4197WAT     H212834   6.906   7.992   8.066
 4198WAT      O12835   4.286   5.455   0.707
 4198WAT     H112836   4.358   5.395   0.743
 4198WAT     H212837   4.197   5.423   0.740
 4199WAT      O12838   6.919   8.559   4.346
 4199WAT     H112839   6.858   8.636   4.325
 4199WAT     H212840   6.968   8.578   4.431
 4200WAT      O12841   5.743   6.290   8.490
 4200WAT     H112842   5.701   6.200   8.503
 4200WAT     H212843   5.788   6.293   8.401
 4201WAT      O12844   8.632   4.458   1.770
 4201WAT     H112845   8.615   4.483   1.675
 4201WAT     H212846   8.559   4.398   1.803
 4202WAT      O12847   4.698   0.521   1.432
 4202WAT     H112848   4.613   0.524   1.485
 4202WAT     H212849   4.726   0.426   1.421
 4203WAT      O12850   4.120   5.879   3.963
 4203WAT     H112851   4.136   5.910   4.056
 4203WAT     H212852   4.029   5.837   3.957
 4204WAT      O12853   1.272   3.837   3.146
 4204WAT     H112854   1.301   3.759   3.201
 4204WAT     H212855   1.264   3.918   3.205
 4205WAT      O12856   7.855   1.614   0.198
 4205WAT     H112857   7.843   1.518   0.226
 4205WAT     H212858   7.913   1.661   0.265
 4206WAT      O12859   6.617   5.256   2.861
 4206WAT     H112860   6.587   5.179   2.805
 4206WAT     H212861   6.543   5.284   2.922
 4207WAT      O12862   7.427   2.373   2.711
 4207WAT     H112863   7.477   2.432   2.647
 4207WAT     H212864   7.381   2.301   2.660
 4208WAT      O12865   9.559   1.165   6.927
 4208WAT     H112866   9.635   1.229   6.920
 4208WAT     H212867   9.509   1.162   6.840
 4209WAT      O12868   4.554   2.739   9.384
 4209WAT     H112869   4.470   2.760   9.434
 4209WAT     H212870   4.564   2.640   9.374
 4210WAT      O12871   5.157   1.931   0.065
 4210WAT     H112872   5.201   1.851   0.024
 4210WAT     H212873   5.144   1.915   0.163
 4211WAT      O12874   9.089   2.462   8.838
 4211WAT     H112875   9.009   2.424   8.883
 4211WAT     H212876   9.124   2.539   8.892
 4212WAT      O12877   9.558   5.848   7.544
 4212WAT     H112878   9.494   5.864   7.619
 4212WAT     H212879   9.608   5.931   7.523
 4213WAT      O12880   4.944   6.730   4.996
 4213WAT     H112881   4.877   6.745   4.924
 4213WAT     H212882   4.921   6.647   5.047
 4214WAT      O12883   8.608   2.054   7.267
 4214WAT     H112884   8.578   2.008   7.183
 4214WAT     H212885   8.530   2.100   7.310
 4215WAT      O12886   9.319   0.959   6.198
 4215WAT     H112887   9.266   0.912   6.268
 4215WAT     H212888   9.312   1.058   6.211
 4216WAT      O12889   0.725   3.550   7.187
 4216WAT     H112890   0.769   3.506   7.109
 4216WAT     H212891   0.631   3.517   7.196
 4217WAT      O12892   2.582   9.129   0.675
 4217WAT     H112893   2.657   9.064   0.684
 4217WAT     H212894   2.532   9.110   0.590
 4218WAT      O12895   7.229   4.826   9.165
 4218WAT     H112896   7.166   4.764   9.211
 4218WAT     H212897   7.272   4.778   9.088
 4219WAT      O12898   2.963   6.793   2.521
 4219WAT     H112899   2.944   6.698   2.496
 4219WAT     H212900   3.041   6.827   2.468
 4220WAT      O12901   0.643   3.123   1.513
 4220WAT     H112902   0.657   3.061   1.436
 4220WAT     H212903   0.546   3.123   1.538
 4221WAT      O12904   8.859   7.042   4.562
 4221WAT     H112905   8.784   7.100   4.529
 4221WAT     H212906   8.831   6.946   4.558
 4222WAT      O12907   6.026   8.970   1.116
 4222WAT     H112908   6.047   8.915   1.035
 4222WAT     H212909   6.076   8.933   1.195
 4223WAT      O12910   3.951   1.699   1.190
 4223WAT     H112911   3.967   1.728   1.096
 4223WAT     H212912   4.004   1.616   1.209
 4224WAT      O12913   0.999   1.675   2.620
 4224WAT     H112914   1.025   1.770   2.606
 4224WAT     H212915   0.900   1.666   2.620
 4225WAT      O12916   6.639   0.268   5.008
 4225WAT     H112917   6.551   0.306   5.036
 4225WAT     H212918   6.681   0.329   4.940
 4226WAT      O12919   5.013   8.453   8.216
 4226WAT     H112920   4.939   8.505   8.259
 4226WAT     H212921   5.086   8.515   8.189
 4227WAT      O12922   2.062   7.316   9.409
 4227WAT     H112923   1.970   7.353   9.393
 4227WAT     H212924   2.080   7.243   9.343
 4228WAT      O12925   8.311   3.280   1.530
 4228WAT     H112926   8.237   3.255   1.468
 4228WAT     H212927   8.340   3.374   1.510
 4229WAT      O12928   8.432   5.997   9.823
 4229WAT     H112929   8.412   5.909   9.867
 4229WAT     H212930   8.467   6.061   9.892
 4230WAT      O12931   7.265   2.961   6.887
 4230WAT     H112932   7.347   2.922   6.929
 4230WAT     H212933   7.238   3.043   6.938
 4231WAT      O12934   5.979   2.853   5.054
 4231WAT     H112935   6.074   2.882   5.067
 4231WAT     H212936   5.920   2.903   5.117
 4232WAT      O12937   9.210   4.577   9.327
 4232WAT     H112938   9.204   4.477   9.338
 4232WAT     H212939   9.300   4.601   9.292
 4233WAT      O12940   7.439   2.444   3.684
 4233WAT     H112941   7.429   2.345   3.671
 4233WAT     H212942   7.409   2.468   3.776
 4234WAT      O12943   0.517   9.113   2.289
 4234WAT     H112944   0.512   9.103   2.190
 4234WAT     H212945   0.604   9.077   2.322
 4235WAT      O12946   2.209   8.186   0.322
 4235WAT     H112947   2.303   8.180   0.356
 4235WAT     H212948   2.146   8.157   0.394
 4236WAT      O12949   5.272   8.148   9.674
 4236WAT     H112950   5.311   8.061   9.642
 4236WAT     H212951   5.325   8.181   9.752
 4237WAT      O12952   4.647   2.980   9.524
 4237WAT     H112953   4.610   2.905   9.469
 4237WAT     H212954   4.649   3.064   9.468
 4238WAT      O12955   4.293   2.944   8.793
 4238WAT     H112956   4.297   3.039   8.822
 4238WAT     H212957   4.302   2.884   8.872
 4239WAT      O12958   2.185   5.766   0.277
 4239WAT     H112959   2.205   5.792   0.183
 4239WAT     H212960   2.101   5.711   0.279
 4240WAT      O12961   9.757   7.588   1.197
 4240WAT     H112962   9.725   7.611   1.105
 4240WAT     H212963   9.771   7.489   1.203
 4241WAT      O12964   9.659   9.050   9.681
 4241WAT     H112965   9.700   8.990   9.750
 4241WAT     H212966   9.597   8.997   9.623
 4242WAT      O12967   6.074   2.852   2.621
 4242WAT     H112968   6.051   2.832   2.526
 4242WAT     H212969   5.989   2.866   2.673
 4243WAT      O12970   6.028   4.866   2.899
 4243WAT     H112971   5.998   4.856   2.804
 4243WAT     H212972   6.052   4.961   2.917
 4244WAT      O12973   2.447   2.195   5.814
 4244WAT     H112974   2.467   2.194   5.716
 4244WAT     H212975   2.349   2.185   5.828
 4245WAT      O12976   0.754   4.792   6.742
 4245WAT     H112977   0.787   4.862   6.678
 4245WAT     H212978   0.672   4.825   6.788
 4246WAT      O12979   4.194   9.328   3.185
 4246WAT     H112980   4.251   9.407   3.164
 4246WAT     H212981   4.103   9.342   3.146
 4247WAT      O12982   0.348   7.491   2.611
 4247WAT     H112983   0.289   7.542   2.548
 4247WAT     H212984   0.306   7.402   2.631
 4248WAT      O12985   7.855   0.598   7.588
 4248WAT     H112986   7.846   0.695   7.613
 4248WAT     H212987   7.891   0.592   7.495
 4249WAT      O12988   0.924   9.781   6.242
 4249WAT     H112989   0.984   9.833   6.182
 4249WAT     H212990   0.941   9.806   6.337
 4250WAT      O12991   5.418   2.684   7.327
 4250WAT     H112992   5.357   2.722   7.258
 4250WAT     H212993   5.501   2.649   7.282
 4251WAT      O12994   4.011   1.901   0.997
 4251WAT     H112995   3.919   1.927   1.028
 4251WAT     H212996   4.007   1.874   0.901
 4252WAT      O12997   7.713   3.084   4.775
 4252WAT     H112998   7.754   3.156   4.719
 4252WAT     H212999   7.660   3.022   4.717
 4253WAT      O13000   0.283   9.825   9.097
 4253WAT     H113001   0.302   9.772   9.014
 4253WAT     H213002   0.351   9.898   9.105
 4254WAT      O13003   5.067   9.638   8.091
 4254WAT     H113004   5.130   9.560   8.095
 4254WAT     H213005   5.027   9.645   8.000
 4255WAT      O13006   1.173   9.095   5.970
 4255WAT     H113007   1.261   9.080   6.015
 4255WAT     H213008   1.184   9.165   5.899
 4256WAT      O13009   0.594   6.962   8.921
 4256WAT     H113010   0.647   6.879   8.899
 4256WAT     H213011   0.497   6.945   8.904
 4257WAT      O13012   3.052   0.608   1.303
 4257WAT     H113013   3.044   0.700   1.264
 4257WAT     H213014   2.972   0.554   1.277
 4258WAT      O13015   7.940   1.861   4.813
 4258WAT     H113016   7.879   1.801   4.760
 4258WAT     H213017   8.021   1.810   4.840
 4259WAT      O13018   5.716   1.608   7.191
 4259WAT     H113019   5.736   1.703   7.217
 4259WAT     H213020   5.802   1.557   7.185
 4260WAT      O13021   7.479   6.869   6.038
 4260WAT     H113022   7.440   6.792   6.090
 4260WAT     H213023   7.467   6.953   6.090
 4261WAT      O13024   4.064   3.099   1.902
 4261WAT     H113025   4.022   3.147   1.825
 4261WAT     H213026   4.001   3.099   1.980
 4262WAT      O13027   5.267   5.696   4.064
 4262WAT     H113028   5.297   5.670   4.156
 4262WAT     H213029   5.238   5.792   4.064
 4263WAT      O13030   1.663   2.442   1.679
 4263WAT     H113031   1.576   2.415   1.638
 4263WAT     H213032   1.729   2.466   1.608
 4264WAT      O13033   0.911   9.550   5.141
 4264WAT     H113034   0.946   9.625   5.084
 4264WAT     H213035   0.822   9.520   5.106
 4265WAT      O13036   6.969   9.728   4.599
 4265WAT     H113037   6.980   9.635   4.634
 4265WAT     H213038   7.055   9.777   4.606
 4266WAT      O13039   8.184   7.570   3.991
 4266WAT     H113040   8.196   7.594   3.895
 4266WAT     H213041   8.222   7.479   4.009
 4267WAT      O13042   0.171   9.801   8.488
 4267WAT     H113043   0.252   9.789   8.430
 4267WAT     H213044   0.117   9.878   8.455
 4268WAT      O13045   5.842   7.154   7.899
 4268WAT     H113046   5.856   7.156   7.998
 4268WAT     H213047   5.805   7.065   7.872
 4269WAT      O13048   5.283   1.069   3.645
 4269WAT     H113049   5.251   1.135   3.576
 4269WAT     H213050   5.380   1.049   3.629
 4270WAT      O13051   8.970   7.566   8.145
 4270WAT     H113052   8.897   7.497   8.141
 4270WAT     H213053   8.962   7.626   8.065
 4271WAT      O13054   0.432   7.055   0.830
 4271WAT     H113055   0.342   7.091   0.855
 4271WAT     H213056   0.431   7.029   0.733
 4272WAT      O13057   3.093   5.479   0.168
 4272WAT     H113058   3.043   5.444   0.088
 4272WAT     H213059   3.074   5.422   0.247
 4273WAT      O13060   1.959   0.823   8.804
 4273WAT     H113061   1.912   0.798   8.719
 4273WAT     H213062   1.965   0.742   8.863
 4274WAT      O13063   8.445   2.318   5.598
 4274WAT     H113064   8.366   2.330   5.538
 4274WAT     H213065   8.434   2.234   5.651
 4275WAT      O13066   6.537   0.190   8.499
 4275WAT     H113067   6.442   0.219   8.486
 4275WAT     H213068   6.539   0.103   8.547
 4276WAT      O13069   6.073   5.695   9.872
 4276WAT     H113070   6.095   5.787   9.902
 4276WAT     H213071   6.080   5.689   9.773
 4277WAT      O13072   5.516   3.681   2.552
 4277WAT     H113073   5.542   3.766   2.598
 4277WAT     H213074   5.502   3.698   2.455
 4278WAT      O13075   7.313   8.040   6.046
 4278WAT     H113076   7.265   7.962   6.006
 4278WAT     H213077   7.412   8.026   6.037
 4279WAT      O13078   6.275   9.167   4.990
 4279WAT     H113079   6.182   9.131   4.997
 4279WAT     H213080   6.339   9.104   5.034
 4280WAT      O13081   5.967   3.053   8.112
 4280WAT     H113082   5.928   3.130   8.162
 4280WAT     H213083   5.907   3.029   8.036
 4281WAT      O13084   2.356   6.691   5.596
 4281WAT     H113085   2.357   6.744   5.681
 4281WAT     H213086   2.369   6.753   5.518
 4282WAT      O13087   4.640   7.534   5.318
 4282WAT     H113088   4.675   7.617   5.274
 4282WAT     H213089   4.654   7.541   5.417
 4283WAT      O13090   1.915   1.431   3.826
 4283WAT     H113091   1.819   1.449   3.802
 4283WAT     H213092   1.954   1.511   3.872
 4284WAT      O13093   7.835   3.909   4.889
 4284WAT     H113094   7.896   3.989   4.890
 4284WAT     H213095   7.880   3.834   4.840
 4285WAT      O13096   9.249   8.616   5.019
 4285WAT     H113097   9.227   8.676   4.942
 4285WAT     H213098   9.205   8.527   5.006
 4286WAT      O13099   4.415   1.465   0.921
 4286WAT     H113100   4.317   1.445   0.917
 4286WAT     H213101   4.462   1.393   0.973
 4287WAT      O13102   5.014   1.364   3.140
 4287WAT     H113103   4.993   1.361   3.042
 4287WAT     H213104   5.086   1.432   3.156
 4288WAT      O13105   1.300   2.020   4.567
 4288WAT     H113106   1.247   1.977   4.640
 4288WAT     H213107   1.393   2.036   4.599
 4289WAT      O13108   3.749   0.894   4.056
 4289WAT     H113109   3.714   0.801   4.049
 4289WAT     H213110   3.733   0.929   4.149
 4290WAT      O13111   4.052   9.339   3.585
 4290WAT     H113112   4.100   9.251   3.586
 4290WAT     H213113   4.102   9.404   3.528
 4291WAT      O13114   0.976   3.595   2.214
 4291WAT     H113115   0.887   3.613   2.257
 4291WAT     H213116   0.963   3.541   2.131
 4292WAT      O13117   7.965   5.835   4.904
 4292WAT     H113118   8.005   5.808   4.817
 4292WAT     H213119   7.964   5.755   4.966
 4293WAT      O13120   5.178   1.952   7.025
 4293WAT     H113121   5.101   1.914   6.974
 4293WAT     H213122   5.181   2.051   7.011
 4294WAT      O13123   8.772   1.169   7.205
 4294WAT     H113124   8.790   1.241   7.137
 4294WAT     H213125   8.843   1.098   7.198
 4295WAT      O13126   9.706   6.718   5.937
 4295WAT     H113127   9.787   6.674   5.975
 4295WAT     H213128   9.656   6.652   5.880
 4296WAT      O13129   8.354   8.302   3.277
 4296WAT     H113130   8.375   8.217   3.229
 4296WAT     H213131   8.424   8.369   3.258
 4297WAT      O13132   5.710   8.374   5.211
 4297WAT     H113133   5.773   8.330   5.147
 4297WAT     H213134   5.693   8.468   5.182
 4298WAT      O13135   3.026   0.077   2.121
 4298WAT     H113136   3.049   0.146   2.189
 4298WAT     H213137   3.082   0.091   2.039
 4299WAT      O13138   5.673   3.942   8.809
 4299WAT     H113139   5.743   3.876   8.783
 4299WAT     H213140   5.591   3.892   8.839
 4300WAT      O13141   2.003   1.543   2.903
 4300WAT     H113142   1.962   1.453   2.892
 4300WAT     H213143   1.931   1.611   2.915
 4301WAT      O13144   4.116   1.635   9.404
 4301WAT     H113145   4.021   1.604   9.396
 4301WAT     H213146   4.142   1.637   9.500
 4302WAT      O13147   1.137   1.008   7.850
 4302WAT     H113148   1.230   1.026   7.815
 4302WAT     H213149   1.131   0.913   7.880
 4303WAT      O13150   6.081   6.160   6.754
 4303WAT     H113151   6.127   6.072   6.746
 4303WAT     H213152   5.983   6.149   6.734
 4304WAT      O13153   7.863   3.027   0.229
 4304WAT     H113154   7.781   3.065   0.272
 4304WAT     H213155   7.855   3.032   0.130
 4305WAT      O13156   5.086   4.406   9.155
 4305WAT     H113157   5.075   4.402   9.254
 4305WAT     H213158   5.101   4.501   9.127
 4306WAT      O13159   6.337   8.709   5.049
 4306WAT     H113160   6.348   8.797   5.094
 4306WAT     H213161   6.402   8.702   4.974
 4307WAT      O13162   3.407   0.144   5.208
 4307WAT     H113163   3.312   0.171   5.220
 4307WAT     H213164   3.425   0.132   5.110
 4308WAT      O13165   1.294   8.107   9.483
 4308WAT     H113166   1.378   8.152   9.514
 4308WAT     H213167   1.308   8.069   9.392
 4309WAT      O13168   8.716   7.523   1.137
 4309WAT     H113169   8.769   7.517   1.222
 4309WAT     H213170   8.777   7.510   1.059
 4310WAT      O13171   1.151   7.086   0.605
 4310WAT     H113172   1.177   7.172   0.651
 4310WAT     H213173   1.106   7.107   0.518
 4311WAT      O13174   5.068   3.517   3.973
 4311WAT     H113175   5.063   3.434   4.028
 4311WAT     H213176   5.117   3.498   3.888
 4312WAT      O13177   1.166   1.546   8.084
 4312WAT     H113178   1.163   1.568   8.181
 4312WAT     H213179   1.213   1.619   8.034
 4313WAT      O13180   9.098   0.502   0.338
 4313WAT     H113181   9.071   0.506   0.242
 4313WAT     H213182   9.017   0.484   0.394
 4314WAT      O13183   6.858   8.352   7.999
 4314WAT     H113184   6.858   8.359   8.099
 4314WAT     H213185   6.919   8.279   7.970
 4315WAT      O13186   5.792   1.571   1.891
 4315WAT     H113187   5.773   1.475   1.867
 4315WAT     H213188   5.784   1.628   1.809
 4316WAT      O13189   3.497   4.887   0.135
 4316WAT     H113190   3.508   4.928   0.044
 4316WAT     H213191   3.405   4.906   0.169
 4317WAT      O13192   0.904   3.248   3.349
 4317WAT     H113193   0.907   3.192   3.266
 4317WAT     H213194   0.815   3.293   3.356
 4318WAT      O13195   0.531   9.218   0.737
 4318WAT     H113196   0.624   9.207   0.702
 4318WAT     H213197   0.470   9.248   0.663
 4319WAT      O13198   1.729   6.619   7.187
 4319WAT     H113199   1.745   6.711   7.152
 4319WAT     H213200   1.817   6.574   7.203
 4320WAT      O13201   1.851   4.222   3.563
 4320WAT     H113202   1.853   4.314   3.523
 4320WAT     H213203   1.756   4.198   3.585
 4321WAT      O13204   7.327   7.174   3.141
 4321WAT     H113205   7.243   7.120   3.151
 4321WAT     H213206   7.379   7.171   3.226
 4322WAT      O13207   8.936   2.071   2.097
 4322WAT     H113208   8.846   2.114   2.107
 4322WAT     H213209   9.004   2.141   2.077
 4323WAT      O13210   2.482   8.762   2.295
 4323WAT     H113211   2.387   8.774   2.324
 4323WAT     H213212   2.505   8.665   2.298
 4324WAT      O13213   0.047   3.264   3.960
 4324WAT     H113214  -0.000   3.329   3.901
 4324WAT     H213215   0.126   3.227   3.912
 4325WAT      O13216   4.779   0.261   1.412
 4325WAT     H113217   4.845   0.197   1.452
 4325WAT     H213218   4.776   0.248   1.313
 4326WAT      O13219   7.361   7.670   8.996
 4326WAT     H113220   7.378   7.686   8.899
 4326WAT     H213221   7.354   7.758   9.044
 4327WAT      O13222   7.419   1.881   8.141
 4327WAT     H113223   7.442   1.979   8.135
 4327WAT     H213224   7.446   1.846   8.231
 4328WAT      O13225   9.551   1.202   2.014
 4328WAT     H113226   9.527   1.135   1.944
 4328WAT     H213227   9.604   1.158   2.087
 4329WAT      O13228   5.172   4.151   1.502
 4329WAT     H113229   5.200   4.096   1.423
 4329WAT     H213230   5.209   4.243   1.493
 4330WAT      O13231   1.145   2.773   4.694
 4330WAT     H113232   1.229   2.757   4.745
 4330WAT     H213233   1.156   2.856   4.638
 4331WAT      O13234   6.294   1.910   6.994
 4331WAT     H113235   6.206   1.874   7.026
 4331WAT     H213236   6.288   1.932   6.897
 4332WAT      O13237   5.647   5.888   4.023
 4332WAT     H113238   5.708   5.845   3.957
 4332WAT     H213239   5.595   5.961   3.977
 4333WAT      O13240   9.165   3.457   4.822
 4333WAT     H113241   9.211   3.546   4.818
 4333WAT     H213242   9.117   3.449   4.909
 4334WAT      O13243   3.958   7.255   2.637
 4334WAT     H113244   3.866   7.292   2.650
 4334WAT     H213245   4.016   7.287   2.712
 4335WAT      O13246   6.658   2.296   5.414
 4335WAT     H113247   6.737   2.348   5.447
 4335WAT     H213248   6.632   2.329   5.323
 4336WAT      O13249   8.603   6.983   9.692
 4336WAT     H113250   8.640   6.989   9.785
 4336WAT     H213251   8.639   6.902   9.647
 4337WAT      O13252   7.563   0.367   8.226
 4337WAT     H113253   7.510   0.346   8.308
 4337WAT     H213254   7.647   0.416   8.252
 4338WAT      O13255   3.494   2.851   6.845
 4338WAT     H113256   3.436   2.798   6.784
 4338WAT     H213257   3.578   2.877   6.796
 4339WAT      O13258   3.976   5.966   4.546
 4339WAT     H113259   3.880   5.995   4.545
 4339WAT     H213260   4.034   6.043   4.573
 4340WAT      O13261   5.301   9.079   2.451
 4340WAT     H113262   5.277   9.103   2.545
 4340WAT     H213263   5.333   9.161   2.403
 4341WAT      O13264   5.583   9.127   8.284
 4341WAT     H113265   5.509   9.191   8.304
 4341WAT     H213266   5.601   9.126   8.186
 4342WAT      O13267   4.847   6.741   2.279
 4342WAT     H113268   4.759   6.775   2.247
 4342WAT     H213269   4.889   6.684   2.208
 4343WAT      O13270   3.305   2.331   2.668
 4343WAT     H113271   3.311   2.288   2.577
 4343WAT     H213272   3.252   2.272   2.729
 4344WAT      O13273   5.525   8.438   5.481
 4344WAT     H113274   5.580   8.509   5.435
 4344WAT     H213275   5.453   8.406   5.420
 4345WAT      O13276   8.084   6.311   0.750
 4345WAT     H113277   8.166   6.347   0.705
 4345WAT     H213278   8.110   6.236   0.811
 4346WAT      O13279   7.214   0.037   2.945
 4346WAT     H113280   7.268   0.100   3.001
 4346WAT     H213281   7.127   0.019   2.990
 4347WAT      O13282   2.124   4.792   9.759
 4347WAT     H113283   2.037   4.756   9.793
 4347WAT     H213284   2.169   4.723   9.703
 4348WAT      O13285   7.320   2.560   8.776
 4348WAT     H113286   7.317   2.631   8.845
 4348WAT     H213287   7.412   2.520   8.772
 4349WAT      O13288   1.988   8.557   9.545
 4349WAT     H113289   1.958   8.487   9.480
 4349WAT     H213290   1.914   8.621   9.563
 4350WAT      O13291   1.870   9.449   7.170
 4350WAT     H113292   1.915   9.361   7.153
 4350WAT     H213293   1.820   9.477   7.088
 4351WAT      O13294   9.498   7.100   7.884
 4351WAT     H113295   9.416   7.045   7.902
 4351WAT     H213296   9.569   7.076   7.951
 4352WAT      O13297   8.694   9.291   8.176
 4352WAT     H113298   8.726   9.315   8.268
 4352WAT     H213299   8.769   9.255   8.122
 4353WAT      O13300   3.943   8.531   2.702
 4353WAT     H113301   3.938   8.629   2.722
 4353WAT     H213302   3.858   8.486   2.730
 4354WAT      O13303   7.070   9.007   3.404
 4354WAT     H113304   7.066   8.992   3.503
 4354WAT     H213305   7.162   9.037   3.379
 4355WAT      O13306   9.413   2.683   7.365
 4355WAT     H113307   9.492   2.703   7.423
 4355WAT     H213308   9.415   2.742   7.285
 4356WAT      O13309   1.715   6.516   4.630
 4356WAT     H113310   1.770   6.462   4.693
 4356WAT     H213311   1.754   6.509   4.538
 4357WAT      O13312   9.130   3.730   0.420
 4357WAT     H113313   9.225   3.699   0.422
 4357WAT     H213314   9.074   3.666   0.472
 4358WAT      O13315   7.968   1.331   7.532
 4358WAT     H113316   8.013   1.398   7.591
 4358WAT     H213317   8.007   1.240   7.549
 4359WAT      O13318   6.236   9.524   2.902
 4359WAT     H113319   6.184   9.477   2.831
 4359WAT     H213320   6.233   9.623   2.887
 4360WAT      O13321   4.217   7.339   7.640
 4360WAT     H113322   4.173   7.373   7.723
 4360WAT     H213323   4.189   7.395   7.562
 4361WAT      O13324   5.808   7.429   1.763
 4361WAT     H113325   5.760   7.373   1.696
 4361WAT     H213326   5.854   7.505   1.716
 4362WAT      O13327   8.962   6.276   5.265
 4362WAT     H113328   9.003   6.333   5.336
 4362WAT     H213329   8.938   6.332   5.186
 4363WAT      O13330   4.873   6.414   1.903
 4363WAT     H113331   4.822   6.360   1.835
 4363WAT     H213332   4.952   6.361   1.934
 4364WAT      O13333   5.528   8.930   3.480
 4364WAT     H113334   5.505   8.862   3.410
 4364WAT     H213335   5.444   8.975   3.511
 4365WAT      O13336   0.582   0.398   8.307
 4365WAT     H113337   0.593   0.419   8.210
 4365WAT     H213338   0.610   0.477   8.362
 4366WAT      O13339   4.581   0.344   2.333
 4366WAT     H113340   4.573   0.433   2.378
 4366WAT     H213341   4.500   0.289   2.353
 4367WAT      O13342   1.779   7.709   9.332
 4367WAT     H113343   1.709   7.774   9.304
 4367WAT     H213344   1.869   7.752   9.325
 4368WAT      O13345   6.764   9.229   0.156
 4368WAT     H113346   6.850   9.183   0.134
 4368WAT     H213347   6.703   9.164   0.202
 4369WAT      O13348   5.201   6.674   6.221
 4369WAT     H113349   5.298   6.685   6.243
 4369WAT     H213350   5.177   6.577   6.227
 4370WAT      O13351   8.950   9.611   3.972
 4370WAT     H113352   8.954   9.549   4.051
 4370WAT     H213353   8.896   9.692   3.997
 4371WAT      O13354   6.298   8.675   2.714
 4371WAT     H113355   6.202   8.694   2.735
 4371WAT     H213356   6.304   8.609   2.639
 4372WAT      O13357   4.133   8.996   8.552
 4372WAT     H113358   4.218   9.049   8.552
 4372WAT     H213359   4.153   8.902   8.578
 4373WAT      O13360   7.379   5.526   7.955
 4373WAT     H113361   7.327   5.466   7.894
 4373WAT     H213362   7.406   5.608   7.906
 4374WAT      O13363   5.672   8.354   0.916
 4374WAT     H113364   5.760   8.395   0.892
 4374WAT     H213365   5.598   8.414   0.885
 4375WAT      O13366   0.591   8.423   1.021
 4375WAT     H113367   0.581   8.456   1.114
 4375WAT     H213368   0.505   8.383   0.989
 4376WAT      O13369   2.009   5.124   4.280
 4376WAT     H113370   2.017   5.024   4.269
 4376WAT     H213371   1.948   5.160   4.209
 4377WAT      O13372   3.923   2.212   0.692
 4377WAT     H113373   3.943   2.301   0.732
 4377WAT     H213374   4.001   2.182   0.637
 4378WAT      O13375   8.406   8.656   4.083
 4378WAT     H113376   8.441   8.570   4.046
 4378WAT     H213377   8.480   8.705   4.130
 4379WAT      O13378   7.100   5.923   2.347
 4379WAT     H113379   7.137   6.015   2.357
 4379WAT     H213380   7.129   5.867   2.425
 4380WAT      O13381   4.586   5.152   3.338
 4380WAT     H113382   4.527   5.198   3.272
 4380WAT     H213383   4.569   5.053   3.334
 4381WAT      O13384   7.892   6.151   2.908
 4381WAT     H113385   7.936   6.061   2.910
 4381WAT     H213386   7.959   6.220   2.877
 4382WAT      O13387   2.076   6.943   0.033
 4382WAT     H113388   2.085   6.952  -0.066
 4382WAT     H213389   2.139   6.873   0.067
 4383WAT      O13390   0.490   9.716   8.664
 4383WAT     H113391   0.486   9.800   8.610
 4383WAT     H213392   0.427   9.723   8.741
 4384WAT      O13393   9.065   7.559   7.534
 4384WAT     H113394   8.983   7.555   7.591
 4384WAT     H213395   9.060   7.491   7.461
 4385WAT      O13396   0.978   6.970   2.791
 4385WAT     H113397   0.938   6.966   2.699
 4385WAT     H213398   0.960   7.059   2.833
 4386WAT      O13399   3.014   3.520   2.777
 4386WAT     H113400   3.078   3.473   2.838
 4386WAT     H213401   2.986   3.458   2.704
 4387WAT      O13402   6.296   9.225   8.251
 4387WAT     H113403   6.255   9.312   8.224
 4387WAT     H213404   6.246   9.187   8.329
 4388WAT      O13405   6.323   8.625   1.860
 4388WAT     H113406   6.415   8.599   1.833
 4388WAT     H213407   6.318   8.631   1.960
 4389WAT      O13408   6.967   5.046   2.987
 4389WAT     H113409   6.905   5.124   3.001
 4389WAT     H213410   6.963   4.986   3.066
 4390WAT      O13411   8.963   5.424   0.902
 4390WAT     H113412   8.930   5.339   0.862
 4390WAT     H213413   8.886   5.487   0.916
 4391WAT      O13414   8.677   9.703   9.019
 4391WAT     H113415   8.591   9.685   9.068
 4391WAT     H213416   8.740   9.628   9.035
 4392WAT      O13417   1.881   2.169   3.895
 4392WAT     H113418   1.805   2.164   3.831
 4392WAT     H213419   1.904   2.264   3.913
 4393WAT      O13420   7.551   2.909   4.642
 4393WAT     H113421   7.575   2.853   4.722
 4393WAT     H213422   7.458   2.888   4.613
 4394WAT      O13423   2.307   1.376   5.079
 4394WAT     H113424   2.261   1.383   4.991
 4394WAT     H213425   2.405   1.364   5.065
 4395WAT      O13426   1.217   3.311   7.284
 4395WAT     H113427   1.256   3.271   7.367
 4395WAT     H213428   1.120   3.330   7.300
 4396WAT      O13429   9.808   6.399   1.024
 4396WAT     H113430   9.767   6.371   0.937
 4396WAT     H213431   9.903   6.425   1.010
 4397WAT      O13432   3.967   5.601   2.005
 4397WAT     H113433   3.876   5.635   2.028
 4397WAT     H213434   3.960   5.532   1.933
 4398WAT      O13435   5.816   3.756   9.049
 4398WAT     H113436   5.826   3.795   8.958
 4398WAT     H213437   5.838   3.659   9.046
 4399WAT      O13438   0.063   2.036   7.261
 4399WAT     H113439   0.147   2.088   7.248
 4399WAT     H213440  -0.012   2.081   7.212
 4400WAT      O13441   8.488   7.603   2.507
 4400WAT     H113442   8.537   7.687   2.529
 4400WAT     H213443   8.553   7.534   2.476
 4401WAT      O13444   7.928   7.521   2.894
 4401WAT     H113445   7.841   7.486   2.860
 4401WAT     H213446   7.997   7.448   2.892
 4402WAT      O13447   3.688   3.834   0.521
 4402WAT     H113448   3.640   3.792   0.598
 4402WAT     H213449   3.632   3.826   0.439
 4403WAT      O13450   5.555   7.540   9.208
 4403WAT     H113451   5.652   7.517   9.197
 4403WAT     H213452   5.516   7.561   9.118
 4404WAT      O13453   0.281   3.580   7.486
 4404WAT     H113454   0.265   3.673   7.454
 4404WAT     H213455   0.251   3.571   7.581
 4405WAT      O13456   1.131   9.247   3.992
 4405WAT     H113457   1.103   9.162   4.036
 4405WAT     H213458   1.098   9.248   3.897
 4406WAT      O13459   0.991   0.156   7.822
 4406WAT     H113460   0.903   0.188   7.856
 4406WAT     H213461   1.060   0.227   7.836
 4407WAT      O13462   8.198   2.578   8.656
 4407WAT     H113463   8.265   2.504   8.667
 4407WAT     H213464   8.121   2.544   8.602
 4408WAT      O13465   8.607   5.112   7.708
 4408WAT     H113466   8.684   5.172   7.731
 4408WAT     H213467   8.522   5.163   7.713
 4409WAT      O13468   0.046   0.191   2.930
 4409WAT     H113469   0.113   0.265   2.930
 4409WAT     H213470   0.089   0.108   2.894
 4410WAT      O13471   0.173   9.388   5.491
 4410WAT     H113472   0.166   9.480   5.529
 4410WAT     H213473   0.085   9.341   5.501
 4411WAT      O13474   7.230   7.011   9.401
 4411WAT     H113475   7.189   7.102   9.404
 4411WAT     H213476   7.230   6.972   9.493
 4412WAT      O13477   1.314   2.908   5.330
 4412WAT     H113478   1.217   2.881   5.334
 4412WAT     H213479   1.332   2.976   5.401
 4413WAT      O13480   8.848   5.293   1.575
 4413WAT     H113481   8.798   5.230   1.635
 4413WAT     H213482   8.880   5.371   1.628
 4414WAT      O13483   4.622   4.731   3.060
 4414WAT     H113484   4.569   4.660   3.105
 4414WAT     H213485   4.675   4.691   2.985
 4415WAT      O13486   1.420   7.291   7.407
 4415WAT     H113487   1.432   7.205   7.357
 4415WAT     H213488   1.386   7.271   7.499
 4416WAT      O13489   8.062   0.825   6.954
 4416WAT     H113490   8.031   0.843   6.861
 4416WAT     H213491   8.076   0.912   7.002
 4417WAT      O13492   7.760   3.194   5.021
 4417WAT     H113493   7.669   3.221   5.052
 4417WAT     H213494   7.757   3.167   4.925
 4418WAT      O13495   1.705   2.562   5.369
 4418WAT     H113496   1.730   2.504   5.292
 4418WAT     H213497   1.743   2.654   5.356
 4419WAT      O13498   8.652   8.791   1.889
 4419WAT     H113499   8.604   8.762   1.806
 4419WAT     H213500   8.705   8.714   1.925
 4420WAT      O13501   2.079   5.149   8.338
 4420WAT     H113502   2.166   5.178   8.376
 4420WAT     H213503   2.092   5.069   8.279
 4421WAT      O13504   8.576   0.839   0.865
 4421WAT     H113505   8.595   0.881   0.955
 4421WAT     H213506   8.515   0.761   0.877
 4422WAT      O13507   2.747   4.701   9.668
 4422WAT     H113508   2.704   4.785   9.702
 4422WAT     H213509   2.768   4.711   9.571
 4423WAT      O13510   6.685   6.136   5.058
 4423WAT     H113511   6.718   6.104   4.969
 4423WAT     H213512   6.598   6.091   5.079
 4424WAT      O13513   0.982   8.287   1.544
 4424WAT     H113514   0.985   8.197   1.501
 4424WAT     H213515   0.915   8.344   1.496
 4425WAT      O13516   1.923   0.307   3.171
 4425WAT     H113517   1.902   0.217   3.133
 4425WAT     H213518   1.855   0.331   3.240
 4426WAT      O13519   5.625   5.282   9.783
 4426WAT     H113520   5.600   5.313   9.692
 4426WAT     H213521   5.583   5.194   9.801
 4427WAT      O13522   8.549   7.292   2.885
 4427WAT     H113523   8.615   7.351   2.839
 4427WAT     H213524   8.463   7.290   2.833
 4428WAT      O13525   2.428   0.671   6.323
 4428WAT     H113526   2.479   0.585   6.333
 4428WAT     H213527   2.466   0.724   6.248
 4429WAT      O13528   2.592   4.980   9.167
 4429WAT     H113529   2.512   4.988   9.108
 4429WAT     H213530   2.634   4.890   9.155
 4430WAT      O13531   9.839   1.189   4.256
 4430WAT     H113532   9.928   1.175   4.213
 4430WAT     H213533   9.829   1.285   4.281
 4431WAT      O13534   9.480   8.846   4.472
 4431WAT     H113535   9.482   8.749   4.497
 4431WAT     H213536   9.469   8.901   4.554
 4432WAT      O13537   4.396   5.927   9.146
 4432WAT     H113538   4.491   5.896   9.144
 4432WAT     H213539   4.391   6.018   9.186
 4433WAT      O13540   5.481   4.473   1.800
 4433WAT     H113541   5.562   4.425   1.834
 4433WAT     H213542   5.399   4.422   1.825
 4434WAT      O13543   3.233   2.701   9.485
 4434WAT     H113544   3.167   2.733   9.553
 4434WAT     H213545   3.325   2.727   9.513
 4435WAT      O13546   0.667   5.697   4.001
 4435WAT     H113547   0.595   5.644   4.045
 4435WAT     H213548   0.630   5.742   3.920
 4436WAT      O13549   1.446   0.719   5.491
 4436WAT     H113550   1.473   0.624   5.476
 4436WAT     H213551   1.381   0.724   5.567
 4437WAT      O13552   1.207   6.104   1.311
 4437WAT     H113553   1.201   6.197   1.276
 4437WAT     H213554   1.134   6.048   1.272
 4438WAT      O13555   4.702   4.760   1.350
 4438WAT     H113556   4.638   4.821   1.397
 4438WAT     H213557   4.772   4.815   1.304
 4439WAT      O13558   2.790   5.486   9.151
 4439WAT     H113559   2.842   5.447   9.076
 4439WAT     H213560   2.698   5.446   9.154
 4440WAT      O13561   0.332   7.465   5.769
 4440WAT     H113562   0.313   7.563   5.769
 4440WAT     H213563   0.284   7.422   5.693
 4441WAT      O13564   5.541   8.382   3.246
 4441WAT     H113565   5.603   8.330   3.305
 4441WAT     H213566   5.498   8.455   3.299
 4442WAT      O13567   8.370   5.485   0.705
 4442WAT     H113568   8.336   5.574   0.737
 4442WAT     H213569   8.415   5.438   0.781
 4443WAT      O13570   3.609   9.084   9.727
 4443WAT     H113571   3.531   9.145   9.738
 4443WAT     H213572   3.678   9.104   9.797
 4444WAT      O13573   5.041   8.372   4.430
 4444WAT     H113574   4.947   8.340   4.437
 4444WAT     H213575   5.097   8.300   4.388
 4445WAT      O13576   4.380   0.222   5.172
 4445WAT     H113577   4.293   0.193   5.213
 4445WAT     H213578   4.388   0.321   5.176
 4446WAT      O13579   3.967   9.004   9.760
 4446WAT     H113580   3.907   9.053   9.822
 4446WAT     H213581   4.058   9.046   9.760
 4447WAT      O13582   9.052   2.577   4.249
 4447WAT     H113583   9.017   2.498   4.299
 4447WAT     H213584   8.998   2.590   4.166
 4448WAT      O13585   9.277   1.916   9.389
 4448WAT     H113586   9.313   1.859   9.463
 4448WAT     H213587   9.177   1.913   9.390
 4449WAT      O13588   7.902   9.086   8.379
 4449WAT     H113589   7.915   8.987   8.366
 4449WAT     H213590   7.944   9.114   8.465
 4450WAT      O13591   7.365   8.531   5.804
 4450WAT     H113592   7.444   8.586   5.777
 4450WAT     H213593   7.390   8.434   5.802
 4451WAT      O13594   8.168   8.986   7.693
 4451WAT     H113595   8.092   8.929   7.724
 4451WAT     H213596   8.164   8.996   7.594
 4452WAT      O13597   1.797   2.060   5.345
 4452WAT     H113598   1.763   2.002   5.272
 4452WAT     H213599   1.892   2.085   5.327
 4453WAT      O13600   6.620   3.689   9.013
 4453WAT     H113601   6.706   3.679   8.962
 4453WAT     H213602   6.634   3.660   9.108
 4454WAT      O13603   3.602   0.427   8.352
 4454WAT     H113604   3.642   0.506   8.305
 4454WAT     H213605   3.613   0.438   8.451
 4455WAT      O13606   9.328   1.519   8.272
 4455WAT     H113607   9.273   1.525   8.355
 4455WAT     H213608   9.361   1.425   8.261
 4456WAT      O13609   7.565   0.878   9.239
 4456WAT     H113610   7.516   0.947   9.186
 4456WAT     H213611   7.660   0.873   9.207
 4457WAT      O13612   0.369   5.259   8.575
 4457WAT     H113613   0.358   5.218   8.484
 4457WAT     H213614   0.289   5.314   8.597
 4458WAT      O13615   4.175   7.235   1.577
 4458WAT     H113616   4.148   7.145   1.611
 4458WAT     H213617   4.211   7.227   1.484
 4459WAT      O13618   3.818   9.234   8.503
 4459WAT     H113619   3.878   9.306   8.535
 4459WAT     H213620   3.842   9.147   8.547
 4460WAT      O13621   4.389   4.855   6.508
 4460WAT     H113622   4.460   4.917   6.542
 4460WAT     H213623   4.304   4.906   6.495
 4461WAT      O13624   0.526   0.661   9.538
 4461WAT     H113625   0.510   0.716   9.620
 4461WAT     H213626   0.496   0.712   9.457
 4462WAT      O13627   4.503   1.543   7.329
 4462WAT     H113628   4.408   1.549   7.300
 4462WAT     H213629   4.543   1.635   7.333
 4463WAT      O13630   4.022   5.869   3.058
 4463WAT     H113631   4.064   5.958   3.042
 4463WAT     H213632   4.012   5.821   2.971
 4464WAT      O13633   8.340   7.559   6.875
 4464WAT     H113634   8.360   7.472   6.831
 4464WAT     H213635   8.413   7.624   6.857
 4465WAT      O13636   2.471   7.629   0.260
 4465WAT     H113637   2.428   7.596   0.176
 4465WAT     H213638   2.438   7.576   0.337
 4466WAT      O13639   8.217   3.960   0.561
 4466WAT     H113640   8.180   3.884   0.614
 4466WAT     H213641   8.204   4.045   0.612
 4467WAT      O13642   2.569   2.664   9.234
 4467WAT     H113643   2.586   2.657   9.332
 4467WAT     H213644   2.655   2.672   9.185
 4468WAT      O13645   7.664   6.994   2.589
 4468WAT     H113646   7.663   6.908   2.640
 4468WAT     H213647   7.624   6.979   2.498
 4469WAT      O13648   4.526   0.510   8.135
 4469WAT     H113649   4.496   0.600   8.104
 4469WAT     H213650   4.459   0.441   8.106
 4470WAT      O13651   7.778   1.197   3.892
 4470WAT     H113652   7.822   1.116   3.852
 4470WAT     H213653   7.788   1.274   3.830
 4471WAT      O13654   1.040   6.168   1.518
 4471WAT     H113655   1.073   6.105   1.589
 4471WAT     H213656   1.091   6.151   1.433
 4472WAT      O13657   0.707   0.035   4.532
 4472WAT     H113658   0.653   0.016   4.614
 4472WAT     H213659   0.686  -0.033   4.462
 4473WAT      O13660   2.058   2.983   0.121
 4473WAT     H113661   1.983   2.970   0.186
 4473WAT     H213662   2.136   2.928   0.148
 4474WAT      O13663   5.239   3.913   4.879
 4474WAT     H113664   5.195   3.979   4.818
 4474WAT     H213665   5.264   3.959   4.964
 4475WAT      O13666   9.403   5.044   5.985
 4475WAT     H113667   9.386   5.131   5.938
 4475WAT     H213668   9.500   5.020   5.975
 4476WAT      O13669   0.011   4.690   4.738
 4476WAT     H113670  -0.050   4.629   4.789
 4476WAT     H213671   0.019   4.659   4.644
 4477WAT      O13672   4.046   2.197   2.818
 4477WAT     H113673   4.115   2.141   2.772
 4477WAT     H213674   3.967   2.208   2.757
 4478WAT      O13675   9.033   5.165   2.802
 4478WAT     H113676   9.042   5.229   2.878
 4478WAT     H213677   8.955   5.105   2.818
 4479WAT      O13678   6.357   8.204   0.581
 4479WAT     H113679   6.442   8.180   0.535
 4479WAT     H213680   6.308   8.121   0.607
 4480WAT      O13681   8.189   0.997   0.778
 4480WAT     H113682   8.094   0.966   0.776
 4480WAT     H213683   8.244   0.941   0.716
 4481WAT      O13684   4.253   3.039   2.465
 4481WAT     H113685   4.244   2.944   2.433
 4481WAT     H213686   4.165   3.086   2.454
 4482WAT      O13687   4.370   0.834   0.100
 4482WAT     H113688   4.320   0.857   0.184
 4482WAT     H213689   4.405   0.917   0.059
 4483WAT      O13690   6.369   1.128   1.834
 4483WAT     H113691   6.327   1.046   1.873
 4483WAT     H213692   6.441   1.102   1.770
 4484WAT      O13693   4.010   7.553   9.559
 4484WAT     H113694   4.103   7.517   9.560
 4484WAT     H213695   3.964   7.526   9.474
 4485WAT      O13696   3.127   4.489   3.444
 4485WAT     H113697   3.204   4.453   3.390
 4485WAT     H213698   3.048   4.429   3.434
 4486WAT      O13699   1.579   8.899   0.339
 4486WAT     H113700   1.578   8.799   0.342
 4486WAT     H213701   1.507   8.935   0.400
 4487WAT      O13702   6.898   4.025   2.412
 4487WAT     H113703   6.992   4.044   2.382
 4487WAT     H213704   6.881   4.071   2.499
 4488WAT      O13705   4.501   5.179   5.812
 4488WAT     H113706   4.564   5.254   5.793
 4488WAT     H213707   4.459   5.148   5.727
 4489WAT      O13708   2.920   7.243   7.736
 4489WAT     H113709   2.822   7.250   7.715
 4489WAT     H213710   2.966   7.327   7.707
 4490WAT      O13711   3.315   5.876   7.439
 4490WAT     H113712   3.322   5.945   7.511
 4490WAT     H213713   3.315   5.785   7.480
 4491WAT      O13714   3.507   6.874   8.399
 4491WAT     H113715   3.499   6.793   8.457
 4491WAT     H213716   3.496   6.847   8.303
 4492WAT      O13717   9.133   7.250   6.448
 4492WAT     H113718   9.124   7.165   6.396
 4492WAT     H213719   9.195   7.311   6.399
 4493WAT      O13720   5.062   8.814   1.651
 4493WAT     H113721   5.043   8.769   1.564
 4493WAT     H213722   5.062   8.747   1.724
 4494WAT      O13723   0.378   1.179   5.049
 4494WAT     H113724   0.325   1.128   5.116
 4494WAT     H213725   0.448   1.119   5.009
 4495WAT      O13726   6.716   2.872   9.014
 4495WAT     H113727   6.703   2.929   8.933
 4495WAT     H213728   6.787   2.804   8.996
 4496WAT      O13729   0.760   7.285   4.426
 4496WAT     H113730   0.662   7.303   4.420
 4496WAT     H213731   0.776   7.216   4.498
 4497WAT      O13732   1.493   8.286   3.983
 4497WAT     H113733   1.585   8.249   3.997
 4497WAT     H213734   1.486   8.375   4.028
 4498WAT      O13735   4.863   2.339   3.121
 4498WAT     H113736   4.784   2.333   3.182
 4498WAT     H213737   4.845   2.408   3.050
 4499WAT      O13738   1.607   9.292   4.619
 4499WAT     H113739   1.540   9.218   4.631
 4499WAT     H213740   1.636   9.296   4.524
 4500WAT      O13741   8.242   7.689   9.629
 4500WAT     H113742   8.263   7.749   9.551
 4500WAT     H213743   8.254   7.740   9.714
 4501WAT      O13744   6.213   9.669   3.654
 4501WAT     H113745   6.201   9.713   3.742
 4501WAT     H213746   6.278   9.593   3.662
 4502WAT      O13747   1.273   4.232   6.696
 4502WAT     H113748   1.363   4.195   6.677
 4502WAT     H213749   1.213   4.215   6.617
 4503WAT      O13750   3.824   1.427   7.214
 4503WAT     H113751   3.864   1.430   7.306
 4503WAT     H213752   3.890   1.463   7.148
 4504WAT      O13753   7.836   1.254   0.009
 4504WAT     H113754   7.838   1.353  -0.007
 4504WAT     H213755   7.742   1.226   0.032
 4505WAT      O13756   5.916   3.085   2.376
 4505WAT     H113757   5.990   3.021   2.399
 4505WAT     H213758   5.837   3.067   2.434
 4506WAT      O13759   4.754   2.792   9.696
 4506WAT     H113760   4.686   2.722   9.718
 4506WAT     H213761   4.717   2.852   9.624
 4507WAT      O13762   5.442   5.346   4.354
 4507WAT     H113763   5.407   5.440   4.351
 4507WAT     H213764   5.503   5.336   4.433
 4508WAT      O13765   6.175   2.683   8.691
 4508WAT     H113766   6.162   2.589   8.661
 4508WAT     H213767   6.104   2.741   8.652
 4509WAT      O13768   2.207   9.000   5.529
 4509WAT     H113769   2.197   8.913   5.577
 4509WAT     H213770   2.173   8.989   5.435
 4510WAT      O13771   6.379   9.073   9.786
 4510WAT     H113772   6.294   9.026   9.762
 4510WAT     H213773   6.397   9.061   9.883
 4511WAT      O13774   7.846   7.136   5.359
 4511WAT     H113775   7.752   7.105   5.348
 4511WAT     H213776   7.902   7.061   5.394
 4512WAT      O13777   6.387   9.548   1.111
 4512WAT     H113778   6.461   9.577   1.172
 4512WAT     H213779   6.308   9.520   1.166
 4513WAT      O13780   0.880   3.067   4.385
 4513WAT     H113781   0.941   3.014   4.327
 4513WAT     H213782   0.931   3.101   4.465
 4514WAT      O13783   7.542   3.882   4.284
 4514WAT     H113784   7.598   3.889   4.367
 4514WAT     H213785   7.502   3.790   4.279
 4515WAT      O13786   5.635   7.471   6.380
 4515WAT     H113787   5.576   7.423   6.445
 4515WAT     H213788   5.580   7.524   6.316
 4516WAT      O13789   2.276   9.380   7.444
 4516WAT     H113790   2.244   9.289   7.418
 4516WAT     H213791   2.237   9.448   7.381
 4517WAT      O13792   0.346   0.838   0.705
 4517WAT     H113793   0.352   0.917   0.765
 4517WAT     H213794   0.289   0.860   0.626
 4518WAT      O13795   5.456   6.609   5.889
 4518WAT     H113796   5.434   6.706   5.884
 4518WAT     H213797   5.396   6.565   5.956
 4519WAT      O13798   3.803   9.236   0.902
 4519WAT     H113799   3.781   9.332   0.888
 4519WAT     H213800   3.760   9.180   0.832
 4520WAT      O13801   8.623   2.016   8.240
 4520WAT     H113802   8.543   1.963   8.213
 4520WAT     H213803   8.698   1.999   8.176
 4521WAT      O13804   5.453   7.221   4.934
 4521WAT     H113805   5.420   7.209   4.841
 4521WAT     H213806   5.392   7.173   4.998
 4522WAT      O13807   9.381   4.866   3.021
 4522WAT     H113808   9.344   4.959   3.028
 4522WAT     H213809   9.450   4.852   3.092
 4523WAT      O13810   6.133   6.246   4.707
 4523WAT     H113811   6.142   6.155   4.749
 4523WAT     H213812   6.204   6.258   4.638
 4524WAT      O13813   3.270   2.609   2.677
 4524WAT     H113814   3.288   2.511   2.678
 4524WAT     H213815   3.194   2.630   2.738
 4525WAT      O13816   8.419   9.784   5.888
 4525WAT     H113817   8.345   9.719   5.906
 4525WAT     H213818   8.481   9.786   5.966
 4526WAT      O13819   3.899   2.165   7.452
 4526WAT     H113820   3.819   2.161   7.392
 4526WAT     H213821   3.975   2.208   7.403
 4527WAT      O13822   8.497   0.983   3.434
 4527WAT     H113823   8.585   0.946   3.462
 4527WAT     H213824   8.502   1.083   3.429
 4528WAT      O13825   5.237   7.391   2.047
 4528WAT     H113826   5.284   7.380   1.959
 4528WAT     H213827   5.138   7.395   2.031
 4529WAT      O13828   6.206   0.556   7.241
 4529WAT     H113829   6.134   0.506   7.290
 4529WAT     H213830   6.270   0.490   7.201
 4530WAT      O13831   5.654   3.046   5.049
 4530WAT     H113832   5.574   2.991   5.024
 4530WAT     H213833   5.627   3.142   5.056
 4531WAT      O13834   1.121   0.273   8.363
 4531WAT     H113835   1.194   0.276   8.432
 4531WAT     H213836   1.035   0.304   8.404
 4532WAT      O13837   3.902   6.665   8.913
 4532WAT     H113838   3.950   6.578   8.925
 4532WAT     H213839   3.809   6.648   8.881
 4533WAT      O13840   6.942   7.309   1.672
 4533WAT     H113841   6.870   7.300   1.741
 4533WAT     H213842   6.922   7.388   1.614
 4534WAT      O13843   2.469   6.079   5.231
 4534WAT     H113844   2.516   6.142   5.294
 4534WAT     H213845   2.534   6.045   5.163
 4535WAT      O13846   7.660   1.800   0.217
 4535WAT     H113847   7.731   1.731   0.203
 4535WAT     H213848   7.698   1.891   0.202
 4536WAT      O13849   8.795   7.967   7.051
 4536WAT     H113850   8.885   7.999   7.022
 4536WAT     H213851   8.807   7.887   7.111
 4537WAT      O13852   1.946   6.592   1.706
 4537WAT     H113853   1.964   6.495   1.726
 4537WAT     H213854   2.030   6.635   1.672
 4538WAT      O13855   9.335   5.523   9.350
 4538WAT     H113856   9.401   5.448   9.341
 4538WAT     H213857   9.371   5.603   9.302
 4539WAT      O13858   1.319   6.316   2.610
 4539WAT     H113859   1.267   6.268   2.681
 4539WAT     H213860   1.386   6.377   2.654
 4540WAT      O13861   5.107   6.889   4.518
 4540WAT     H113862   5.072   6.982   4.534
 4540WAT     H213863   5.204   6.894   4.495
 4541WAT      O13864   5.514   3.682   4.385
 4541WAT     H113865   5.498   3.611   4.454
 4541WAT     H213866   5.445   3.753   4.393
 4542WAT      O13867   4.811   2.666   4.798
 4542WAT     H113868   4.831   2.758   4.767
 4542WAT     H213869   4.772   2.613   4.723
 4543WAT      O13870   7.680   5.903   4.758
 4543WAT     H113871   7.728   5.918   4.845
 4543WAT     H213872   7.709   5.815   4.719
 4544WAT      O13873   0.998   0.374   4.161
 4544WAT     H113874   0.969   0.279   4.166
 4544WAT     H213875   1.007   0.402   4.065
 4545WAT      O13876   7.711   8.818   9.732
 4545WAT     H113877   7.728   8.760   9.652
 4545WAT     H213878   7.701   8.761   9.813
 4546WAT      O13879   3.794   5.014   7.135
 4546WAT     H113880   3.847   4.929   7.129
 4546WAT     H213881   3.699   4.997   7.109
 4547WAT      O13882   5.434   0.332   2.504
 4547WAT     H113883   5.464   0.246   2.462
 4547WAT     H213884   5.475   0.341   2.595
 4548WAT      O13885   1.231   4.687   1.860
 4548WAT     H113886   1.283   4.772   1.845
 4548WAT     H213887   1.189   4.689   1.951
 4549WAT      O13888   6.446   1.311   5.103
 4549WAT     H113889   6.525   1.298   5.042
 4549WAT     H213890   6.455   1.251   5.182
 4550WAT      O13891   9.704   5.870   2.516
 4550WAT     H113892   9.795   5.896   2.551
 4550WAT     H213893   9.651   5.829   2.590
 4551WAT      O13894   1.694   0.345   1.539
 4551WAT     H113895   1.658   0.414   1.477
 4551WAT     H213896   1.762   0.289   1.492
 4552WAT      O13897   0.651   9.698   6.165
 4552WAT     H113898   0.653   9.598   6.172
 4552WAT     H213899   0.742   9.735   6.183
 4553WAT      O13900   7.706   2.635   7.193
 4553WAT     H113901   7.610   2.611   7.182
 4553WAT     H213902   7.722   2.727   7.157
 4554WAT      O13903   2.920   5.352   5.831
 4554WAT     H113904   2.903   5.339   5.928
 4554WAT     H213905   2.852   5.415   5.793
 4555WAT      O13906   9.556   7.686   8.703
 4555WAT     H113907   9.505   7.633   8.771
 4555WAT     H213908   9.568   7.632   8.620
 4556WAT      O13909   1.051   5.503   6.857
 4556WAT     H113910   1.023   5.578   6.918
 4556WAT     H213911   1.098   5.432   6.910
 4557WAT      O13912   5.945   8.663   0.366
 4557WAT     H113913   5.855   8.674   0.407
 4557WAT     H213914   5.958   8.732   0.294
 4558WAT      O13915   6.549   4.458   7.183
 4558WAT     H113916   6.457   4.442   7.219
 4558WAT     H213917   6.562   4.404   7.100
 4559WAT      O13918   5.027   9.555   0.594
 4559WAT     H113919   4.987   9.565   0.503
 4559WAT     H213920   5.026   9.459   0.621
 4560WAT      O13921   0.322   5.627   9.734
 4560WAT     H113922   0.321   5.662   9.641
 4560WAT     H213923   0.239   5.654   9.781
 4561WAT      O13924   2.659   4.454   9.789
 4561WAT     H113925   2.723   4.402   9.732
 4561WAT     H213926   2.671   4.552   9.771
 4562WAT      O13927   4.172   0.137   9.890
 4562WAT     H113928   4.223   0.152   9.805
 4562WAT     H213929   4.213   0.061   9.940
 4563WAT      O13930   6.148   5.937   0.671
 4563WAT     H113931   6.214   5.997   0.625
 4563WAT     H213932   6.193   5.850   0.692
 4564WAT      O13933   1.222   5.774   8.045
 4564WAT     H113934   1.227   5.693   7.986
 4564WAT     H213935   1.243   5.748   8.139
 4565WAT      O13936   2.639   7.350   5.442
 4565WAT     H113937   2.722   7.369   5.390
 4565WAT     H213938   2.573   7.424   5.428
 4566WAT      O13939   6.934   2.584   9.225
 4566WAT     H113940   6.950   2.637   9.141
 4566WAT     H213941   6.906   2.491   9.200
 4567WAT      O13942   6.029   8.799   2.039
 4567WAT     H113943   6.012   8.719   2.097
 4567WAT     H213944   5.944   8.824   1.991
 4568WAT      O13945   8.283   8.565   1.901
 4568WAT     H113946   8.293   8.655   1.858
 4568WAT     H213947   8.365   8.543   1.953
 4569WAT      O13948   3.718   1.870   6.014
 4569WAT     H113949   3.727   1.774   5.989
 4569WAT     H213950   3.670   1.920   5.941
 4570WAT      O13951   6.764   5.395   7.134
 4570WAT     H113952   6.858   5.382   7.102
 4570WAT     H213953   6.756   5.357   7.227
 4571WAT      O13954   7.944   8.329   8.818
 4571WAT     H113955   8.040   8.355   8.830
 4571WAT     H213956   7.938   8.234   8.790
 4572WAT      O13957   3.263   6.232   0.491
 4572WAT     H113958   3.270   6.187   0.402
 4572WAT     H213959   3.329   6.306   0.497
 4573WAT      O13960   9.271   9.714   7.959
 4573WAT     H113961   9.182   9.722   7.914
 4573WAT     H213962   9.257   9.702   8.057
 4574WAT      O13963   9.648   8.788   8.742
 4574WAT     H113964   9.671   8.809   8.647
 4574WAT     H213965   9.553   8.758   8.748
 4575WAT      O13966   0.563   5.493   7.399
 4575WAT     H113967   0.529   5.511   7.306
 4575WAT     H213968   0.485   5.471   7.459
 4576WAT      O13969   8.066   2.617   2.957
 4576WAT     H113970   8.044   2.649   2.865
 4576WAT     H213971   8.050   2.518   2.962
 4577WAT      O13972   4.688   8.904   3.569
 4577WAT     H113973   4.784   8.877   3.571
 4577WAT     H213974   4.660   8.921   3.475
 4578WAT      O13975   4.460   6.643   8.653
 4578WAT     H113976   4.373   6.637   8.700
 4578WAT     H213977   4.477   6.558   8.603
 4579WAT      O13978   3.581   3.243   2.670
 4579WAT     H113979   3.656   3.179   2.683
 4579WAT     H213980   3.612   3.321   2.615
 4580WAT      O13981   0.671   1.166   7.260
 4580WAT     H113982   0.723   1.082   7.244
 4580WAT     H213983   0.672   1.222   7.176
 4581WAT      O13984   6.167   3.717   0.470
 4581WAT     H113985   6.236   3.790   0.472
 4581WAT     H213986   6.205   3.638   0.422
 4582WAT      O13987   0.235   7.010   2.029
 4582WAT     H113988   0.264   7.079   2.095
 4582WAT     H213989   0.252   6.919   2.066
 4583WAT      O13990   7.013   5.285   1.344
 4583WAT     H113991   7.041   5.315   1.435
 4583WAT     H213992   6.984   5.364   1.290
 4584WAT      O13993   4.700   9.760   3.004
 4584WAT     H113994   4.666   9.680   3.051
 4584WAT     H213995   4.764   9.732   2.933
 4585WAT      O13996   4.545   5.481   4.719
 4585WAT     H113997   4.621   5.538   4.687
 4585WAT     H213998   4.506   5.521   4.801
 4586WAT      O13999   8.308   5.075   8.750
 4586WAT     H114000   8.352   5.155   8.791
 4586WAT     H214001   8.298   5.088   8.652
 4587WAT      O14002   6.991   3.941   3.880
 4587WAT     H114003   7.028   3.849   3.871
 4587WAT     H214004   6.930   3.961   3.803
 4588WAT      O14005   6.570   8.541   1.376
 4588WAT     H114006   6.503   8.498   1.436
 4588WAT     H214007   6.533   8.549   1.283
 4589WAT      O14008   5.609   2.639   5.978
 4589WAT     H114009   5.574   2.702   5.908
 4589WAT     H214010   5.567   2.549   5.965
 4590WAT      O14011   9.372   1.063   7.363
 4590WAT     H114012   9.412   1.129   7.299
 4590WAT     H214013   9.438   1.045   7.436
 4591WAT      O14014   2.733   8.465   1.050
 4591WAT     H114015   2.708   8.432   0.959
 4591WAT     H214016   2.777   8.554   1.043
 4592WAT      O14017   9.141   3.479   8.607
 4592WAT     H114018   9.060   3.521   8.648
 4592WAT     H214019   9.206   3.453   8.678
 4593WAT      O14020   1.709   9.590   1.938
 4593WAT     H114021   1.794   9.537   1.945
 4593WAT     H214022   1.642   9.538   1.885
 4594WAT      O14023   6.651   4.511   9.264
 4594WAT     H114024   6.574   4.491   9.203
 4594WAT     H214025   6.735   4.516   9.212
 4595WAT      O14026   2.142   2.658   4.472
 4595WAT     H114027   2.213   2.589   4.485
 4595WAT     H214028   2.169   2.720   4.398
 4596WAT      O14029   5.594   6.825   9.042
 4596WAT     H114030   5.664   6.756   9.061
 4596WAT     H214031   5.511   6.779   9.010
 4597WAT      O14032   7.658   3.268   5.661
 4597WAT     H114033   7.736   3.317   5.620
 4597WAT     H214034   7.590   3.250   5.591
 4598WAT      O14035   7.274   0.889   2.276
 4598WAT     H114036   7.336   0.922   2.347
 4598WAT     H214037   7.324   0.831   2.212
 4599WAT      O14038   6.156   0.030   8.609
 4599WAT     H114039   6.188  -0.058   8.575
 4599WAT     H214040   6.080   0.017   8.672
 4600WAT      O14041   2.061   7.033   6.075
 4600WAT     H114042   2.051   6.953   6.015
 4600WAT     H214043   1.971   7.072   6.094
 4601WAT      O14044   6.766   9.388   4.026
 4601WAT     H114045   6.675   9.428   4.021
 4601WAT     H214046   6.765   9.296   3.988
 4602WAT      O14047   9.260   0.297   5.026
 4602WAT     H114048   9.182   0.306   4.964
 4602WAT     H214049   9.343   0.328   4.980
 4603WAT      O14050   9.284   4.045   2.347
 4603WAT     H114051   9.233   4.125   2.313
 4603WAT     H214052   9.241   4.012   2.430
 4604WAT      O14053   9.411   4.493   1.556
 4604WAT     H114054   9.343   4.533   1.494
 4604WAT     H214055   9.431   4.400   1.527
 4605WAT      O14056   8.169   1.177   1.749
 4605WAT     H114057   8.210   1.230   1.675
 4605WAT     H214058   8.071   1.195   1.753
 4606WAT      O14059   5.531   8.421   4.954
 4606WAT     H114060   5.548   8.508   4.998
 4606WAT     H214061   5.616   8.368   4.950
 4607WAT      O14062   0.576   6.847   7.779
 4607WAT     H114063   0.589   6.777   7.708
 4607WAT     H214064   0.660   6.856   7.832
 4608WAT      O14065   9.210   8.959   7.938
 4608WAT     H114066   9.134   8.961   7.873
 4608WAT     H214067   9.175   8.974   8.031
 4609WAT      O14068   0.988   8.663   6.569
 4609WAT     H114069   0.948   8.581   6.608
 4609WAT     H214070   0.937   8.690   6.487
 4610WAT      O14071   6.726   9.781   0.568
 4610WAT     H114072   6.673   9.715   0.515
 4610WAT     H214073   6.678   9.801   0.654
 4611WAT      O14074   9.871   7.402   1.804
 4611WAT     H114075   9.853   7.406   1.706
 4611WAT     H214076   9.816   7.329   1.845
 4612WAT      O14077   2.050   0.201   0.263
 4612WAT     H114078   2.095   0.133   0.206
 4612WAT     H214079   2.001   0.155   0.337
 4613WAT      O14080   9.386   3.342   3.623
 4613WAT     H114081   9.312   3.293   3.577
 4613WAT     H214082   9.427   3.284   3.693
 4614WAT      O14083   4.166   3.573   0.348
 4614WAT     H114084   4.105   3.510   0.395
 4614WAT     H214085   4.164   3.555   0.249
 4615WAT      O14086   4.270   9.427   7.381
 4615WAT     H114087   4.328   9.506   7.360
 4615WAT     H214088   4.278   9.405   7.478
 4616WAT      O14089   7.528   0.204   5.846
 4616WAT     H114090   7.551   0.135   5.914
 4616WAT     H214091   7.439   0.244   5.867
 4617WAT      O14092   3.408   9.575   8.932
 4617WAT     H114093   3.466   9.497   8.958
 4617WAT     H214094   3.442   9.614   8.846
 4618WAT      O14095   2.009   6.622   5.330
 4618WAT     H114096   2.017   6.678   5.412
 4618WAT     H214097   1.913   6.596   5.316
 4619WAT      O14098   4.316   7.854   2.609
 4619WAT     H114099   4.270   7.902   2.534
 4619WAT     H214100   4.288   7.894   2.696
 4620WAT      O14101   8.655   1.445   9.428
 4620WAT     H114102   8.731   1.505   9.451
 4620WAT     H214103   8.676   1.352   9.458
 4621WAT      O14104   9.679   0.114   2.745
 4621WAT     H114105   9.608   0.162   2.692
 4621WAT     H214106   9.765   0.165   2.739
 4622WAT      O14107   3.330   5.567   8.187
 4622WAT     H114108   3.343   5.665   8.172
 4622WAT     H214109   3.286   5.552   8.276
 4623WAT      O14110   9.354   9.537   0.287
 4623WAT     H114111   9.386   9.520   0.194
 4623WAT     H214112   9.356   9.452   0.340
 4624WAT      O14113   4.655   2.140   9.234
 4624WAT     H114114   4.601   2.225   9.236
 4624WAT     H214115   4.655   2.103   9.142
 4625WAT      O14116   8.627   4.181   4.695
 4625WAT     H114117   8.637   4.116   4.771
 4625WAT     H214118   8.670   4.268   4.720
 4626WAT      O14119   5.336   0.575   1.233
 4626WAT     H114120   5.431   0.598   1.254
 4626WAT     H214121   5.276   0.651   1.259
 4627WAT      O14122   5.768   9.582   0.008
 4627WAT     H114123   5.718   9.606   0.092
 4627WAT     H214124   5.722   9.624  -0.070
 4628WAT      O14125   1.472   0.346   7.305
 4628WAT     H114126   1.466   0.370   7.208
 4628WAT     H214127   1.409   0.271   7.324
 4629WAT      O14128   7.742   5.529   7.505
 4629WAT     H114129   7.662   5.574   7.466
 4629WAT     H214130   7.716   5.442   7.545
 4630WAT      O14131   7.408   0.178   3.408
 4630WAT     H114132   7.316   0.144   3.427
 4630WAT     H214133   7.465   0.168   3.490
 4631WAT      O14134   5.114   6.142   6.258
 4631WAT     H114135   5.174   6.154   6.337
 4631WAT     H214136   5.099   6.231   6.214
 4632WAT      O14137   3.159   5.828   3.022
 4632WAT     H114138   3.220   5.907   3.012
 4632WAT     H214139   3.064   5.857   3.011
 4633WAT      O14140   8.603   3.031   0.172
 4633WAT     H114141   8.697   3.067   0.176
 4633WAT     H214142   8.556   3.051   0.258
 4634WAT      O14143   7.504   6.377   7.196
 4634WAT     H114144   7.593   6.338   7.220
 4634WAT     H214145   7.437   6.303   7.188
 4635WAT      O14146   8.696   5.210   2.953
 4635WAT     H114147   8.715   5.286   2.891
 4635WAT     H214148   8.750   5.130   2.925
 4636WAT      O14149   3.883   0.368   2.728
 4636WAT     H114150   3.899   0.463   2.755
 4636WAT     H214151   3.857   0.314   2.808
 4637WAT      O14152   9.732   9.623   1.668
 4637WAT     H114153   9.646   9.601   1.622
 4637WAT     H214154   9.727   9.717   1.703
 4638WAT      O14155   3.061   7.311   6.133
 4638WAT     H114156   3.008   7.379   6.184
 4638WAT     H214157   3.026   7.306   6.039
 4639WAT      O14158   8.192   7.336   3.537
 4639WAT     H114159   8.265   7.270   3.518
 4639WAT     H214160   8.142   7.356   3.453
 4640WAT      O14161   5.279   3.983   3.347
 4640WAT     H114162   5.322   4.058   3.297
 4640WAT     H214163   5.275   3.902   3.288
 4641WAT      O14164   4.841   6.998   2.982
 4641WAT     H114165   4.937   7.026   2.979
 4641WAT     H214166   4.802   7.009   2.891
 4642WAT      O14167   6.918   4.145   6.097
 4642WAT     H114168   7.001   4.158   6.043
 4642WAT     H214169   6.847   4.207   6.063
 4643WAT      O14170   7.371   9.163   0.140
 4643WAT     H114171   7.272   9.150   0.132
 4643WAT     H214172   7.418   9.110   0.070
 4644WAT      O14173   8.949   6.610   7.453
 4644WAT     H114174   8.904   6.569   7.533
 4644WAT     H214175   8.880   6.653   7.394
 4645WAT      O14176   8.912   5.913   4.880
 4645WAT     H114177   8.857   5.984   4.835
 4645WAT     H214178   9.009   5.933   4.867
 4646WAT      O14179   1.636   0.324   7.624
 4646WAT     H114180   1.701   0.319   7.700
 4646WAT     H214181   1.661   0.256   7.555
 4647WAT      O14182   8.014   6.094   4.862
 4647WAT     H114183   7.934   6.152   4.853
 4647WAT     H214184   7.989   6.009   4.910
 4648WAT      O14185   9.324   8.091   5.821
 4648WAT     H114186   9.230   8.119   5.836
 4648WAT     H214187   9.349   8.022   5.889
 4649WAT      O14188   5.558   8.314   6.214
 4649WAT     H114189   5.518   8.385   6.157
 4649WAT     H214190   5.545   8.338   6.311
 4650WAT      O14191   6.421   6.255   0.180
 4650WAT     H114192   6.456   6.264   0.086
 4650WAT     H214193   6.450   6.167   0.218
 4651WAT      O14194   1.565   1.441   3.446
 4651WAT     H114195   1.511   1.373   3.397
 4651WAT     H214196   1.562   1.422   3.544
 4652WAT      O14197   8.040   4.909   4.782
 4652WAT     H114198   7.972   4.976   4.755
 4652WAT     H214199   7.997   4.819   4.790
 4653WAT      O14200   9.529   3.491   3.294
 4653WAT     H114201   9.594   3.498   3.219
 4653WAT     H214202   9.570   3.528   3.377
 4654WAT      O14203   6.069   5.422   4.105
 4654WAT     H114204   6.143   5.484   4.079
 4654WAT     H214205   5.981   5.464   4.082
 4655WAT      O14206   1.135   8.417   1.254
 4655WAT     H114207   1.145   8.464   1.342
 4655WAT     H214208   1.044   8.437   1.216
 4656WAT      O14209   6.084   8.542   3.306
 4656WAT     H114210   5.987   8.530   3.281
 4656WAT     H214211   6.091   8.560   3.404
 4657WAT      O14212   8.028   3.436   0.580
 4657WAT     H114213   7.995   3.416   0.488
 4657WAT     H214214   8.075   3.355   0.617
 4658WAT      O14215   6.413   6.071   6.574
 4658WAT     H114216   6.341   6.031   6.630
 4658WAT     H214217   6.414   6.027   6.484
 4659WAT      O14218   7.718   5.138   8.018
 4659WAT     H114219   7.672   5.216   7.974
 4659WAT     H214220   7.706   5.145   8.117
 4660WAT      O14221   7.053   6.532   0.901
 4660WAT     H114222   7.031   6.552   0.997
 4660WAT     H214223   6.986   6.578   0.842
 4661WAT      O14224   2.333   9.198   4.815
 4661WAT     H114225   2.398   9.209   4.889
 4661WAT     H214226   2.381   9.175   4.731
 4662WAT      O14227   3.246   1.800   2.121
 4662WAT     H114228   3.179   1.874   2.118
 4662WAT     H214229   3.335   1.834   2.091
 4663WAT      O14230   8.451   5.053   1.767
 4663WAT     H114231   8.507   5.012   1.839
 4663WAT     H214232   8.481   5.147   1.751
 4664WAT      O14233   1.089   7.656   0.402
 4664WAT     H114234   1.091   7.562   0.368
 4664WAT     H214235   1.138   7.661   0.489
 4665WAT      O14236   7.814   1.833   1.995
 4665WAT     H114237   7.886   1.810   1.931
 4665WAT     H214238   7.840   1.804   2.087
 4666WAT      O14239   9.499   8.437   0.642
 4666WAT     H114240   9.518   8.346   0.604
 4666WAT     H214241   9.414   8.433   0.695
 4667WAT      O14242   2.836   4.911   3.496
 4667WAT     H114243   2.912   4.975   3.485
 4667WAT     H214244   2.797   4.890   3.406
 4668WAT      O14245   2.444   9.473   3.421
 4668WAT     H114246   2.382   9.545   3.388
 4668WAT     H214247   2.518   9.514   3.473
 4669WAT      O14248   7.390   9.772   7.741
 4669WAT     H114249   7.348   9.851   7.784
 4669WAT     H214250   7.413   9.794   7.646
 4670WAT      O14251   0.093   0.575   8.424
 4670WAT     H114252   0.157   0.513   8.379
 4670WAT     H214253   0.142   0.655   8.458
 4671WAT      O14254   5.090   1.294   2.689
 4671WAT     H114255   5.014   1.263   2.632
 4671WAT     H214256   5.147   1.215   2.715
 4672WAT      O14257   2.806   5.448   1.008
 4672WAT     H114258   2.731   5.513   0.995
 4672WAT     H214259   2.849   5.465   1.097
 4673WAT      O14260   1.253   8.643   4.877
 4673WAT     H114261   1.267   8.626   4.975
 4673WAT     H214262   1.265   8.741   4.859
 4674WAT      O14263   2.710   7.802   2.676
 4674WAT     H114264   2.714   7.849   2.765
 4674WAT     H214265   2.630   7.742   2.673
 4675WAT      O14266   6.667   3.322   6.448
 4675WAT     H114267   6.766   3.319   6.431
 4675WAT     H214268   6.627   3.234   6.423
 4676WAT      O14269   9.353   9.640   1.740
 4676WAT     H114270   9.304   9.554   1.725
 4676WAT     H214271   9.287   9.713   1.758
 4677WAT      O14272   7.087   7.964   4.907
 4677WAT     H114273   7.185   7.944   4.895
 4677WAT     H214274   7.077   8.036   4.976
 4678WAT      O14275   1.927   9.212   2.157
 4678WAT     H114276   1.963   9.236   2.067
 4678WAT     H214277   1.853   9.145   2.147
 4679WAT      O14278   7.446   1.097   9.088
 4679WAT     H114279   7.396   1.136   9.165
 4679WAT     H214280   7.519   1.160   9.061
 4680WAT      O14281   9.112   3.436   3.340
 4680WAT     H114282   9.128   3.511   3.405
 4680WAT     H214283   9.029   3.455   3.288
 4681WAT      O14284   1.860   2.483   3.926
 4681WAT     H114285   1.879   2.567   3.875
 4681WAT     H214286   1.768   2.452   3.906
 4682WAT      O14287   2.973   7.060   0.347
 4682WAT     H114288   2.941   6.968   0.370
 4682WAT     H214289   3.028   7.057   0.264
 4683WAT      O14290   9.513   5.013   9.701
 4683WAT     H114291   9.587   5.000   9.766
 4683WAT     H214292   9.448   4.938   9.708
 4684WAT      O14293   1.427   2.301   6.084
 4684WAT     H114294   1.442   2.203   6.096
 4684WAT     H214295   1.476   2.332   6.002
 4685WAT      O14296   4.418   2.847   9.768
 4685WAT     H114297   4.482   2.923   9.785
 4685WAT     H214298   4.449   2.766   9.818
 4686WAT      O14299   8.577   8.395   6.606
 4686WAT     H114300   8.638   8.358   6.675
 4686WAT     H214301   8.534   8.321   6.555
 4687WAT      O14302   2.596   8.324   5.899
 4687WAT     H114303   2.602   8.229   5.930
 4687WAT     H214304   2.581   8.327   5.801
 4688WAT      O14305   1.314   8.622   8.599
 4688WAT     H114306   1.249   8.664   8.535
 4688WAT     H214307   1.368   8.694   8.643
 4689WAT      O14308   7.300   2.853   2.909
 4689WAT     H114309   7.313   2.812   3.000
 4689WAT     H214310   7.220   2.812   2.865
 4690WAT      O14311   8.206   2.811   7.031
 4690WAT     H114312   8.171   2.719   7.014
 4690WAT     H214313   8.172   2.874   6.961
 4691WAT      O14314   3.363   9.641   2.293
 4691WAT     H114315   3.453   9.603   2.272
 4691WAT     H214316   3.310   9.649   2.209
 4692WAT      O14317   4.577   2.440   2.717
 4692WAT     H114318   4.649   2.435   2.648
 4692WAT     H214319   4.490   2.464   2.672
 4693WAT      O14320   7.513   6.320   3.201
 4693WAT     H114321   7.602   6.277   3.189
 4693WAT     H214322   7.457   6.264   3.262
 4694WAT      O14323   6.416   0.897   3.162
 4694WAT     H114324   6.442   0.925   3.069
 4694WAT     H214325   6.364   0.970   3.206
 4695WAT      O14326   2.556   2.743   1.732
 4695WAT     H114327   2.542   2.657   1.683
 4695WAT     H214328   2.467   2.781   1.758
 4696WAT      O14329   2.077   4.110   1.889
 4696WAT     H114330   2.167   4.128   1.848
 4696WAT     H214331   2.027   4.196   1.897
 4697WAT      O14332   6.153   6.447   8.078
 4697WAT     H114333   6.141   6.406   7.987
 4697WAT     H214334   6.154   6.376   8.147
 4698WAT      O14335   9.397   6.596   5.235
 4698WAT     H114336   9.478   6.543   5.259
 4698WAT     H214337   9.347   6.550   5.161
 4699WAT      O14338   5.400   9.197   6.956
 4699WAT     H114339   5.341   9.170   7.033
 4699WAT     H214340   5.452   9.118   6.925
 4700WAT      O14341   1.846   8.765   1.121
 4700WAT     H114342   1.805   8.699   1.059
 4700WAT     H214343   1.867   8.720   1.209
 4701WAT      O14344   7.229   2.404   8.159
 4701WAT     H114345   7.265   2.353   8.080
 4701WAT     H214346   7.152   2.460   8.130
 4702WAT      O14347   7.425   2.349   0.837
 4702WAT     H114348   7.505   2.361   0.894
 4702WAT     H214349   7.343   2.349   0.894
 4703WAT      O14350   0.632   1.914   0.521
 4703WAT     H114351   0.547   1.892   0.568
 4703WAT     H214352   0.650   2.013   0.528
 4704WAT      O14353   7.216   4.286   3.229
 4704WAT     H114354   7.253   4.209   3.281
 4704WAT     H214355   7.118   4.295   3.248
 4705WAT      O14356   8.322   2.619   1.897
 4705WAT     H114357   8.381   2.692   1.862
 4705WAT     H214358   8.350   2.532   1.858
 4706WAT      O14359   6.040   6.926   6.855
 4706WAT     H114360   6.013   6.969   6.942
 4706WAT     H214361   6.023   6.828   6.860
 4707WAT      O14362   7.560   5.789   5.300
 4707WAT     H114363   7.655   5.822   5.296
 4707WAT     H214364   7.559   5.689   5.292
 4708WAT      O14365   3.119   8.339   3.007
 4708WAT     H114366   3.036   8.369   3.054
 4708WAT     H214367   3.150   8.252   3.047
 4709WAT      O14368   4.980   3.051   9.746
 4709WAT     H114369   5.078   3.058   9.724
 4709WAT     H214370   4.970   3.032   9.844
 4710WAT      O14371   9.252   6.317   1.352
 4710WAT     H114372   9.152   6.319   1.345
 4710WAT     H214373   9.280   6.365   1.435
 4711WAT      O14374   9.298   8.365   4.693
 4711WAT     H114375   9.223   8.354   4.758
 4711WAT     H214376   9.381   8.325   4.731
 4712WAT      O14377   0.625   0.714   0.890
 4712WAT     H114378   0.716   0.690   0.922
 4712WAT     H214379   0.624   0.714   0.790
 4713WAT      O14380   9.552   4.260   1.164
 4713WAT     H114381   9.519   4.354   1.156
 4713WAT     H214382   9.652   4.260   1.160
 4714WAT      O14383   4.200   1.822   7.878
 4714WAT     H114384   4.190   1.897   7.812
 4714WAT     H214385   4.264   1.848   7.950
 4715WAT      O14386   4.040   8.019   6.387
 4715WAT     H114387   4.024   8.073   6.470
 4715WAT     H214388   4.038   7.922   6.409
 4716WAT      O14389   7.822   6.160   5.545
 4716WAT     H114390   7.726   6.135   5.555
 4716WAT     H214391   7.879   6.084   5.576
 4717WAT      O14392   9.791   5.368   7.612
 4717WAT     H114393   9.889   5.348   7.620
 4717WAT     H214394   9.775   5.466   7.625
 4718WAT      O14395   4.913   4.436   7.477
 4718WAT     H114396   4.879   4.529   7.464
 4718WAT     H214397   5.013   4.438   7.488
 4719WAT      O14398   4.557   6.923   7.954
 4719WAT     H114399   4.530   7.014   7.923
 4719WAT     H214400   4.496   6.855   7.914
 4720WAT      O14401   3.495   8.100   0.018
 4720WAT     H114402   3.475   8.170  -0.050
 4720WAT     H214403   3.589   8.112   0.051
 4721WAT      O14404   8.463   3.479   2.628
 4721WAT     H114405   8.408   3.523   2.558
 4721WAT     H214406   8.501   3.393   2.592
 4722WAT      O14407   5.197   0.807   4.362
 4722WAT     H114408   5.270   0.759   4.314
 4722WAT     H214409   5.166   0.751   4.439
 4723WAT      O14410   5.054   2.199   4.644
 4723WAT     H114411   5.053   2.283   4.699
 4723WAT     H214412   5.048   2.222   4.547
 4724WAT      O14413   8.813   6.835   3.438
 4724WAT     H114414   8.750   6.760   3.418
 4724WAT     H214415   8.769   6.899   3.501
 4725WAT      O14416   7.511   5.267   1.916
 4725WAT     H114417   7.454   5.199   1.961
 4725WAT     H214418   7.606   5.238   1.919
 4726WAT      O14419   2.996   2.555   4.276
 4726WAT     H114420   2.912   2.608   4.265
 4726WAT     H214421   3.051   2.564   4.193
 4727WAT      O14422   3.590   0.788   9.041
 4727WAT     H114423   3.611   0.886   9.050
 4727WAT     H214424   3.632   0.738   9.116
 4728WAT      O14425   4.556   4.292   1.372
 4728WAT     H114426   4.640   4.239   1.357
 4728WAT     H214427   4.560   4.337   1.461
 4729WAT      O14428   3.014   3.543   7.011
 4729WAT     H114429   2.920   3.568   7.036
 4729WAT     H214430   3.077   3.614   7.042
 4730WAT      O14431   2.307   8.927   1.023
 4730WAT     H114432   2.261   9.013   0.999
 4730WAT     H214433   2.246   8.872   1.081
 4731WAT      O14434   4.133   4.446   8.422
 4731WAT     H114435   4.110   4.366   8.366
 4731WAT     H214436   4.059   4.465   8.486
 4732WAT      O14437   3.669   1.110   8.697
 4732WAT     H114438   3.675   1.178   8.769
 4732WAT     H214439   3.753   1.055   8.696
 4733WAT      O14440   7.238   5.376   7.780
 4733WAT     H114441   7.164   5.396   7.716
 4733WAT     H214442   7.245   5.277   7.793
 4734WAT      O14443   2.123   0.936   2.015
 4734WAT     H114444   2.218   0.960   2.031
 4734WAT     H214445   2.066   0.972   2.089
 4735WAT      O14446   3.583   3.030   5.490
 4735WAT     H114447   3.505   2.967   5.483
 4735WAT     H214448   3.639   3.021   5.407
 4736WAT      O14449   5.379   5.463   3.290
 4736WAT     H114450   5.298   5.522   3.281
 4736WAT     H214451   5.350   5.367   3.291
 4737WAT      O14452   3.888   6.630   1.287
 4737WAT     H114453   3.880   6.540   1.328
 4737WAT     H214454   3.803   6.681   1.302
 4738WAT      O14455   5.038   1.702   6.327
 4738WAT     H114456   5.026   1.626   6.263
 4738WAT     H214457   4.950   1.749   6.339
 4739WAT      O14458   0.788   6.818   8.022
 4739WAT     H114459   0.869   6.763   8.001
 4739WAT     H214460   0.794   6.905   7.973
 4740WAT      O14461   3.770   4.554   4.041
 4740WAT     H114462   3.832   4.601   4.105
 4740WAT     H214463   3.822   4.487   3.988
 4741WAT      O14464   6.813   0.913   7.323
 4741WAT     H114465   6.784   0.829   7.278
 4741WAT     H214466   6.741   0.944   7.385
 4742WAT      O14467   5.882   0.887   8.824
 4742WAT     H114468   5.871   0.984   8.847
 4742WAT     H214469   5.813   0.834   8.873
 4743WAT      O14470   4.625   0.462   3.853
 4743WAT     H114471   4.547   0.418   3.808
 4743WAT     H214472   4.596   0.499   3.941
 4744WAT      O14473   0.232   3.585   9.706
 4744WAT     H114474   0.224   3.684   9.690
 4744WAT     H214475   0.141   3.547   9.721
 4745WAT      O14476   4.496   1.032   6.408
 4745WAT     H114477   4.525   1.122   6.439
 4745WAT     H214478   4.432   1.042   6.332
 4746WAT      O14479   2.371   9.400   9.346
 4746WAT     H114480   2.433   9.329   9.377
 4746WAT     H214481   2.318   9.436   9.423
 4747WAT      O14482   3.588   0.142   4.687
 4747WAT     H114483   3.623   0.049   4.694
 4747WAT     H214484   3.570   0.164   4.591
 4748WAT      O14485   5.074   2.077   8.244
 4748WAT     H114486   5.059   1.991   8.195
 4748WAT     H214487   5.027   2.075   8.332
 4749WAT      O14488   2.218   4.670   4.036
 4749WAT     H114489   2.261   4.749   4.080
 4749WAT     H214490   2.125   4.658   4.070
 4750WAT      O14491   2.926   2.347   4.788
 4750WAT     H114492   2.834   2.345   4.827
 4750WAT     H214493   2.923   2.387   4.697
 4751WAT      O14494   0.069   6.596   6.091
 4751WAT     H114495   0.014   6.513   6.096
 4751WAT     H214496   0.093   6.626   6.184
 4752WAT      O14497   6.670   6.866   0.323
 4752WAT     H114498   6.727   6.947   0.337
 4752WAT     H214499   6.579   6.893   0.292
 4753WAT      O14500   3.317   2.470   5.694
 4753WAT     H114501   3.383   2.512   5.631
 4753WAT     H214502   3.357   2.467   5.786
 4754WAT      O14503   1.416   9.169   9.305
 4754WAT     H114504   1.367   9.125   9.230
 4754WAT     H214505   1.501   9.119   9.322
 4755WAT      O14506   8.190   6.028   5.153
 4755WAT     H114507   8.236   6.071   5.076
 4755WAT     H214508   8.242   6.044   5.237
 4756WAT      O14509   3.083   4.486   9.247
 4756WAT     H114510   3.083   4.482   9.147
 4756WAT     H214511   3.127   4.570   9.277
 4757WAT      O14512   3.742   4.449   7.905
 4757WAT     H114513   3.645   4.429   7.901
 4757WAT     H214514   3.794   4.363   7.913
 4758WAT      O14515   4.012   1.363   4.491
 4758WAT     H114516   3.984   1.272   4.522
 4758WAT     H214517   4.082   1.399   4.553
 4759WAT      O14518   8.402   2.180   8.452
 4759WAT     H114519   8.465   2.225   8.388
 4759WAT     H214520   8.451   2.109   8.502
 4760WAT      O14521   2.945   1.317   0.003
 4760WAT     H114522   3.029   1.263   0.002
 4760WAT     H214523   2.960   1.406  -0.040
 4761WAT      O14524   2.954   8.170   0.597
 4761WAT     H114525   2.947   8.143   0.693
 4761WAT     H214526   3.037   8.131   0.557
 4762WAT      O14527   1.335   2.614   5.183
 4762WAT     H114528   1.320   2.699   5.234
 4762WAT     H214529   1.402   2.558   5.231
 4763WAT      O14530   2.744   2.994   7.090
 4763WAT     H114531   2.711   3.086   7.113
 4763WAT     H214532   2.844   2.996   7.081
 4764WAT      O14533   0.402   0.641   1.148
 4764WAT     H114534   0.443   0.598   1.228
 4764WAT     H214535   0.397   0.574   1.073
 4765WAT      O14536   6.061   4.752   5.718
 4765WAT     H114537   6.105   4.824   5.771
 4765WAT     H214538   5.961   4.760   5.727
 4766WAT      O14539   2.635   0.120   4.467
 4766WAT     H114540   2.577   0.039   4.457
 4766WAT     H214541   2.630   0.151   4.562
 4767WAT      O14542   2.135   7.054   8.193
 4767WAT     H114543   2.101   6.963   8.167
 4767WAT     H214544   2.075   7.124   8.153
 4768WAT      O14545   6.257   7.662   1.244
 4768WAT     H114546   6.188   7.666   1.171
 4768WAT     H214547   6.252   7.573   1.289
 4769WAT      O14548   3.724   5.352   3.175
 4769WAT     H114549   3.772   5.401   3.247
 4769WAT     H214550   3.666   5.281   3.216
 4770WAT      O14551   6.237   5.638   4.636
 4770WAT     H114552   6.221   5.682   4.547
 4770WAT     H214553   6.302   5.562   4.624
 4771WAT      O14554   1.814   8.280   4.400
 4771WAT     H114555   1.810   8.334   4.316
 4771WAT     H214556   1.909   8.270   4.428
 4772WAT      O14557   2.661   4.326   0.381
 4772WAT     H114558   2.664   4.391   0.306
 4772WAT     H214559   2.695   4.370   0.464
 4773WAT      O14560   6.100   1.200   4.843
 4773WAT     H114561   6.026   1.172   4.782
 4773WAT     H214562   6.170   1.129   4.846
 4774WAT      O14563   2.861   8.972   9.271
 4774WAT     H114564   2.793   9.044   9.264
 4774WAT     H214565   2.818   8.883   9.256
 4775WAT      O14566   7.431   3.920   1.755
 4775WAT     H114567   7.454   3.976   1.675
 4775WAT     H214568   7.505   3.926   1.822
 4776WAT      O14569   4.864   7.162   7.941
 4776WAT     H114570   4.849   7.087   8.005
 4776WAT     H214571   4.778   7.209   7.924
 4777WAT      O14572   3.307   4.034   8.228
 4777WAT     H114573   3.262   3.978   8.297
 4777WAT     H214574   3.360   4.107   8.273
 4778WAT      O14575   6.667   9.607   6.200
 4778WAT     H114576   6.633   9.605   6.106
 4778WAT     H214577   6.633   9.688   6.247
 4779WAT      O14578   4.125   8.198   6.179
 4779WAT     H114579   4.106   8.121   6.241
 4779WAT     H214580   4.204   8.175   6.122
 4780WAT      O14581   1.094   7.200   8.814
 4780WAT     H114582   1.002   7.194   8.774
 4780WAT     H214583   1.145   7.117   8.792
 4781WAT      O14584   6.389   4.836   7.452
 4781WAT     H114585   6.391   4.840   7.552
 4781WAT     H214586   6.481   4.814   7.418
 4782WAT      O14587   1.167   3.234   5.406
 4782WAT     H114588   1.107   3.191   5.474
 4782WAT     H214589   1.159   3.184   5.319
 4783WAT      O14590   2.258   5.919   6.906
 4783WAT     H114591   2.307   5.846   6.859
 4783WAT     H214592   2.188   5.879   6.965
 4784WAT      O14593   6.406   0.049   0.648
 4784WAT     H114594   6.377  -0.046   0.661
 4784WAT     H214595   6.351   0.108   0.707
 4785WAT      O14596   9.662   8.088   5.028
 4785WAT     H114597   9.738   8.041   5.073
 4785WAT     H214598   9.605   8.133   5.097
 4786WAT      O14599   6.222   9.402   0.602
 4786WAT     H114600   6.208   9.440   0.510
 4786WAT     H214601   6.275   9.318   0.595
 4787WAT      O14602   2.550   3.265   0.160
 4787WAT     H114603   2.572   3.359   0.182
 4787WAT     H214604   2.546   3.254   0.060
 4788WAT      O14605   1.978   9.301   7.767
 4788WAT     H114606   2.023   9.213   7.749
 4788WAT     H214607   2.047   9.374   7.763
 4789WAT      O14608   7.082   4.566   5.618
 4789WAT     H114609   6.989   4.553   5.653
 4789WAT     H214610   7.130   4.479   5.618
 4790WAT      O14611   6.792   6.239   6.284
 4790WAT     H114612   6.849   6.292   6.347
 4790WAT     H214613   6.696   6.259   6.301
 4791WAT      O14614   8.980   5.403   8.481
 4791WAT     H114615   9.020   5.419   8.391
 4791WAT     H214616   8.909   5.333   8.475
 4792WAT      O14617   3.992   4.745   9.817
 4792WAT     H114618   4.007   4.658   9.770
 4792WAT     H214619   4.028   4.819   9.761
 4793WAT      O14620   0.027   2.442   9.090
 4793WAT     H114621   0.017   2.538   9.118
 4793WAT     H214622  -0.025   2.384   9.152
 4794WAT      O14623   9.125   9.397   7.435
 4794WAT     H114624   9.171   9.392   7.347
 4794WAT     H214625   9.043   9.341   7.434
 4795WAT      O14626   5.512   4.472   4.676
 4795WAT     H114627   5.452   4.399   4.644
 4795WAT     H214628   5.587   4.434   4.729
 4796WAT      O14629   3.720   6.361   2.807
 4796WAT     H114630   3.668   6.276   2.813
 4796WAT     H214631   3.675   6.432   2.862
 4797WAT      O14632   5.184   3.952   2.007
 4797WAT     H114633   5.264   3.998   2.045
 4797WAT     H214634   5.158   3.996   1.920
 4798WAT      O14635   3.291   9.148   9.393
 4798WAT     H114636   3.306   9.080   9.464
 4798WAT     H214637   3.379   9.184   9.361
 4799WAT      O14638   7.842   2.133   5.347
 4799WAT     H114639   7.802   2.093   5.265
 4799WAT     H214640   7.788   2.211   5.376
 4800WAT      O14641   5.492   6.170   3.184
 4800WAT     H114642   5.506   6.131   3.275
 4800WAT     H214643   5.448   6.102   3.125
 4801WAT      O14644   4.599   3.269   2.201
 4801WAT     H114645   4.621   3.324   2.282
 4801WAT     H214646   4.676   3.272   2.137
 4802WAT      O14647   6.102   6.963   4.798
 4802WAT     H114648   6.095   6.867   4.824
 4802WAT     H214649   6.083   6.973   4.700
 4803WAT      O14650   1.433   0.466   4.573
 4803WAT     H114651   1.420   0.376   4.533
 4803WAT     H214652   1.400   0.466   4.668
 4804WAT      O14653   9.559   1.062   9.259
 4804WAT     H114654   9.536   1.115   9.178
 4804WAT     H214655   9.520   1.107   9.340
 4805WAT      O14656   8.801   6.362   2.612
 4805WAT     H114657   8.743   6.282   2.633
 4805WAT     H214658   8.808   6.372   2.513
 4806WAT      O14659   9.328   2.137   9.790
 4806WAT     H114660   9.417   2.171   9.760
 4806WAT     H214661   9.308   2.173   9.881
 4807WAT      O14662   5.028   5.112   4.529
 4807WAT     H114663   5.074   5.121   4.618
 4807WAT     H214664   4.934   5.145   4.538
 4808WAT      O14665   7.133   0.383   0.124
 4808WAT     H114666   7.068   0.428   0.063
 4808WAT     H214667   7.212   0.443   0.137
 4809WAT      O14668   0.278   0.119   0.917
 4809WAT     H114669   0.221   0.095   0.996
 4809WAT     H214670   0.231   0.094   0.833
 4810WAT      O14671   8.693   1.375   5.396
 4810WAT     H114672   8.605   1.376   5.348
 4810WAT     H214673   8.759   1.323   5.342
 4811WAT      O14674   7.971   2.972   0.500
 4811WAT     H114675   7.952   2.998   0.406
 4811WAT     H214676   7.908   3.021   0.561
 4812WAT      O14677   4.671   5.926   6.145
 4812WAT     H114678   4.689   5.858   6.075
 4812WAT     H214679   4.722   6.010   6.126
 4813WAT      O14680   2.230   0.142   1.384
 4813WAT     H114681   2.178   0.061   1.411
 4813WAT     H214682   2.279   0.178   1.463
 4814WAT      O14683   5.771   5.873   7.384
 4814WAT     H114684   5.741   5.896   7.477
 4814WAT     H214685   5.786   5.957   7.332
 4815WAT      O14686   8.446   0.648   7.513
 4815WAT     H114687   8.537   0.689   7.523
 4815WAT     H214688   8.406   0.680   7.427
 4816WAT      O14689   6.750   1.028   1.336
 4816WAT     H114690   6.835   0.985   1.308
 4816WAT     H214691   6.709   1.075   1.258
 4817WAT      O14692   4.286   2.316   4.363
 4817WAT     H114693   4.214   2.248   4.351
 4817WAT     H214694   4.327   2.338   4.274
 4818WAT      O14695   5.072   1.773   9.400
 4818WAT     H114696   4.990   1.828   9.415
 4818WAT     H214697   5.149   1.814   9.447
 4819WAT      O14698   4.744   0.934   6.671
 4819WAT     H114699   4.767   1.013   6.614
 4819WAT     H214700   4.651   0.903   6.649
 4820WAT      O14701   1.978   2.155   8.805
 4820WAT     H114702   1.954   2.225   8.739
 4820WAT     H214703   2.026   2.198   8.882
 4821WAT      O14704   3.601   7.652   6.863
 4821WAT     H114705   3.531   7.592   6.901
 4821WAT     H214706   3.571   7.686   6.774
 4822WAT      O14707   6.562   8.126   9.797
 4822WAT     H114708   6.596   8.111   9.704
 4822WAT     H214709   6.591   8.217   9.828
 4823WAT      O14710   1.321   7.632   4.485
 4823WAT     H114711   1.266   7.694   4.429
 4823WAT     H214712   1.286   7.538   4.474
 4824WAT      O14713   2.189   5.925   3.229
 4824WAT     H114714   2.139   5.880   3.155
 4824WAT     H214715   2.216   6.017   3.199
 4825WAT      O14716   2.678   2.060   3.209
 4825WAT     H114717   2.720   1.969   3.204
 4825WAT     H214718   2.748   2.130   3.197
 4826WAT      O14719   0.977   0.845   5.792
 4826WAT     H114720   1.012   0.886   5.709
 4826WAT     H214721   0.880   0.822   5.779
 4827WAT      O14722   6.640   0.466   4.387
 4827WAT     H114723   6.650   0.510   4.476
 4827WAT     H214724   6.547   0.430   4.377
 4828WAT      O14725   2.864   5.662   8.436
 4828WAT     H114726   2.812   5.719   8.500
 4828WAT     H214727   2.827   5.570   8.436
 4829WAT      O14728   1.723   1.189   7.496
 4829WAT     H114729   1.794   1.255   7.469
 4829WAT     H214730   1.755   1.136   7.574
 4830WAT      O14731   4.116   8.036   1.825
 4830WAT     H114732   4.194   8.096   1.809
 4830WAT     H214733   4.032   8.090   1.821
 4831WAT      O14734   2.149   2.019   1.835
 4831WAT     H114735   2.231   1.997   1.782
 4831WAT     H214736   2.120   2.112   1.814
 4832WAT      O14737   5.495   1.685   9.312
 4832WAT     H114738   5.538   1.759   9.362
 4832WAT     H214739   5.563   1.615   9.289
 4833WAT      O14740   6.137   3.130   7.843
 4833WAT     H114741   6.093   3.179   7.768
 4833WAT     H214742   6.069   3.075   7.891
 4834WAT      O14743   3.724   8.603   8.788
 4834WAT     H114744   3.748   8.581   8.693
 4834WAT     H214745   3.806   8.602   8.844
 4835WAT      O14746   6.896   5.956   3.513
 4835WAT     H114747   6.915   5.887   3.443
 4835WAT     H214748   6.797   5.963   3.527
 4836WAT      O14749   9.084   1.746   3.467
 4836WAT     H114750   9.023   1.697   3.404
 4836WAT     H214751   9.032   1.815   3.517
 4837WAT      O14752   9.700   2.862   1.816
 4837WAT     H114753   9.636   2.788   1.799
 4837WAT     H214754   9.756   2.877   1.735
 4838WAT      O14755   2.332   5.979   7.303
 4838WAT     H114756   2.393   6.013   7.375
 4838WAT     H214757   2.240   6.014   7.318
 4839WAT      O14758   6.248   7.013   5.236
 4839WAT     H114759   6.272   7.107   5.258
 4839WAT     H214760   6.155   7.009   5.199
 4840WAT      O14761   3.472   0.431   6.307
 4840WAT     H114762   3.500   0.409   6.214
 4840WAT     H214763   3.551   0.427   6.367
 4841WAT      O14764   1.818   1.001   1.836
 4841WAT     H114765   1.746   1.051   1.788
 4841WAT     H214766   1.872   0.948   1.769
 4842WAT      O14767   3.764   1.978   3.268
 4842WAT     H114768   3.668   2.007   3.272
 4842WAT     H214769   3.820   2.053   3.234
 4843WAT      O14770   2.357   0.484   7.471
 4843WAT     H114771   2.350   0.452   7.376
 4843WAT     H214772   2.441   0.537   7.482
 4844WAT      O14773   9.347   1.848   7.117
 4844WAT     H114774   9.317   1.906   7.192
 4844WAT     H214775   9.437   1.877   7.085
 4845WAT      O14776   7.693   1.654   9.192
 4845WAT     H114777   7.757   1.656   9.116
 4845WAT     H214778   7.671   1.558   9.215
 4846WAT      O14779   3.422   3.131   3.688
 4846WAT     H114780   3.464   3.216   3.720
 4846WAT     H214781   3.365   3.150   3.608
 4847WAT      O14782   3.528   8.317   2.843
 4847WAT     H114783   3.496   8.306   2.937
 4847WAT     H214784   3.526   8.228   2.797
 4848WAT      O14785   4.276   9.595   9.619
 4848WAT     H114786   4.324   9.634   9.698
 4848WAT     H214787   4.342   9.582   9.544
 4849WAT      O14788   8.751   5.827   0.443
 4849WAT     H114789   8.830   5.799   0.388
 4849WAT     H214790   8.733   5.757   0.512
 4850WAT      O14791   8.786   5.912   5.127
 4850WAT     H114792   8.722   5.839   5.149
 4850WAT     H214793   8.836   5.889   5.044
 4851WAT      O14794   4.411   0.661   5.637
 4851WAT     H114795   4.502   0.626   5.612
 4851WAT     H214796   4.364   0.691   5.554
 4852WAT      O14797   7.945   1.208   6.236
 4852WAT     H114798   8.031   1.258   6.227
 4852WAT     H214799   7.942   1.134   6.168
 4853WAT      O14800   8.917   2.340   4.372
 4853WAT     H114801   8.855   2.278   4.323
 4853WAT     H214802   8.961   2.290   4.447
 4854WAT      O14803   8.630   2.359   5.206
 4854WAT     H114804   8.694   2.304   5.153
 4854WAT     H214805   8.667   2.452   5.217
 4855WAT      O14806   4.104   4.402   4.413
 4855WAT     H114807   4.140   4.313   4.439
 4855WAT     H214808   4.098   4.408   4.313
 4856WAT      O14809   7.207   8.987   0.636
 4856WAT     H114810   7.219   9.047   0.557
 4856WAT     H214811   7.290   8.933   0.650
 4857WAT      O14812   0.805   7.061   5.844
 4857WAT     H114813   0.806   7.156   5.873
 4857WAT     H214814   0.882   7.044   5.782
 4858WAT      O14815   9.881   7.750   2.649
 4858WAT     H114816   9.948   7.714   2.585
 4858WAT     H214817   9.840   7.833   2.613
 4859WAT      O14818   8.988   7.607   0.707
 4859WAT     H114819   8.978   7.580   0.611
 4859WAT     H214820   8.953   7.700   0.719
 4860WAT      O14821   0.833   7.277   9.443
 4860WAT     H114822   0.813   7.321   9.531
 4860WAT     H214823   0.776   7.196   9.433
 4861WAT      O14824   6.932   5.592   8.710
 4861WAT     H114825   6.956   5.500   8.742
 4861WAT     H214826   6.975   5.610   8.622
 4862WAT      O14827   2.547   2.632   0.582
 4862WAT     H114828   2.613   2.682   0.638
 4862WAT     H214829   2.455   2.666   0.601
 4863WAT      O14830   1.696   7.228   8.486
 4863WAT     H114831   1.758   7.294   8.529
 4863WAT     H214832   1.604   7.241   8.521
 4864WAT      O14833   0.254   5.720   4.656
 4864WAT     H114834   0.275   5.630   4.619
 4864WAT     H214835   0.222   5.712   4.751
 4865WAT      O14836   1.816   7.435   2.720
 4865WAT     H114837   1.868   7.520   2.711
 4865WAT     H214838   1.835   7.377   2.641
 4866WAT      O14839   2.087   7.352   0.992
 4866WAT     H114840   2.110   7.447   0.972
 4866WAT     H214841   2.171   7.301   1.010
 4867WAT      O14842   2.449   0.931   8.046
 4867WAT     H114843   2.418   1.025   8.058
 4867WAT     H214844   2.436   0.880   8.131
 4868WAT      O14845   7.492   4.550   8.042
 4868WAT     H114846   7.542   4.628   8.005
 4868WAT     H214847   7.522   4.532   8.136
 4869WAT      O14848   7.150   4.301   5.192
 4869WAT     H114849   7.237   4.314   5.144
 4869WAT     H214850   7.113   4.390   5.221
 4870WAT      O14851   0.054   3.720   7.083
 4870WAT     H114852   0.067   3.819   7.085
 4870WAT     H214853  -0.009   3.692   7.155
 4871WAT      O14854   1.642   1.832   4.840
 4871WAT     H114855   1.667   1.875   4.927
 4871WAT     H214856   1.724   1.794   4.798
 4872WAT      O14857   0.733   4.979   8.255
 4872WAT     H114858   0.810   4.951   8.198
 4872WAT     H214859   0.675   4.900   8.274
 4873WAT      O14860   7.566   1.295   7.260
 4873WAT     H114861   7.486   1.339   7.300
 4873WAT     H214862   7.628   1.365   7.224
 4874WAT      O14863   3.615   0.250   7.450
 4874WAT     H114864   3.578   0.179   7.509
 4874WAT     H214865   3.584   0.340   7.483
 4875WAT      O14866   4.762   3.061   4.188
 4875WAT     H114867   4.825   3.104   4.252
 4875WAT     H214868   4.785   3.089   4.095
 4876WAT      O14869   3.474   8.916   1.226
 4876WAT     H114870   3.528   8.899   1.308
 4876WAT     H214871   3.511   8.995   1.177
 4877WAT      O14872   0.411   2.924   2.475
 4877WAT     H114873   0.337   2.857   2.480
 4877WAT     H214874   0.495   2.879   2.443
 4878WAT      O14875   9.529   0.772   4.061
 4878WAT     H114876   9.615   0.800   4.020
 4878WAT     H214877   9.456   0.834   4.033
 4879WAT      O14878   9.437   6.978   1.964
 4879WAT     H114879   9.445   6.908   2.035
 4879WAT     H214880   9.429   6.934   1.875
 4880WAT      O14881   7.737   5.170   5.833
 4880WAT     H114882   7.798   5.110   5.886
 4880WAT     H214883   7.649   5.125   5.820
 4881WAT      O14884   1.654   5.003   3.923
 4881WAT     H114885   1.624   5.002   4.018
 4881WAT     H214886   1.630   5.091   3.881
 4882WAT      O14887   7.048   0.508   0.375
 4882WAT     H114888   7.047   0.441   0.301
 4882WAT     H214889   7.141   0.519   0.409
 4883WAT      O14890   9.447   9.787   1.383
 4883WAT     H114891   9.458   9.703   1.437
 4883WAT     H214892   9.377   9.773   1.313
 4884WAT      O14893   5.705   7.303   0.938
 4884WAT     H114894   5.658   7.354   0.866
 4884WAT     H214895   5.804   7.312   0.926
 4885WAT      O14896   6.160   7.761   6.160
 4885WAT     H114897   6.209   7.674   6.152
 4885WAT     H214898   6.108   7.762   6.246
 4886WAT      O14899   8.103   0.452   3.858
 4886WAT     H114900   8.004   0.443   3.844
 4886WAT     H214901   8.128   0.548   3.857
 4887WAT      O14902   4.184   7.881   5.192
 4887WAT     H114903   4.157   7.863   5.097
 4887WAT     H214904   4.272   7.836   5.210
 4888WAT      O14905   1.211   5.179   2.690
 4888WAT     H114906   1.166   5.197   2.777
 4888WAT     H214907   1.154   5.117   2.635
 4889WAT      O14908   0.249   1.829   7.317
 4889WAT     H114909   0.319   1.858   7.381
 4889WAT     H214910   0.187   1.905   7.298
 4890WAT      O14911   2.152   0.971   7.206
 4890WAT     H114912   2.179   0.877   7.225
 4890WAT     H214913   2.225   1.018   7.156
 4891WAT      O14914   5.558   7.644   7.946
 4891WAT     H114915   5.485   7.584   7.916
 4891WAT     H214916   5.619   7.594   8.008
 4892WAT      O14917   1.534   3.295   3.797
 4892WAT     H114918   1.633   3.291   3.814
 4892WAT     H214919   1.485   3.279   3.883
 4893WAT      O14920   8.042   1.038   9.401
 4893WAT     H114921   8.132   1.045   9.443
 4893WAT     H214922   7.974   1.014   9.470
 4894WAT      O14923   1.794   0.927   3.442
 4894WAT     H114924   1.787   0.995   3.368
 4894WAT     H214925   1.889   0.901   3.454
 4895WAT      O14926   2.535   6.435   3.835
 4895WAT     H114927   2.515   6.465   3.741
 4895WAT     H214928   2.634   6.428   3.847
 4896WAT      O14929   2.683   8.309   8.082
 4896WAT     H114930   2.601   8.343   8.037
 4896WAT     H214931   2.673   8.317   8.181
 4897WAT      O14932   4.766   8.026   1.566
 4897WAT     H114933   4.828   8.090   1.521
 4897WAT     H214934   4.786   8.023   1.664
 4898WAT      O14935   1.659   4.385   9.414
 4898WAT     H114936   1.580   4.350   9.363
 4898WAT     H214937   1.628   4.425   9.500
 4899WAT      O14938   5.628   5.949   1.387
 4899WAT     H114939   5.661   5.861   1.420
 4899WAT     H214940   5.545   5.935   1.333
 4900WAT      O14941   2.601   4.082   1.496
 4900WAT     H114942   2.502   4.094   1.500
 4900WAT     H214943   2.646   4.170   1.507
 4901WAT      O14944   2.641   1.126   4.543
 4901WAT     H114945   2.573   1.184   4.588
 4901WAT     H214946   2.687   1.069   4.612
 4902WAT      O14947   0.728   9.787   3.983
 4902WAT     H114948   0.742   9.877   4.024
 4902WAT     H214949   0.816   9.743   3.966
 4903WAT      O14950   6.151   8.297   5.029
 4903WAT     H114951   6.106   8.207   5.033
 4903WAT     H214952   6.108   8.358   5.096
 4904WAT      O14953   4.919   6.068   8.385
 4904WAT     H114954   4.982   5.990   8.395
 4904WAT     H214955   4.969   6.148   8.354
 4905WAT      O14956   1.931   9.236   2.933
 4905WAT     H114957   1.982   9.271   2.854
 4905WAT     H214958   1.921   9.136   2.925
 4906WAT      O14959   0.777   7.177   6.427
 4906WAT     H114960   0.700   7.167   6.490
 4906WAT     H214961   0.860   7.198   6.479
 4907WAT      O14962   1.227   2.195   0.194
 4907WAT     H114963   1.225   2.127   0.267
 4907WAT     H214964   1.145   2.187   0.138
 4908WAT      O14965   5.512   0.274   6.732
 4908WAT     H114966   5.489   0.371   6.733
 4908WAT     H214967   5.429   0.219   6.740
 4909WAT      O14968   0.128   1.686   3.035
 4909WAT     H114969   0.207   1.624   3.034
 4909WAT     H214970   0.159   1.780   3.021
 4910WAT      O14971   3.078   6.651   9.055
 4910WAT     H114972   3.137   6.618   8.981
 4910WAT     H214973   3.004   6.706   9.015
 4911WAT      O14974   5.220   5.044   6.811
 4911WAT     H114975   5.266   5.116   6.760
 4911WAT     H214976   5.157   5.084   6.877
 4912WAT      O14977   7.266   2.456   1.266
 4912WAT     H114978   7.231   2.537   1.312
 4912WAT     H214979   7.361   2.472   1.238
 4913WAT      O14980   6.901   1.295   7.214
 4913WAT     H114981   6.831   1.226   7.233
 4913WAT     H214982   6.977   1.253   7.163
 4914WAT      O14983   4.327   4.292   3.949
 4914WAT     H114984   4.258   4.219   3.955
 4914WAT     H214985   4.364   4.295   3.856
 4915WAT      O14986   7.208   3.411   7.645
 4915WAT     H114987   7.166   3.493   7.606
 4915WAT     H214988   7.136   3.348   7.675
 4916WAT      O14989   6.361   6.910   8.456
 4916WAT     H114990   6.399   6.818   8.446
 4916WAT     H214991   6.431   6.971   8.494
 4917WAT      O14992   9.615   4.125   3.645
 4917WAT     H114993   9.633   4.110   3.548
 4917WAT     H214994   9.684   4.187   3.683
 4918WAT      O14995   0.279   9.255   3.780
 4918WAT     H114996   0.301   9.350   3.760
 4918WAT     H214997   0.191   9.231   3.740
 4919WAT      O14998   1.921   2.085   3.086
 4919WAT     H114999   1.909   2.176   3.127
 4919WAT     H215000   1.839   2.031   3.101
 4920WAT      O15001   6.936   2.429   1.310
 4920WAT     H115002   6.908   2.494   1.240
 4920WAT     H215003   7.010   2.468   1.364
 4921WAT      O15004   7.569   7.829   0.046
 4921WAT     H115005   7.515   7.862  -0.031
 4921WAT     H215006   7.662   7.864   0.038
 4922WAT      O15007   1.860   1.047   1.119
 4922WAT     H115008   1.958   1.059   1.102
 4922WAT     H215009   1.836   1.086   1.207
 4923WAT      O15010   9.119   8.670   2.529
 4923WAT     H115011   9.195   8.615   2.496
 4923WAT     H215012   9.153   8.759   2.561
 4924WAT      O15013   1.761   7.606   7.693
 4924WAT     H115014   1.785   7.694   7.735
 4924WAT     H215015   1.844   7.552   7.679
 4925WAT      O15016   6.166   9.451   9.575
 4925WAT     H115017   6.246   9.401   9.543
 4925WAT     H215018   6.147   9.425   9.669
 4926WAT      O15019   8.201   7.101   4.260
 4926WAT     H115020   8.207   7.199   4.273
 4926WAT     H215021   8.249   7.075   4.176
 4927WAT      O15022   7.960   0.609   7.854
 4927WAT     H115023   7.983   0.707   7.855
 4927WAT     H215024   7.919   0.586   7.766
 4928WAT      O15025   0.323   1.993   9.674
 4928WAT     H115026   0.303   1.962   9.767
 4928WAT     H215027   0.365   1.919   9.622
 4929WAT      O15028   9.123   5.932   7.803
 4929WAT     H115029   9.051   6.002   7.804
 4929WAT     H215030   9.126   5.887   7.892
 4930WAT      O15031   9.300   1.172   0.594
 4930WAT     H115032   9.389   1.127   0.590
 4930WAT     H215033   9.228   1.107   0.571
 4931WAT      O15034   2.566   3.139   1.811
 4931WAT     H115035   2.483   3.190   1.830
 4931WAT     H215036   2.623   3.190   1.747
 4932WAT      O15037   4.906   4.978   0.081
 4932WAT     H115038   4.947   4.984  -0.009
 4932WAT     H215039   4.899   5.069   0.122
 4933WAT      O15040   3.714   3.908   4.540
 4933WAT     H115041   3.635   3.899   4.478
 4933WAT     H215042   3.730   4.005   4.559
 4934WAT      O15043   6.419   9.172   3.581
 4934WAT     H115044   6.409   9.121   3.495
 4934WAT     H215045   6.485   9.126   3.640
 4935WAT      O15046   2.645   5.537   3.622
 4935WAT     H115047   2.737   5.552   3.586
 4935WAT     H215048   2.626   5.439   3.626
 4936WAT      O15049   9.519   8.663   2.236
 4936WAT     H115050   9.506   8.702   2.145
 4936WAT     H215051   9.557   8.733   2.297
 4937WAT      O15052   4.385   4.070   8.336
 4937WAT     H115053   4.461   4.135   8.329
 4937WAT     H215054   4.403   3.993   8.275
 4938WAT      O15055   5.760   9.145   6.696
 4938WAT     H115056   5.816   9.093   6.760
 4938WAT     H215057   5.785   9.242   6.701
 4939WAT      O15058   6.045   0.369   0.790
 4939WAT     H115059   6.138   0.332   0.789
 4939WAT     H215060   6.038   0.443   0.722
 4940WAT      O15061   8.536   2.077   9.657
 4940WAT     H115062   8.581   1.989   9.639
 4940WAT     H215063   8.543   2.135   9.576
 4941WAT      O15064   8.507   0.857   4.689
 4941WAT     H115065   8.538   0.888   4.599
 4941WAT     H215066   8.407   0.847   4.688
 4942WAT      O15067   5.308   9.025   9.418
 4942WAT     H115068   5.401   8.998   9.442
 4942WAT     H215069   5.268   8.957   9.356
 4943WAT      O15070   7.638   7.623   8.740
 4943WAT     H115071   7.582   7.704   8.721
 4943WAT     H215072   7.590   7.541   8.710
 4944WAT      O15073   1.552   2.772   1.970
 4944WAT     H115074   1.593   2.693   1.925
 4944WAT     H215075   1.457   2.751   1.992
 4945WAT      O15076   3.886   4.412   6.356
 4945WAT     H115077   3.948   4.482   6.322
 4945WAT     H215078   3.938   4.341   6.403
 4946WAT      O15079   8.314   9.833   4.799
 4946WAT     H115080   8.391   9.867   4.853
 4946WAT     H215081   8.243   9.798   4.860
 4947WAT      O15082   5.289   2.829   7.117
 4947WAT     H115083   5.190   2.830   7.136
 4947WAT     H215084   5.304   2.858   7.022
 4948WAT      O15085   4.756   8.864   7.963
 4948WAT     H115086   4.809   8.782   7.986
 4948WAT     H215087   4.677   8.837   7.908
 4949WAT      O15088   0.139   0.838   7.474
 4949WAT     H115089   0.098   0.864   7.386
 4949WAT     H215090   0.118   0.743   7.493
 4950WAT      O15091   0.261   2.574   1.389
 4950WAT     H115092   0.203   2.621   1.323
 4950WAT     H215093   0.300   2.640   1.453
 4951WAT      O15094   6.839   4.538   9.065
 4951WAT     H115095   6.841   4.615   9.002
 4951WAT     H215096   6.844   4.453   9.014
 4952WAT      O15097   6.339   3.040   2.029
 4952WAT     H115098   6.329   3.098   2.109
 4952WAT     H215099   6.375   3.093   1.953
 4953WAT      O15100   7.785   8.942   3.739
 4953WAT     H115101   7.703   8.888   3.761
 4953WAT     H215102   7.815   8.991   3.821
 4954WAT      O15103   9.019   4.017   2.902
 4954WAT     H115104   9.109   3.980   2.928
 4954WAT     H215105   9.029   4.084   2.829
 4955WAT      O15106   1.581   0.131   7.101
 4955WAT     H115107   1.612   0.223   7.126
 4955WAT     H215108   1.599   0.115   7.004
 4956WAT      O15109   2.743   4.713   1.439
 4956WAT     H115110   2.651   4.712   1.479
 4956WAT     H215111   2.737   4.738   1.342
 4957WAT      O15112   0.961   2.935   1.462
 4957WAT     H115113   0.946   2.872   1.538
 4957WAT     H215114   0.875   2.951   1.414
 4958WAT      O15115   5.592   3.998   0.246
 4958WAT     H115116   5.679   4.046   0.233
 4958WAT     H215117   5.532   4.019   0.168
 4959WAT      O15118   7.755   2.148   6.102
 4959WAT     H115119   7.656   2.145   6.113
 4959WAT     H215120   7.798   2.181   6.186
 4960WAT      O15121   6.603   5.064   2.672
 4960WAT     H115122   6.654   5.013   2.741
 4960WAT     H215123   6.535   5.004   2.629
 4961WAT      O15124   1.663   5.437   5.677
 4961WAT     H115125   1.589   5.410   5.615
 4961WAT     H215126   1.628   5.440   5.771
 4962WAT      O15127   8.893   7.869   0.347
 4962WAT     H115128   8.975   7.814   0.359
 4962WAT     H215129   8.884   7.932   0.424
 4963WAT      O15130   4.848   2.161   7.766
 4963WAT     H115131   4.816   2.252   7.792
 4963WAT     H215132   4.944   2.167   7.736
 4964WAT      O15133   7.455   8.941   1.936
 4964WAT     H115134   7.511   8.890   2.002
 4964WAT     H215135   7.359   8.923   1.955
 4965WAT      O15136   6.419   1.968   0.593
 4965WAT     H115137   6.456   1.948   0.502
 4965WAT     H215138   6.344   2.034   0.585
 4966WAT      O15139   8.163   2.977   2.296
 4966WAT     H115140   8.143   3.074   2.286
 4966WAT     H215141   8.220   2.947   2.219
 4967WAT      O15142   2.836   9.472   6.829
 4967WAT     H115143   2.860   9.392   6.773
 4967WAT     H215144   2.877   9.462   6.920
 4968WAT      O15145   4.357   7.476   4.143
 4968WAT     H115146   4.413   7.551   4.107
 4968WAT     H215147   4.326   7.418   4.068
 4969WAT      O15148   1.353   7.185   0.089
 4969WAT     H115149   1.357   7.155   0.184
 4969WAT     H215150   1.430   7.147   0.038
 4970WAT      O15151   9.505   5.237   2.009
 4970WAT     H115152   9.553   5.160   2.050
 4970WAT     H215153   9.522   5.320   2.063
 4971WAT      O15154   5.710   7.273   7.070
 4971WAT     H115155   5.770   7.193   7.075
 4971WAT     H215156   5.648   7.273   7.149
 4972WAT      O15157   8.434   0.998   1.671
 4972WAT     H115158   8.449   0.961   1.579
 4972WAT     H215159   8.343   1.039   1.677
 4973WAT      O15160   7.158   2.504   2.113
 4973WAT     H115161   7.125   2.409   2.115
 4973WAT     H215162   7.095   2.562   2.166
 4974WAT      O15163   2.467   8.285   7.328
 4974WAT     H115164   2.495   8.324   7.416
 4974WAT     H215165   2.393   8.340   7.290
 4975WAT      O15166   2.316   2.264   8.574
 4975WAT     H115167   2.278   2.346   8.615
 4975WAT     H215168   2.243   2.198   8.557
 4976WAT      O15169   2.061   4.097   3.360
 4976WAT     H115170   2.032   4.160   3.432
 4976WAT     H215171   2.151   4.061   3.381
 4977WAT      O15172   4.674   8.036   7.118
 4977WAT     H115173   4.700   7.956   7.171
 4977WAT     H215174   4.650   8.008   7.025
 4978WAT      O15175   4.752   9.293   1.781
 4978WAT     H115176   4.799   9.354   1.718
 4978WAT     H215177   4.795   9.299   1.871
 4979WAT      O15178   0.679   7.940   1.577
 4979WAT     H115179   0.671   8.005   1.501
 4979WAT     H215180   0.775   7.936   1.606
 4980WAT      O15181   9.635   9.165   5.331
 4980WAT     H115182   9.609   9.068   5.323
 4980WAT     H215183   9.560   9.217   5.372
 4981WAT      O15184   6.218   7.349   1.317
 4981WAT     H115185   6.154   7.327   1.243
 4981WAT     H215186   6.167   7.363   1.402
 4982WAT      O15187   3.110   4.293   8.143
 4982WAT     H115188   3.187   4.357   8.142
 4982WAT     H215189   3.119   4.230   8.220
 4983WAT      O15190   8.107   6.094   5.853
 4983WAT     H115191   8.177   6.092   5.924
 4983WAT     H215192   8.043   6.018   5.867
 4984WAT      O15193   8.129   1.779   3.521
 4984WAT     H115194   8.139   1.679   3.517
 4984WAT     H215195   8.040   1.805   3.485
 4985WAT      O15196   9.860   1.708   0.685
 4985WAT     H115197   9.885   1.644   0.613
 4985WAT     H215198   9.834   1.796   0.645
 4986WAT      O15199   7.130   7.070   6.465
 4986WAT     H115200   7.120   7.165   6.492
 4986WAT     H215201   7.227   7.046   6.460
 4987WAT      O15202   9.564   6.900   7.441
 4987WAT     H115203   9.624   6.822   7.453
 4987WAT     H215204   9.476   6.870   7.405
 4988WAT      O15205   1.306   5.155   4.341
 4988WAT     H115206   1.396   5.139   4.382
 4988WAT     H215207   1.273   5.245   4.367
 4989WAT      O15208   2.531   4.722   1.641
 4989WAT     H115209   2.518   4.639   1.694
 4989WAT     H215210   2.447   4.744   1.593
 4990WAT      O15211   1.616   3.389   4.163
 4990WAT     H115212   1.563   3.474   4.160
 4990WAT     H215213   1.703   3.406   4.211
 4991WAT      O15214   5.903   9.013   6.194
 4991WAT     H115215   6.001   8.998   6.182
 4991WAT     H215216   5.865   8.939   6.250
 4992WAT      O15217   8.243   0.344   9.326
 4992WAT     H115218   8.211   0.393   9.406
 4992WAT     H215219   8.308   0.273   9.354
 4993WAT      O15220   2.465   1.394   2.363
 4993WAT     H115221   2.417   1.471   2.405
 4993WAT     H215222   2.417   1.309   2.384
 4994WAT      O15223   8.968   4.426   6.999
 4994WAT     H115224   9.062   4.393   6.993
 4994WAT     H215225   8.913   4.360   7.050
 4995WAT      O15226   0.890   7.578   2.989
 4995WAT     H115227   0.927   7.671   2.990
 4995WAT     H215228   0.830   7.567   2.909
 4996WAT      O15229   6.285   0.858   8.608
 4996WAT     H115230   6.351   0.922   8.569
 4996WAT     H215231   6.297   0.768   8.566
 4997WAT      O15232   7.546   4.353   9.454
 4997WAT     H115233   7.525   4.255   9.446
 4997WAT     H215234   7.551   4.378   9.551
 4998WAT      O15235   1.740   5.025   6.771
 4998WAT     H115236   1.675   5.026   6.695
 4998WAT     H215237   1.700   4.974   6.847
 4999WAT      O15238   8.591   1.841   0.298
 4999WAT     H115239   8.672   1.898   0.286
 4999WAT     H215240   8.614   1.746   0.278
 5000WAT      O15241   9.397   3.837   1.519
 5000WAT     H115242   9.315   3.784   1.500
 5000WAT     H215243   9.372   3.924   1.562
 5001WAT      O15244   3.417   9.408   5.443
 5001WAT     H115245   3.439   9.410   5.540
 5001WAT     H215246   3.337   9.350   5.428
 5002WAT      O15247   7.399   0.269   7.721
 5002WAT     H115248   7.416   0.358   7.677
 5002WAT     H215249   7.312   0.232   7.688
 5003WAT      O15250   6.412   5.726   2.134
 5003WAT     H115251   6.492   5.673   2.103
 5003WAT     H215252   6.329   5.678   2.108
 5004WAT      O15253   8.054   8.159   4.072
 5004WAT     H115254   8.049   8.149   3.973
 5004WAT     H215255   7.969   8.126   4.113
 5005WAT      O15256   9.451   7.354   5.745
 5005WAT     H115257   9.526   7.296   5.775
 5005WAT     H215258   9.471   7.449   5.767
 5006WAT      O15259   9.081   4.078   1.931
 5006WAT     H115260   9.056   4.146   1.861
 5006WAT     H215261   9.175   4.047   1.914
 5007WAT      O15262   6.493   4.325   1.762
 5007WAT     H115263   6.489   4.236   1.718
 5007WAT     H215264   6.543   4.389   1.704
 5008WAT      O15265   0.648   1.570   3.528
 5008WAT     H115266   0.682   1.664   3.526
 5008WAT     H215267   0.724   1.506   3.528
 5009WAT      O15268   3.168   1.468   5.125
 5009WAT     H115269   3.233   1.528   5.080
 5009WAT     H215270   3.218   1.397   5.176
 5010WAT      O15271   7.139   0.011   7.384
 5010WAT     H115272   7.107   0.064   7.305
 5010WAT     H215273   7.114  -0.085   7.372
 5011WAT      O15274   1.421   7.151   6.496
 5011WAT     H115275   1.491   7.081   6.509
 5011WAT     H215276   1.374   7.168   6.583
 5012WAT      O15277   9.765   6.141   6.715
 5012WAT     H115278   9.736   6.204   6.642
 5012WAT     H215279   9.691   6.076   6.734
 5013WAT      O15280   7.710   8.081   5.815
 5013WAT     H115281   7.790   8.140   5.805
 5013WAT     H215282   7.719   8.002   5.755
 5014WAT      O15283   3.094   0.225   3.131
 5014WAT     H115284   3.156   0.300   3.153
 5014WAT     H215285   3.000   0.258   3.130
 5015WAT      O15286   5.196   2.446   1.617
 5015WAT     H115287   5.211   2.347   1.614
 5015WAT     H215288   5.277   2.493   1.584
 5016WAT      O15289   9.148   6.803   8.619
 5016WAT     H115290   9.125   6.707   8.636
 5016WAT     H215291   9.084   6.861   8.669
 5017WAT      O15292   7.873   8.303   9.715
 5017WAT     H115293   7.786   8.296   9.762
 5017WAT     H215294   7.948   8.288   9.780
 5018WAT      O15295   8.661   2.846   2.396
 5018WAT     H115296   8.643   2.748   2.397
 5018WAT     H215297   8.727   2.869   2.468
 5019WAT      O15298   4.084   2.924   5.979
 5019WAT     H115299   4.073   2.848   5.916
 5019WAT     H215300   4.181   2.942   5.994
 5020WAT      O15301   0.313   7.577   3.610
 5020WAT     H115302   0.237   7.639   3.589
 5020WAT     H215303   0.357   7.607   3.695
 5021WAT      O15304   5.939   3.578   7.106
 5021WAT     H115305   5.956   3.517   7.029
 5021WAT     H215306   5.848   3.619   7.096
 5022WAT      O15307   8.166   1.845   2.127
 5022WAT     H115308   8.231   1.771   2.141
 5022WAT     H215309   8.079   1.822   2.170
 5023WAT      O15310   7.661   7.724   8.445
 5023WAT     H115311   7.745   7.691   8.402
 5023WAT     H215312   7.666   7.710   8.543
 5024WAT      O15313   5.742   9.373   8.229
 5024WAT     H115314   5.807   9.314   8.181
 5024WAT     H215315   5.753   9.362   8.328
 5025WAT      O15316   9.045   4.491   8.695
 5025WAT     H115317   8.995   4.512   8.611
 5025WAT     H215318   9.065   4.393   8.699
 5026WAT      O15319   4.716   0.389   4.389
 5026WAT     H115320   4.706   0.371   4.487
 5026WAT     H215321   4.787   0.457   4.374
 5027WAT      O15322   2.040   4.155   5.938
 5027WAT     H115323   2.108   4.224   5.914
 5027WAT     H215324   2.051   4.075   5.879
 5028WAT      O15325   8.822   7.825   3.950
 5028WAT     H115326   8.773   7.835   4.037
 5028WAT     H215327   8.764   7.855   3.875
 5029WAT      O15328   2.014   1.274   0.572
 5029WAT     H115329   2.024   1.276   0.672
 5029WAT     H215330   1.936   1.217   0.547
 5030WAT      O15331   5.569   0.850   1.649
 5030WAT     H115332   5.501   0.906   1.601
 5030WAT     H215333   5.653   0.848   1.596
 5031WAT      O15334   8.301   6.130   9.451
 5031WAT     H115335   8.256   6.218   9.468
 5031WAT     H215336   8.390   6.146   9.407
 5032WAT      O15337   6.965   7.497   2.882
 5032WAT     H115338   6.964   7.473   2.979
 5032WAT     H215339   7.013   7.427   2.830
 5033WAT      O15340   7.417   0.275   1.546
 5033WAT     H115341   7.415   0.259   1.645
 5033WAT     H215342   7.505   0.246   1.509
 5034WAT      O15343   7.165   3.582   2.381
 5034WAT     H115344   7.108   3.638   2.441
 5034WAT     H215345   7.254   3.624   2.370
 5035WAT      O15346   4.776   7.015   0.876
 5035WAT     H115347   4.696   7.074   0.877
 5035WAT     H215348   4.805   6.996   0.970
 5036WAT      O15349   8.295   4.863   5.239
 5036WAT     H115350   8.391   4.867   5.209
 5036WAT     H215351   8.236   4.862   5.159
 5037WAT      O15352   9.688   5.534   2.559
 5037WAT     H115353   9.726   5.540   2.467
 5037WAT     H215354   9.622   5.609   2.573
 5038WAT      O15355   3.054   9.727   0.292
 5038WAT     H115356   3.035   9.630   0.308
 5038WAT     H215357   3.113   9.737   0.212
 5039WAT      O15358   2.612   3.785   8.833
 5039WAT     H115359   2.653   3.734   8.758
 5039WAT     H215360   2.664   3.769   8.917
 5040WAT      O15361   2.063   6.552   9.654
 5040WAT     H115362   2.014   6.533   9.738
 5040WAT     H215363   2.046   6.646   9.626
 5041WAT      O15364   0.337   5.737   9.489
 5041WAT     H115365   0.436   5.730   9.496
 5041WAT     H215366   0.313   5.817   9.434
 5042WAT      O15367   6.438   3.361   9.118
 5042WAT     H115368   6.454   3.381   9.021
 5042WAT     H215369   6.411   3.445   9.165
 5043WAT      O15370   0.495   6.139   9.788
 5043WAT     H115371   0.518   6.070   9.857
 5043WAT     H215372   0.402   6.172   9.803
 5044WAT      O15373   7.491   3.126   7.793
 5044WAT     H115374   7.399   3.127   7.833
 5044WAT     H215375   7.506   3.038   7.748
 5045WAT      O15376   6.315   9.444   5.828
 5045WAT     H115377   6.367   9.507   5.887
 5045WAT     H215378   6.253   9.389   5.884
 5046WAT      O15379   2.224   0.139   9.569
 5046WAT     H115380   2.158   0.185   9.628
 5046WAT     H215381   2.313   0.182   9.579
 5047WAT      O15382   3.054   1.300   0.696
 5047WAT     H115383   3.060   1.399   0.694
 5047WAT     H215384   2.959   1.272   0.685
 5048WAT      O15385   1.008   4.518   0.926
 5048WAT     H115386   1.049   4.433   0.959
 5048WAT     H215387   0.916   4.528   0.964
 5049WAT      O15388   7.083   3.147   4.433
 5049WAT     H115389   7.108   3.208   4.508
 5049WAT     H215390   6.993   3.107   4.451
 5050WAT      O15391   2.548   3.464   5.102
 5050WAT     H115392   2.572   3.537   5.166
 5050WAT     H215393   2.452   3.472   5.077
 5051WAT      O15394   4.233   4.140   4.487
 5051WAT     H115395   4.232   4.055   4.435
 5051WAT     H215396   4.326   4.179   4.486
 5052WAT      O15397   7.402   7.597   1.709
 5052WAT     H115398   7.368   7.586   1.802
 5052WAT     H215399   7.326   7.589   1.644
 5053WAT      O15400   2.074   3.717   0.316
 5053WAT     H115401   2.076   3.814   0.340
 5053WAT     H215402   2.056   3.663   0.399
 5054WAT      O15403   6.164   8.835   8.625
 5054WAT     H115404   6.092   8.768   8.607
 5054WAT     H215405   6.141   8.921   8.580
 5055WAT      O15406   2.746   8.758   2.215
 5055WAT     H115407   2.652   8.751   2.248
 5055WAT     H215408   2.774   8.669   2.178
 5056WAT      O15409   7.927   4.984   3.527
 5056WAT     H115410   7.926   4.958   3.430
 5056WAT     H215411   8.021   4.978   3.562
 5057WAT      O15412   2.291   6.367   0.653
 5057WAT     H115413   2.258   6.461   0.650
 5057WAT     H215414   2.338   6.350   0.740
 5058WAT      O15415   5.159   5.829   1.763
 5058WAT     H115416   5.158   5.735   1.728
 5058WAT     H215417   5.138   5.892   1.688
 5059WAT      O15418   5.278   9.094   3.600
 5059WAT     H115419   5.346   9.055   3.662
 5059WAT     H215420   5.288   9.194   3.599
 5060WAT      O15421   8.535   1.692   0.966
 5060WAT     H115422   8.493   1.614   0.920
 5060WAT     H215423   8.496   1.777   0.929
 5061WAT      O15424   0.190   3.920   4.250
 5061WAT     H115425   0.140   4.003   4.274
 5061WAT     H215426   0.235   3.932   4.162
 5062WAT      O15427   3.696   2.243   3.580
 5062WAT     H115428   3.617   2.245   3.520
 5062WAT     H215429   3.685   2.169   3.647
 5063WAT      O15430   0.941   2.071   5.388
 5063WAT     H115431   0.879   2.143   5.356
 5063WAT     H215432   1.035   2.102   5.379
 5064WAT      O15433   5.814   4.911   9.708
 5064WAT     H115434   5.883   4.981   9.725
 5064WAT     H215435   5.784   4.915   9.613
 5065WAT      O15436   6.419   3.658   8.064
 5065WAT     H115437   6.438   3.754   8.087
 5065WAT     H215438   6.435   3.643   7.966
 5066WAT      O15439   3.649   8.312   8.286
 5066WAT     H115440   3.712   8.369   8.234
 5066WAT     H215441   3.602   8.249   8.225
 5067WAT      O15442   3.803   7.063   0.099
 5067WAT     H115443   3.748   7.034   0.021
 5067WAT     H215444   3.852   6.984   0.136
 5068WAT      O15445   4.309   5.046   2.608
 5068WAT     H115446   4.270   4.968   2.658
 5068WAT     H215447   4.257   5.061   2.524
 5069WAT      O15448   0.140   9.032   2.451
 5069WAT     H115449   0.156   8.950   2.396
 5069WAT     H215450   0.063   9.084   2.413
 5070WAT      O15451   1.121   3.702   7.336
 5070WAT     H115452   1.210   3.688   7.291
 5070WAT     H215453   1.093   3.797   7.323
 5071WAT      O15454   8.360   8.504   0.856
 5071WAT     H115455   8.271   8.522   0.897
 5071WAT     H215456   8.351   8.503   0.756
 5072WAT      O15457   3.039   1.739   1.455
 5072WAT     H115458   3.082   1.809   1.513
 5072WAT     H215459   2.946   1.721   1.487
 5073WAT      O15460   7.066   9.230   6.875
 5073WAT     H115461   7.044   9.286   6.954
 5073WAT     H215462   7.119   9.150   6.905
 5074WAT      O15463   2.632   5.126   3.660
 5074WAT     H115464   2.664   5.164   3.746
 5074WAT     H215465   2.706   5.128   3.592
 5075WAT      O15466   2.378   8.898   1.562
 5075WAT     H115467   2.292   8.874   1.519
 5075WAT     H215468   2.454   8.866   1.505
 5076WAT      O15469   4.145   9.444   6.640
 5076WAT     H115470   4.099   9.366   6.682
 5076WAT     H215471   4.083   9.489   6.575
 5077WAT      O15472   3.993   9.269   6.795
 5077WAT     H115473   3.973   9.199   6.863
 5077WAT     H215474   3.993   9.359   6.839
 5078WAT      O15475   1.861   0.573   8.211
 5078WAT     H115476   1.943   0.552   8.264
 5078WAT     H215477   1.885   0.634   8.135
 5079WAT      O15478   9.321   3.170   9.081
 5079WAT     H115479   9.392   3.188   9.148
 5079WAT     H215480   9.362   3.159   8.991
 5080WAT      O15481   7.212   8.490   8.176
 5080WAT     H115482   7.308   8.512   8.159
 5080WAT     H215483   7.195   8.395   8.150
 5081WAT      O15484   4.840   2.903   4.652
 5081WAT     H115485   4.896   2.913   4.570
 5081WAT     H215486   4.792   2.989   4.671
 5082WAT      O15487   5.486   1.409   7.624
 5082WAT     H115488   5.531   1.378   7.540
 5082WAT     H215489   5.416   1.343   7.650
 5083WAT      O15490   7.686   1.487   5.647
 5083WAT     H115491   7.737   1.557   5.598
 5083WAT     H215492   7.588   1.499   5.630
 5084WAT      O15493   4.606   4.507   2.073
 5084WAT     H115494   4.575   4.416   2.045
 5084WAT     H215495   4.601   4.569   1.995
 5085WAT      O15496   9.209   8.480   6.307
 5085WAT     H115497   9.224   8.503   6.211
 5085WAT     H215498   9.275   8.411   6.336
 5086WAT      O15499   8.669   2.411   3.850
 5086WAT     H115500   8.755   2.409   3.799
 5086WAT     H215501   8.661   2.328   3.906
 5087WAT      O15502   0.934   2.759   7.788
 5087WAT     H115503   0.891   2.840   7.747
 5087WAT     H215504   0.981   2.785   7.872
 5088WAT      O15505   8.488   6.317   6.300
 5088WAT     H115506   8.400   6.270   6.299
 5088WAT     H215507   8.561   6.249   6.313
 5089WAT      O15508   6.450   9.431   0.878
 5089WAT     H115509   6.425   9.465   0.969
 5089WAT     H215510   6.384   9.361   0.849
 5090WAT      O15511   4.576   8.742   7.792
 5090WAT     H115512   4.584   8.801   7.712
 5090WAT     H215513   4.605   8.649   7.769
 5091WAT      O15514   1.048   1.258   5.070
 5091WAT     H115515   0.978   1.195   5.037
 5091WAT     H215516   1.071   1.235   5.164
 5092WAT      O15517   5.148   2.596   0.644
 5092WAT     H115518   5.112   2.681   0.606
 5092WAT     H215519   5.082   2.522   0.627
 5093WAT      O15520   8.049   7.573   8.076
 5093WAT     H115521   8.125   7.615   8.026
 5093WAT     H215522   8.082   7.492   8.125
 5094WAT      O15523   9.855   0.532   0.929
 5094WAT     H115524   9.920   0.493   0.994
 5094WAT     H215525   9.805   0.457   0.884
 5095WAT      O15526   5.914   0.942   0.835
 5095WAT     H115527   5.872   0.857   0.804
 5095WAT     H215528   5.912   1.010   0.762
 5096WAT      O15529   1.783   9.842   1.989
 5096WAT     H115530   1.753   9.746   1.986
 5096WAT     H215531   1.816   9.863   2.080
 5097WAT      O15532   7.582   6.777   2.099
 5097WAT     H115533   7.677   6.782   2.067
 5097WAT     H215534   7.572   6.696   2.157
 5098WAT      O15535   3.332   2.660   9.093
 5098WAT     H115536   3.327   2.706   9.004
 5098WAT     H215537   3.267   2.704   9.156
 5099WAT      O15538   1.813   6.482   7.613
 5099WAT     H115539   1.730   6.435   7.641
 5099WAT     H215540   1.859   6.429   7.541
 5100WAT      O15541   3.945   7.354   6.511
 5100WAT     H115542   3.878   7.316   6.447
 5100WAT     H215543   3.967   7.448   6.485
 5101WAT      O15544   7.349   5.900   3.682
 5101WAT     H115545   7.255   5.897   3.718
 5101WAT     H215546   7.402   5.824   3.721
 5102WAT      O15547   5.985   9.182   0.561
 5102WAT     H115548   5.938   9.141   0.640
 5102WAT     H215549   6.017   9.274   0.586
 5103WAT      O15550   1.017   1.547   6.151
 5103WAT     H115551   1.034   1.454   6.120
 5103WAT     H215552   1.102   1.588   6.183
 5104WAT      O15553   5.575   0.544   1.362
 5104WAT     H115554   5.571   0.470   1.294
 5104WAT     H215555   5.664   0.543   1.407
 5105WAT      O15556   6.362   2.925   0.626
 5105WAT     H115557   6.368   2.943   0.528
 5105WAT     H215558   6.448   2.950   0.670
 5106WAT      O15559   8.906   5.392   3.635
 5106WAT     H115560   8.935   5.466   3.695
 5106WAT     H215561   8.900   5.307   3.688
 5107WAT      O15562   9.082   1.060   0.960
 5107WAT     H115563   9.129   0.974   0.978
 5107WAT     H215564   9.107   1.127   1.030
 5108WAT      O15565   3.130   5.619   1.688
 5108WAT     H115566   3.107   5.523   1.674
 5108WAT     H215567   3.052   5.665   1.731
 5109WAT      O15568   8.720   7.668   8.568
 5109WAT     H115569   8.798   7.650   8.509
 5109WAT     H215570   8.651   7.722   8.519
 5110WAT      O15571   4.719   3.502   9.730
 5110WAT     H115572   4.802   3.511   9.785
 5110WAT     H215573   4.736   3.539   9.638
 5111WAT      O15574   8.010   4.888   5.710
 5111WAT     H115575   7.997   4.820   5.638
 5111WAT     H215576   8.015   4.979   5.669
 5112WAT      O15577   8.471   1.126   5.125
 5112WAT     H115578   8.469   1.053   5.193
 5112WAT     H215579   8.467   1.215   5.170
 5113WAT      O15580   1.858   3.683   0.169
 5113WAT     H115581   1.806   3.764   0.196
 5113WAT     H215582   1.952   3.689   0.202
 5114WAT      O15583   6.656   7.191   0.927
 5114WAT     H115584   6.690   7.234   1.011
 5114WAT     H215585   6.690   7.240   0.847
 5115WAT      O15586   6.398   6.549   5.251
 5115WAT     H115587   6.396   6.641   5.289
 5115WAT     H215588   6.441   6.487   5.317
 5116WAT      O15589   7.773   7.533   9.101
 5116WAT     H115590   7.802   7.447   9.061
 5116WAT     H215591   7.786   7.607   9.035
 5117WAT      O15592   6.860   8.839   1.601
 5117WAT     H115593   6.952   8.872   1.580
 5117WAT     H215594   6.793   8.910   1.581
 5118WAT      O15595   6.587   8.988   3.663
 5118WAT     H115596   6.530   8.912   3.694
 5118WAT     H215597   6.624   8.968   3.572
 5119WAT      O15598   9.120   1.838   6.648
 5119WAT     H115599   9.118   1.936   6.631
 5119WAT     H215600   9.090   1.820   6.742
 5120WAT      O15601   7.653   3.370   8.924
 5120WAT     H115602   7.692   3.394   9.012
 5120WAT     H215603   7.591   3.442   8.894
 5121WAT      O15604   8.767   2.603   5.231
 5121WAT     H115605   8.769   2.591   5.330
 5121WAT     H215606   8.714   2.685   5.208
 5122WAT      O15607   4.350   9.129   5.074
 5122WAT     H115608   4.341   9.188   4.994
 5122WAT     H215609   4.432   9.072   5.064
 5123WAT      O15610   1.114   2.059   5.896
 5123WAT     H115611   1.194   2.074   5.837
 5123WAT     H215612   1.036   2.034   5.839
 5124WAT      O15613   4.777   3.479   1.441
 5124WAT     H115614   4.708   3.440   1.380
 5124WAT     H215615   4.735   3.549   1.498
 5125WAT      O15616   6.121   3.497   4.388
 5125WAT     H115617   6.090   3.516   4.481
 5125WAT     H215618   6.051   3.526   4.323
 5126WAT      O15619   1.528   0.129   4.703
 5126WAT     H115620   1.584   0.192   4.758
 5126WAT     H215621   1.433   0.159   4.705
 5127WAT      O15622   5.671   0.844   5.017
 5127WAT     H115623   5.660   0.745   5.011
 5127WAT     H215624   5.762   0.869   4.982
 5128WAT      O15625   5.582   4.870   1.981
 5128WAT     H115626   5.609   4.965   1.966
 5128WAT     H215627   5.630   4.834   2.061
 5129WAT      O15628   8.494   1.728   8.514
 5129WAT     H115629   8.588   1.698   8.497
 5129WAT     H215630   8.495   1.820   8.552
 5130WAT      O15631   0.294   4.299   2.325
 5130WAT     H115632   0.385   4.338   2.308
 5130WAT     H215633   0.234   4.371   2.359
 5131WAT      O15634   1.146   5.280   8.340
 5131WAT     H115635   1.135   5.378   8.356
 5131WAT     H215636   1.244   5.257   8.340
 5132WAT      O15637   2.326   8.407   2.399
 5132WAT     H115638   2.247   8.348   2.413
 5132WAT     H215639   2.324   8.483   2.464
 5133WAT      O15640   1.857   9.576   1.286
 5133WAT     H115641   1.924   9.518   1.333
 5133WAT     H215642   1.773   9.581   1.340
 5134WAT      O15643   6.224   1.606   6.820
 5134WAT     H115644   6.144   1.663   6.799
 5134WAT     H215645   6.195   1.511   6.831
 5135WAT      O15646   4.450   5.458   6.125
 5135WAT     H115647   4.405   5.523   6.186
 5135WAT     H215648   4.511   5.507   6.063
 5136WAT      O15649   0.183   0.445   1.372
 5136WAT     H115650   0.271   0.425   1.415
 5136WAT     H215651   0.176   0.395   1.286
 5137WAT      O15652   5.328   8.060   8.639
 5137WAT     H115653   5.234   8.065   8.673
 5137WAT     H215654   5.380   8.138   8.675
 5138WAT      O15655   2.076   0.521   0.379
 5138WAT     H115656   2.064   0.618   0.400
 5138WAT     H215657   2.020   0.497   0.300
 5139WAT      O15658   8.036   7.426   3.349
 5139WAT     H115659   7.980   7.509   3.362
 5139WAT     H215660   7.975   7.347   3.339
 5140WAT      O15661   6.580   6.559   6.399
 5140WAT     H115662   6.550   6.507   6.478
 5140WAT     H215663   6.671   6.598   6.417
 5141WAT      O15664   9.229   1.217   4.831
 5141WAT     H115665   9.319   1.197   4.792
 5141WAT     H215666   9.160   1.162   4.784
 5142WAT      O15667   7.777   0.940   8.387
 5142WAT     H115668   7.855   0.880   8.373
 5142WAT     H215669   7.809   1.032   8.410
 5143WAT      O15670   2.472   7.638   8.281
 5143WAT     H115671   2.523   7.647   8.366
 5143WAT     H215672   2.377   7.666   8.295
 5144WAT      O15673   6.675   7.325   1.803
 5144WAT     H115674   6.599   7.390   1.796
 5144WAT     H215675   6.658   7.247   1.743
 5145WAT      O15676   8.883   6.996   9.415
 5145WAT     H115677   8.845   7.067   9.356
 5145WAT     H215678   8.945   7.037   9.482
 5146WAT      O15679   2.182   2.989   7.052
 5146WAT     H115680   2.225   2.915   6.999
 5146WAT     H215681   2.084   2.974   7.056
 5147WAT      O15682   5.500   8.503   8.357
 5147WAT     H115683   5.457   8.443   8.289
 5147WAT     H215684   5.512   8.453   8.443
 5148WAT      O15685   4.368   8.890   9.411
 5148WAT     H115686   4.436   8.952   9.449
 5148WAT     H215687   4.413   8.812   9.369
 5149WAT      O15688   0.746   0.096   0.620
 5149WAT     H115689   0.817   0.055   0.563
 5149WAT     H215690   0.689   0.024   0.659
 5150WAT      O15691   0.927   1.016   9.761
 5150WAT     H115692   0.912   1.070   9.677
 5150WAT     H215693   0.993   1.064   9.819
 5151WAT      O15694   4.396   9.802   0.854
 5151WAT     H115695   4.351   9.812   0.765
 5151WAT     H215696   4.420   9.706   0.868
 5152WAT      O15697   9.323   0.378   0.238
 5152WAT     H115698   9.331   0.279   0.233
 5152WAT     H215699   9.239   0.403   0.287
 5153WAT      O15700   2.396   7.501   3.073
 5153WAT     H115701   2.449   7.421   3.044
 5153WAT     H215702   2.309   7.502   3.023
 5154WAT      O15703   4.937   8.272   9.652
 5154WAT     H115704   4.870   8.311   9.589
 5154WAT     H215705   4.997   8.209   9.604
 5155WAT      O15706   7.593   1.630   1.309
 5155WAT     H115707   7.603   1.730   1.305
 5155WAT     H215708   7.508   1.603   1.264
 5156WAT      O15709   6.223   6.731   9.110
 5156WAT     H115710   6.155   6.737   9.182
 5156WAT     H215711   6.278   6.648   9.122
 5157WAT      O15712   3.622   4.492   4.276
 5157WAT     H115713   3.700   4.454   4.325
 5157WAT     H215714   3.654   4.535   4.192
 5158WAT      O15715   6.286   1.008   4.817
 5158WAT     H115716   6.333   0.995   4.905
 5158WAT     H215717   6.350   0.992   4.742
 5159WAT      O15718   2.939   4.406   0.627
 5159WAT     H115719   2.903   4.475   0.564
 5159WAT     H215720   2.940   4.317   0.582
 5160WAT      O15721   9.739   1.658   2.808
 5160WAT     H115722   9.803   1.689   2.879
 5160WAT     H215723   9.702   1.569   2.833
 5161WAT      O15724   8.851   0.295   4.521
 5161WAT     H115725   8.834   0.392   4.500
 5161WAT     H215726   8.926   0.288   4.587
 5162WAT      O15727   7.042   4.516   2.839
 5162WAT     H115728   7.103   4.555   2.908
 5162WAT     H215729   6.952   4.560   2.846
 5163WAT      O15730   1.105   2.237   6.608
 5163WAT     H115731   1.138   2.298   6.537
 5163WAT     H215732   1.051   2.289   6.674
 5164WAT      O15733   7.785   4.456   9.643
 5164WAT     H115734   7.826   4.417   9.725
 5164WAT     H215735   7.693   4.488   9.664
 5165WAT      O15736   2.634   7.572   1.744
 5165WAT     H115737   2.644   7.546   1.840
 5165WAT     H215738   2.601   7.666   1.738
 5166WAT      O15739   6.638   7.735   8.420
 5166WAT     H115740   6.625   7.812   8.358
 5166WAT     H215741   6.693   7.763   8.498
 5167WAT      O15742   6.960   0.715   5.621
 5167WAT     H115743   7.052   0.706   5.582
 5167WAT     H215744   6.892   0.685   5.555
 5168WAT      O15745   5.688   0.020   7.630
 5168WAT     H115746   5.784   0.047   7.624
 5168WAT     H215747   5.681  -0.080   7.639
 5169WAT      O15748   4.789   1.272   5.133
 5169WAT     H115749   4.809   1.360   5.176
 5169WAT     H215750   4.732   1.217   5.194
 5170WAT      O15751   3.695   8.510   3.531
 5170WAT     H115752   3.725   8.425   3.489
 5170WAT     H215753   3.722   8.587   3.473
 5171WAT      O15754   2.580   0.302   2.738
 5171WAT     H115755   2.587   0.304   2.638
 5171WAT     H215756   2.651   0.359   2.778
 5172WAT      O15757   3.136   8.179   4.934
 5172WAT     H115758   3.174   8.087   4.942
 5172WAT     H215759   3.205   8.246   4.958
 5173WAT      O15760   4.371   6.106   7.399
 5173WAT     H115761   4.423   6.041   7.453
 5173WAT     H215762   4.434   6.167   7.350
 5174WAT      O15763   7.228   7.009   7.697
 5174WAT     H115764   7.278   7.067   7.632
 5174WAT     H215765   7.267   6.917   7.695
 5175WAT      O15766   9.215   2.112   8.517
 5175WAT     H115767   9.234   2.019   8.550
 5175WAT     H215768   9.192   2.108   8.420
 5176WAT      O15769   7.404   0.907   0.444
 5176WAT     H115770   7.392   0.892   0.542
 5176WAT     H215771   7.400   1.005   0.424
 5177WAT      O15772   8.882   3.696   4.772
 5177WAT     H115773   8.809   3.653   4.720
 5177WAT     H215774   8.940   3.750   4.710
 5178WAT      O15775   6.983   4.307   0.255
 5178WAT     H115776   7.041   4.368   0.310
 5178WAT     H215777   6.995   4.213   0.286
 5179WAT      O15778   4.247   7.933   1.273
 5179WAT     H115779   4.269   8.002   1.342
 5179WAT     H215780   4.155   7.948   1.238
 5180WAT      O15781   4.951   5.979   5.841
 5180WAT     H115782   5.042   5.939   5.854
 5180WAT     H215783   4.887   5.908   5.811
 5181WAT      O15784   2.748   7.450   7.310
 5181WAT     H115785   2.735   7.481   7.216
 5181WAT     H215786   2.805   7.368   7.311
 5182WAT      O15787   3.295   0.985   0.383
 5182WAT     H115788   3.226   0.918   0.411
 5182WAT     H215789   3.280   1.070   0.433
 5183WAT      O15790   5.235   6.789   8.650
 5183WAT     H115791   5.258   6.699   8.614
 5183WAT     H215792   5.137   6.804   8.642
 5184WAT      O15793   4.840   0.615   5.196
 5184WAT     H115794   4.876   0.592   5.287
 5184WAT     H215795   4.746   0.647   5.204
 5185WAT      O15796   3.889   7.980   4.643
 5185WAT     H115797   3.902   8.035   4.726
 5185WAT     H215798   3.812   7.918   4.656
 5186WAT      O15799   7.276   0.785   6.334
 5186WAT     H115800   7.223   0.813   6.414
 5186WAT     H215801   7.357   0.843   6.325
 5187WAT      O15802   1.626   7.550   6.701
 5187WAT     H115803   1.687   7.617   6.743
 5187WAT     H215804   1.678   7.470   6.671
 5188WAT      O15805   1.568   1.991   8.839
 5188WAT     H115806   1.660   1.980   8.802
 5188WAT     H215807   1.568   2.063   8.908
 5189WAT      O15808   7.936   3.150   3.973
 5189WAT     H115809   8.020   3.112   3.934
 5189WAT     H215810   7.884   3.196   3.902
 5190WAT      O15811   9.742   1.598   8.973
 5190WAT     H115812   9.740   1.543   8.889
 5190WAT     H215813   9.795   1.549   9.042
 5191WAT      O15814   6.834   4.072   6.629
 5191WAT     H115815   6.782   4.136   6.573
 5191WAT     H215816   6.916   4.117   6.664
 5192WAT      O15817   3.342   9.484   0.590
 5192WAT     H115818   3.378   9.499   0.682
 5192WAT     H215819   3.251   9.525   0.582
 5193WAT      O15820   5.467   7.468   0.511
 5193WAT     H115821   5.531   7.426   0.448
 5193WAT     H215822   5.419   7.543   0.466
 5194WAT      O15823   5.818   5.516   4.030
 5194WAT     H115824   5.813   5.607   3.988
 5194WAT     H215825   5.744   5.507   4.097
 5195WAT      O15826   6.618   1.171   5.497
 5195WAT     H115827   6.573   1.220   5.572
 5195WAT     H215828   6.656   1.085   5.531
 5196WAT      O15829   3.146   7.459   8.182
 5196WAT     H115830   3.063   7.410   8.207
 5196WAT     H215831   3.180   7.426   8.094
 5197WAT      O15832   6.927   2.513   7.222
 5197WAT     H115833   6.970   2.431   7.260
 5197WAT     H215834   6.994   2.563   7.168
 5198WAT      O15835   8.226   2.522   0.522
 5198WAT     H115836   8.204   2.463   0.599
 5198WAT     H215837   8.148   2.581   0.501
 5199WAT      O15838   6.858   4.243   9.503
 5199WAT     H115839   6.935   4.221   9.442
 5199WAT     H215840   6.893   4.292   9.583
 5200WAT      O15841   7.282   8.150   5.282
 5200WAT     H115842   7.279   8.057   5.317
 5200WAT     H215843   7.373   8.169   5.243
 5201WAT      O15844   0.976   2.852   3.283
 5201WAT     H115845   0.898   2.828   3.225
 5201WAT     H215846   1.059   2.858   3.227
 5202WAT      O15847   4.543   5.183   8.799
 5202WAT     H115848   4.603   5.256   8.767
 5202WAT     H215849   4.459   5.183   8.745
 5203WAT      O15850   3.375   0.940   2.835
 5203WAT     H115851   3.379   0.937   2.935
 5203WAT     H215852   3.362   0.847   2.800
 5204WAT      O15853   1.508   5.796   7.986
 5204WAT     H115854   1.536   5.774   7.893
 5204WAT     H215855   1.409   5.801   7.992
 5205WAT      O15856   9.292   3.091   2.101
 5205WAT     H115857   9.325   2.999   2.077
 5205WAT     H215858   9.370   3.152   2.114
 5206WAT      O15859   0.227   5.673   4.011
 5206WAT     H115860   0.132   5.642   4.017
 5206WAT     H215861   0.229   5.769   3.986
 5207WAT      O15862   0.235   1.864   6.607
 5207WAT     H115863   0.235   1.865   6.707
 5207WAT     H215864   0.232   1.769   6.575
 5208WAT      O15865   8.813   0.680   5.774
 5208WAT     H115866   8.832   0.635   5.861
 5208WAT     H215867   8.721   0.655   5.743
 5209WAT      O15868   9.520   6.940   5.213
 5209WAT     H115869   9.462   6.861   5.236
 5209WAT     H215870   9.464   7.023   5.214
 5210WAT      O15871   7.127   1.114   3.868
 5210WAT     H115872   7.042   1.133   3.917
 5210WAT     H215873   7.106   1.084   3.775
 5211WAT      O15874   5.210   4.620   4.358
 5211WAT     H115875   5.128   4.620   4.416
 5211WAT     H215876   5.275   4.688   4.393
 5212WAT      O15877   7.759   8.988   7.408
 5212WAT     H115878   7.823   9.065   7.401
 5212WAT     H215879   7.667   9.019   7.384
 5213WAT      O15880   0.076   3.472   4.443
 5213WAT     H115881   0.130   3.451   4.361
 5213WAT     H215882   0.032   3.561   4.431
 5214WAT      O15883   1.327   6.255   5.321
 5214WAT     H115884   1.408   6.197   5.309
 5214WAT     H215885   1.325   6.290   5.414
 5215WAT      O15886   5.490   7.595   5.876
 5215WAT     H115887   5.509   7.607   5.778
 5215WAT     H215888   5.555   7.648   5.929
 5216WAT      O15889   6.024   0.371   9.719
 5216WAT     H115890   6.053   0.466   9.721
 5216WAT     H215891   6.046   0.332   9.630
 5217WAT      O15892   3.928   0.339   8.471
 5217WAT     H115893   3.846   0.282   8.476
 5217WAT     H215894   4.007   0.281   8.446
 5218WAT      O15895   7.556   6.343   2.916
 5218WAT     H115896   7.493   6.284   2.866
 5218WAT     H215897   7.547   6.326   3.014
 5219WAT      O15898   2.045   7.827   1.265
 5219WAT     H115899   1.994   7.903   1.304
 5219WAT     H215900   2.028   7.821   1.167
 5220WAT      O15901   6.066   4.457   2.978
 5220WAT     H115902   6.161   4.470   3.007
 5220WAT     H215903   6.037   4.364   3.001
 5221WAT      O15904   9.680   6.571   4.057
 5221WAT     H115905   9.679   6.663   4.096
 5221WAT     H215906   9.720   6.574   3.965
 5222WAT      O15907   0.313   2.170   6.642
 5222WAT     H115908   0.331   2.160   6.740
 5222WAT     H215909   0.331   2.084   6.596
 5223WAT      O15910   5.562   2.806   6.185
 5223WAT     H115911   5.603   2.760   6.107
 5223WAT     H215912   5.629   2.812   6.260
 5224WAT      O15913   9.114   2.771   4.995
 5224WAT     H115914   9.081   2.678   5.014
 5224WAT     H215915   9.207   2.766   4.956
 5225WAT      O15916   3.236   3.144   2.158
 5225WAT     H115917   3.282   3.067   2.115
 5225WAT     H215918   3.297   3.223   2.159
 5226WAT      O15919   0.916   3.867   6.465
 5226WAT     H115920   0.834   3.882   6.410
 5226WAT     H215921   0.953   3.955   6.494
 5227WAT      O15922   5.893   5.033   7.348
 5227WAT     H115923   5.842   5.000   7.268
 5227WAT     H215924   5.974   5.081   7.317
 5228WAT      O15925   6.465   7.289   2.494
 5228WAT     H115926   6.390   7.319   2.554
 5228WAT     H215927   6.506   7.205   2.530
 5229WAT      O15928   2.084   2.044   5.551
 5229WAT     H115929   2.138   1.971   5.593
 5229WAT     H215930   2.096   2.040   5.451
 5230WAT      O15931   7.257   8.806   4.491
 5230WAT     H115932   7.222   8.775   4.579
 5230WAT     H215933   7.335   8.749   4.464
 5231WAT      O15934   2.654   0.736   8.405
 5231WAT     H115935   2.703   0.823   8.417
 5231WAT     H215936   2.571   0.752   8.353
 5232WAT      O15937   8.709   4.083   0.875
 5232WAT     H115938   8.788   4.045   0.827
 5232WAT     H215939   8.661   4.147   0.815
 5233WAT      O15940   4.238   9.208   0.137
 5233WAT     H115941   4.216   9.187   0.042
 5233WAT     H215942   4.274   9.126   0.182
 5234WAT      O15943   7.579   6.039   7.414
 5234WAT     H115944   7.530   6.059   7.329
 5234WAT     H215945   7.667   6.087   7.415
 5235WAT      O15946   9.160   2.468   3.520
 5235WAT     H115947   9.076   2.491   3.471
 5235WAT     H215948   9.141   2.395   3.586
 5236WAT      O15949   2.364   1.830   2.294
 5236WAT     H115950   2.417   1.807   2.376
 5236WAT     H215951   2.266   1.822   2.314
 5237WAT      O15952   7.058   2.877   3.545
 5237WAT     H115953   7.156   2.896   3.549
 5237WAT     H215954   7.032   2.819   3.622
 5238WAT      O15955   3.073   7.770   6.163
 5238WAT     H115956   2.974   7.766   6.148
 5238WAT     H215957   3.120   7.725   6.087
 5239WAT      O15958   6.651   5.000   7.837
 5239WAT     H115959   6.667   5.079   7.778
 5239WAT     H215960   6.631   5.031   7.930
 5240WAT      O15961   6.985   1.429   1.300
 5240WAT     H115962   6.965   1.526   1.289
 5240WAT     H215963   6.906   1.383   1.340
 5241WAT      O15964   5.344   0.651   0.489
 5241WAT     H115965   5.259   0.604   0.467
 5241WAT     H215966   5.349   0.667   0.588
 5242WAT      O15967   3.177   7.824   8.836
 5242WAT     H115968   3.136   7.822   8.927
 5242WAT     H215969   3.238   7.746   8.825
 5243WAT      O15970   3.769   8.437   6.091
 5243WAT     H115971   3.777   8.414   5.994
 5243WAT     H215972   3.707   8.515   6.102
 5244WAT      O15973   3.887   8.935   2.238
 5244WAT     H115974   3.855   8.941   2.333
 5244WAT     H215975   3.899   9.027   2.201
 5245WAT      O15976   8.304   6.802   9.043
 5245WAT     H115977   8.218   6.799   8.993
 5245WAT     H215978   8.378   6.825   8.980
 5246WAT      O15979   6.177   4.135   4.406
 5246WAT     H115980   6.218   4.046   4.383
 5246WAT     H215981   6.159   4.139   4.504
 5247WAT      O15982   0.204   6.220   7.863
 5247WAT     H115983   0.139   6.179   7.926
 5247WAT     H215984   0.164   6.224   7.771
 5248WAT      O15985   5.770   2.452   8.691
 5248WAT     H115986   5.689   2.402   8.721
 5248WAT     H215987   5.744   2.518   8.620
 5249WAT      O15988   4.745   0.986   5.058
 5249WAT     H115989   4.806   1.046   5.006
 5249WAT     H215990   4.791   0.953   5.140
 5250WAT      O15991   9.226   0.658   8.095
 5250WAT     H115992   9.267   0.630   8.182
 5250WAT     H215993   9.185   0.748   8.106
 5251WAT      O15994   1.516   6.792   6.887
 5251WAT     H115995   1.542   6.783   6.983
 5251WAT     H215996   1.472   6.708   6.856
 5252WAT      O15997   4.285   2.824   8.335
 5252WAT     H115998   4.326   2.849   8.247
 5252WAT     H215999   4.188   2.847   8.334
 5253WAT      O16000   4.667   4.291   0.392
 5253WAT     H116001   4.567   4.294   0.386
 5253WAT     H216002   4.706   4.365   0.337
 5254WAT      O16003   3.969   0.258   1.592
 5254WAT     H116004   4.011   0.172   1.565
 5254WAT     H216005   3.929   0.248   1.684
 5255WAT      O16006   2.984   9.446   2.530
 5255WAT     H116007   3.050   9.503   2.578
 5255WAT     H216008   2.922   9.504   2.477
 5256WAT      O16009   0.333   5.410   0.467
 5256WAT     H116010   0.397   5.333   0.467
 5256WAT     H216011   0.284   5.413   0.381
 5257WAT      O16012   5.183   6.714   1.468
 5257WAT     H116013   5.261   6.740   1.411
 5257WAT     H216014   5.139   6.633   1.430
 5258WAT      O16015   6.558   3.602   2.791
 5258WAT     H116016   6.561   3.516   2.842
 5258WAT     H216017   6.469   3.610   2.745
 5259WAT      O16018   5.098   7.864   5.270
 5259WAT     H116019   5.082   7.768   5.247
 5259WAT     H216020   5.104   7.917   5.185
 5260WAT      O16021   3.891   5.120   1.589
 5260WAT     H116022   3.937   5.207   1.573
 5260WAT     H216023   3.809   5.135   1.644
 5261WAT      O16024   5.802   0.506   7.874
 5261WAT     H116025   5.723   0.525   7.932
 5261WAT     H216026   5.880   0.480   7.931
 5262WAT      O16027   6.062   9.335   6.401
 5262WAT     H116028   6.036   9.260   6.463
 5262WAT     H216029   6.159   9.328   6.378
 5263WAT      O16030   3.707   8.145   1.337
 5263WAT     H116031   3.714   8.176   1.242
 5263WAT     H216032   3.793   8.101   1.363
 5264WAT      O16033   0.716   4.793   9.304
 5264WAT     H116034   0.785   4.754   9.365
 5264WAT     H216035   0.678   4.876   9.344
 5265WAT      O16036   2.012   7.145   2.905
 5265WAT     H116037   1.968   7.060   2.933
 5265WAT     H216038   2.107   7.126   2.880
 5266WAT      O16039   4.525   3.332   6.276
 5266WAT     H116040   4.548   3.412   6.330
 5266WAT     H216041   4.560   3.250   6.321
 5267WAT      O16042   6.463   8.045   3.845
 5267WAT     H116043   6.555   8.007   3.835
 5267WAT     H216044   6.395   7.972   3.839
 5268WAT      O16045   9.008   8.915   0.156
 5268WAT     H116046   9.001   9.009   0.188
 5268WAT     H216047   9.034   8.915   0.059
 5269WAT      O16048   7.062   2.601   3.126
 5269WAT     H116049   7.032   2.584   3.220
 5269WAT     H216050   7.033   2.526   3.068
 5270WAT      O16051   7.717   4.986   4.372
 5270WAT     H116052   7.635   5.027   4.331
 5270WAT     H216053   7.790   4.982   4.303
 5271WAT      O16054   5.644   5.218   8.656
 5271WAT     H116055   5.691   5.213   8.568
 5271WAT     H216056   5.690   5.285   8.715
 5272WAT      O16057   7.684   7.932   5.183
 5272WAT     H116058   7.686   7.892   5.275
 5272WAT     H216059   7.701   7.860   5.116
 5273WAT      O16060   6.369   2.572   5.930
 5273WAT     H116061   6.289   2.632   5.935
 5273WAT     H216062   6.365   2.505   6.003
 5274WAT      O16063   5.788   2.487   4.813
 5274WAT     H116064   5.864   2.500   4.877
 5274WAT     H216065   5.705   2.462   4.865
 5275WAT      O16066   6.457   3.958   7.665
 5275WAT     H116067   6.414   3.899   7.597
 5275WAT     H216068   6.418   4.050   7.659
 5276WAT      O16069   0.648   4.466   1.336
 5276WAT     H116070   0.743   4.484   1.364
 5276WAT     H216071   0.610   4.392   1.392
 5277WAT      O16072   0.205   6.404   9.725
 5277WAT     H116073   0.245   6.478   9.779
 5277WAT     H216074   0.250   6.400   9.636
 5278WAT      O16075   7.040   4.472   2.339
 5278WAT     H116076   6.977   4.439   2.269
 5278WAT     H216077   7.010   4.439   2.428
 5279WAT      O16078   8.965   7.006   2.070
 5279WAT     H116079   8.924   6.915   2.061
 5279WAT     H216080   9.013   7.029   1.985
 5280WAT      O16081   7.141   4.211   1.621
 5280WAT     H116082   7.164   4.126   1.670
 5280WAT     H216083   7.154   4.289   1.682
 5281WAT      O16084   5.092   5.280   9.672
 5281WAT     H116085   5.099   5.338   9.753
 5281WAT     H216086   5.095   5.184   9.700
 5282WAT      O16087   2.018   6.097   9.762
 5282WAT     H116088   2.046   6.019   9.818
 5282WAT     H216089   2.061   6.091   9.672
 5283WAT      O16090   7.609   2.066   9.002
 5283WAT     H116091   7.564   2.156   9.006
 5283WAT     H216092   7.541   1.994   9.019
 5284WAT      O16093   1.978   8.928   4.619
 5284WAT     H116094   1.957   9.019   4.581
 5284WAT     H216095   2.074   8.927   4.650
 5285WAT      O16096   6.494   5.944   1.853
 5285WAT     H116097   6.525   5.996   1.773
 5285WAT     H216098   6.482   5.848   1.827
 5286WAT      O16099   0.300   3.505   9.395
 5286WAT     H116100   0.227   3.462   9.447
 5286WAT     H216101   0.261   3.563   9.323
 5287WAT      O16102   8.574   6.411   7.414
 5287WAT     H116103   8.572   6.470   7.495
 5287WAT     H216104   8.629   6.330   7.434
 5288WAT      O16105   5.049   0.585   3.476
 5288WAT     H116106   5.132   0.607   3.528
 5288WAT     H216107   5.016   0.494   3.504
 5289WAT      O16108   5.385   5.832   6.901
 5289WAT     H116109   5.481   5.840   6.874
 5289WAT     H216110   5.379   5.786   6.990
 5290WAT      O16111   4.072   1.202   8.345
 5290WAT     H116112   4.083   1.294   8.384
 5290WAT     H216113   3.987   1.161   8.378
 5291WAT      O16114   5.392   2.107   8.644
 5291WAT     H116115   5.401   2.017   8.687
 5291WAT     H216116   5.358   2.096   8.550
 5292WAT      O16117   8.836   9.056   2.291
 5292WAT     H116118   8.747   9.098   2.273
 5292WAT     H216119   8.902   9.087   2.223
 5293WAT      O16120   4.585   1.082   8.141
 5293WAT     H116121   4.679   1.117   8.147
 5293WAT     H216122   4.570   1.015   8.214
 5294WAT      O16123   7.086   4.035   0.765
 5294WAT     H116124   7.022   3.959   0.753
 5294WAT     H216125   7.179   3.999   0.774
 5295WAT      O16126   3.188   2.681   6.270
 5295WAT     H116127   3.226   2.633   6.191
 5295WAT     H216128   3.239   2.766   6.285
 5296WAT      O16129   1.436   3.738   9.549
 5296WAT     H116130   1.357   3.697   9.594
 5296WAT     H216131   1.414   3.756   9.453
 5297WAT      O16132   2.964   0.504   4.091
 5297WAT     H116133   3.035   0.553   4.142
 5297WAT     H216134   2.889   0.480   4.153
 5298WAT      O16135   9.540   5.858   1.394
 5298WAT     H116136   9.560   5.760   1.387
 5298WAT     H216137   9.487   5.875   1.477
 5299WAT      O16138   1.274   2.117   3.579
 5299WAT     H116139   1.303   2.089   3.671
 5299WAT     H216140   1.304   2.048   3.513
 5300WAT      O16141   2.820   7.339   5.216
 5300WAT     H116142   2.902   7.347   5.160
 5300WAT     H216143   2.740   7.369   5.164
 5301WAT      O16144   3.155   2.146   7.292
 5301WAT     H116145   3.133   2.243   7.304
 5301WAT     H216146   3.238   2.124   7.342
 5302WAT      O16147   1.784   6.405   2.030
 5302WAT     H116148   1.710   6.355   2.074
 5302WAT     H216149   1.756   6.500   2.015
 5303WAT      O16150   1.487   6.085   5.794
 5303WAT     H116151   1.564   6.149   5.789
 5303WAT     H216152   1.411   6.129   5.841
 5304WAT      O16153   2.617   2.522   5.651
 5304WAT     H116154   2.647   2.599   5.596
 5304WAT     H216155   2.591   2.553   5.742
 5305WAT      O16156   2.936   2.218   5.192
 5305WAT     H116157   2.982   2.169   5.265
 5305WAT     H216158   2.986   2.205   5.106
 5306WAT      O16159   5.451   3.534   0.349
 5306WAT     H116160   5.499   3.569   0.429
 5306WAT     H216161   5.354   3.559   0.354
 5307WAT      O16162   3.098   0.800   0.040
 5307WAT     H116163   3.126   0.704   0.049
 5307WAT     H216164   3.059   0.815  -0.051
 5308WAT      O16165   9.065   7.793   3.802
 5308WAT     H116166   8.970   7.815   3.826
 5308WAT     H216167   9.125   7.866   3.835
 5309WAT      O16168   2.463   2.953   5.530
 5309WAT     H116169   2.510   2.870   5.498
 5309WAT     H216170   2.430   2.939   5.623
 5310WAT      O16171   8.922   4.314   6.649
 5310WAT     H116172   8.849   4.321   6.717
 5310WAT     H216173   9.011   4.324   6.694
 5311WAT      O16174   3.382   7.487   7.517
 5311WAT     H116175   3.413   7.581   7.501
 5311WAT     H216176   3.292   7.474   7.475
 5312WAT      O16177   0.552   5.635   1.297
 5312WAT     H116178   0.566   5.685   1.382
 5312WAT     H216179   0.468   5.580   1.303
 5313WAT      O16180   3.866   6.793   3.991
 5313WAT     H116181   3.836   6.701   4.014
 5313WAT     H216182   3.858   6.853   4.071
 5314WAT      O16183   4.500   2.753   4.134
 5314WAT     H116184   4.503   2.819   4.209
 5314WAT     H216185   4.409   2.752   4.094
 5315WAT      O16186   3.235   1.669   6.969
 5315WAT     H116187   3.225   1.626   6.879
 5315WAT     H216188   3.252   1.767   6.958
 5316WAT      O16189   0.727   6.153   0.894
 5316WAT     H116190   0.718   6.158   0.795
 5316WAT     H216191   0.807   6.097   0.917
 5317WAT      O16192   1.417   2.261   4.363
 5317WAT     H116193   1.487   2.252   4.292
 5317WAT     H216194   1.344   2.195   4.345
 5318WAT      O16195   3.626   8.799   2.932
 5318WAT     H116196   3.550   8.783   2.994
 5318WAT     H216197   3.628   8.728   2.862
 5319WAT      O16198   3.872   4.862   9.407
 5319WAT     H116199   3.949   4.803   9.432
 5319WAT     H216200   3.861   4.934   9.476
 5320WAT      O16201   2.041   1.399   9.712
 5320WAT     H116202   2.020   1.326   9.647
 5320WAT     H216203   1.962   1.415   9.771
 5321WAT      O16204   0.477   0.293   1.152
 5321WAT     H116205   0.454   0.296   1.055
 5321WAT     H216206   0.470   0.199   1.185
 5322WAT      O16207   5.088   4.825   1.395
 5322WAT     H116208   5.051   4.912   1.428
 5322WAT     H216209   5.176   4.808   1.438
 5323WAT      O16210   3.489   3.814   2.497
 5323WAT     H116211   3.506   3.717   2.513
 5323WAT     H216212   3.391   3.829   2.487
 5324WAT      O16213   9.833   8.289   2.005
 5324WAT     H116214   9.886   8.228   2.064
 5324WAT     H216215   9.736   8.280   2.026
 5325WAT      O16216   4.106   3.080   7.940
 5325WAT     H116217   4.061   3.096   7.852
 5325WAT     H216218   4.204   3.070   7.926
 5326WAT      O16219   5.712   1.538   9.273
 5326WAT     H116220   5.784   1.490   9.323
 5326WAT     H216221   5.746   1.628   9.244
 5327WAT      O16222   2.392   8.065   7.766
 5327WAT     H116223   2.400   7.967   7.750
 5327WAT     H216224   2.472   8.112   7.728
 5328WAT      O16225   2.992   5.883   2.472
 5328WAT     H116226   2.896   5.912   2.466
 5328WAT     H216227   3.001   5.813   2.543
 5329WAT      O16228   7.399   4.835   1.055
 5329WAT     H116229   7.343   4.881   0.986
 5329WAT     H216230   7.419   4.899   1.130
 5330WAT      O16231   3.525   0.058   3.224
 5330WAT     H116232   3.557   0.118   3.297
 5330WAT     H216233   3.428   0.039   3.236
 5331WAT      O16234   9.433   9.135   0.957
 5331WAT     H116235   9.416   9.047   0.914
 5331WAT     H216236   9.421   9.208   0.890
 5332WAT      O16237   8.591   1.578   6.527
 5332WAT     H116238   8.515   1.568   6.591
 5332WAT     H216239   8.602   1.494   6.475
 5333WAT      O16240   6.210   5.348   2.747
 5333WAT     H116241   6.223   5.291   2.667
 5333WAT     H216242   6.113   5.375   2.754
 5334WAT      O16243   2.524   0.524   3.011
 5334WAT     H116244   2.571   0.610   2.992
 5334WAT     H216245   2.441   0.519   2.955
 5335WAT      O16246   9.417   4.088   1.641
 5335WAT     H116247   9.451   4.147   1.568
 5335WAT     H216248   9.328   4.120   1.671
 5336WAT      O16249   2.837   8.887   9.702
 5336WAT     H116250   2.825   8.982   9.731
 5336WAT     H216251   2.931   8.874   9.670
 5337WAT      O16252   8.784   3.373   8.177
 5337WAT     H116253   8.727   3.295   8.154
 5337WAT     H216254   8.869   3.369   8.124
 5338WAT      O16255   7.627   2.465   0.233
 5338WAT     H116256   7.706   2.508   0.277
 5338WAT     H216257   7.550   2.528   0.234
 5339WAT      O16258   7.058   6.179   4.478
 5339WAT     H116259   7.039   6.131   4.563
 5339WAT     H216260   7.086   6.273   4.498
 5340WAT      O16261   8.822   6.690   0.343
 5340WAT     H116262   8.868   6.760   0.289
 5340WAT     H216263   8.769   6.631   0.282
 5341WAT      O16264   1.842   0.046   7.422
 5341WAT     H116265   1.883  -0.037   7.460
 5341WAT     H216266   1.910   0.119   7.421
 5342WAT      O16267   2.669   2.118   9.531
 5342WAT     H116268   2.740   2.061   9.490
 5342WAT     H216269   2.680   2.213   9.501
 5343WAT      O16270   2.292   0.026   3.518
 5343WAT     H116271   2.293  -0.045   3.447
 5343WAT     H216272   2.228   0.000   3.590
 5344WAT      O16273   3.837   6.055   7.505
 5344WAT     H116274   3.839   6.151   7.534
 5344WAT     H216275   3.746   6.033   7.467
 5345WAT      O16276   2.679   5.346   1.485
 5345WAT     H116277   2.679   5.288   1.567
 5345WAT     H216278   2.688   5.442   1.512
 5346WAT      O16279   3.167   7.605   1.193
 5346WAT     H116280   3.224   7.655   1.128
 5346WAT     H216281   3.094   7.558   1.144
 5347WAT      O16282   0.218   8.575   2.001
 5347WAT     H116283   0.124   8.603   2.023
 5347WAT     H216284   0.280   8.613   2.070
 5348WAT      O16285   6.787   2.646   1.953
 5348WAT     H116286   6.822   2.734   1.919
 5348WAT     H216287   6.860   2.596   1.999
 5349WAT      O16288   8.888   2.012   2.985
 5349WAT     H116289   8.894   1.912   2.980
 5349WAT     H216290   8.887   2.041   3.080
 5350WAT      O16291   6.589   1.430   6.724
 5350WAT     H116292   6.514   1.457   6.664
 5350WAT     H216293   6.554   1.370   6.796
 5351WAT      O16294   4.051   6.184   9.429
 5351WAT     H116295   4.041   6.166   9.331
 5351WAT     H216296   4.148   6.198   9.450
 5352WAT      O16297   0.747   3.692   9.780
 5352WAT     H116298   0.654   3.668   9.809
 5352WAT     H216299   0.769   3.641   9.697
 5353WAT      O16300   4.393   4.980   3.670
 5353WAT     H116301   4.350   4.967   3.760
 5353WAT     H216302   4.381   4.897   3.616
 5354WAT      O16303   5.385   6.163   0.293
 5354WAT     H116304   5.289   6.155   0.266
 5354WAT     H216305   5.444   6.150   0.213
 5355WAT      O16306   5.244   4.234   8.548
 5355WAT     H116307   5.168   4.298   8.539
 5355WAT     H216308   5.310   4.270   8.614
 5356WAT      O16309   6.830   5.453   3.636
 5356WAT     H116310   6.777   5.496   3.563
 5356WAT     H216311   6.873   5.524   3.693
 5357WAT      O16312   6.754   6.897   6.200
 5357WAT     H116313   6.786   6.804   6.182
 5357WAT     H216314   6.813   6.940   6.269
 5358WAT      O16315   5.740   1.191   1.647
 5358WAT     H116316   5.804   1.262   1.617
 5358WAT     H216317   5.733   1.121   1.576
 5359WAT      O16318   4.051   1.111   5.733
 5359WAT     H116319   4.102   1.196   5.723
 5359WAT     H216320   4.078   1.065   5.817
 5360WAT      O16321   7.332   1.251   1.055
 5360WAT     H116322   7.370   1.217   1.141
 5360WAT     H216323   7.342   1.351   1.052
 5361WAT      O16324   0.279   1.325   2.377
 5361WAT     H116325   0.346   1.316   2.451
 5361WAT     H216326   0.291   1.413   2.332
 5362WAT      O16327   2.496   0.921   6.048
 5362WAT     H116328   2.593   0.897   6.046
 5362WAT     H216329   2.449   0.876   5.972
 5363WAT      O16330   1.849   0.816   6.554
 5363WAT     H116331   1.915   0.754   6.596
 5363WAT     H216332   1.861   0.815   6.454
 5364WAT      O16333   8.759   2.310   8.496
 5364WAT     H116334   8.699   2.292   8.418
 5364WAT     H216335   8.759   2.231   8.557
 5365WAT      O16336   4.565   3.370   7.182
 5365WAT     H116337   4.602   3.457   7.151
 5365WAT     H216338   4.529   3.380   7.275
 5366WAT      O16339   2.178   3.327   9.872
 5366WAT     H116340   2.173   3.252   9.807
 5366WAT     H216341   2.137   3.409   9.832
 5367WAT      O16342   7.094   1.576   5.025
 5367WAT     H116343   7.060   1.509   5.091
 5367WAT     H216344   7.031   1.581   4.948
 5368WAT      O16345   3.971   5.077   0.775
 5368WAT     H116346   3.878   5.045   0.759
 5368WAT     H216347   4.019   5.012   0.834
 5369WAT      O16348   1.733   1.254   8.404
 5369WAT     H116349   1.727   1.176   8.341
 5369WAT     H216350   1.700   1.336   8.358
 5370WAT      O16351   2.925   7.467   3.742
 5370WAT     H116352   2.899   7.370   3.742
 5370WAT     H216353   2.983   7.485   3.662
 5371WAT      O16354   6.436   4.562   9.805
 5371WAT     H116355   6.452   4.597   9.898
 5371WAT     H216356   6.509   4.593   9.745
 5372WAT      O16357   0.635   4.459   0.479
 5372WAT     H116358   0.555   4.495   0.527
 5372WAT     H216359   0.717   4.476   0.534
 5373WAT      O16360   0.769   7.439   1.696
 5373WAT     H116361   0.712   7.358   1.681
 5373WAT     H216362   0.749   7.478   1.786
 5374WAT      O16363   3.634   0.817   4.611
 5374WAT     H116364   3.658   0.830   4.515
 5374WAT     H216365   3.539   0.787   4.617
 5375WAT      O16366   2.331   1.825   1.231
 5375WAT     H116367   2.364   1.917   1.213
 5375WAT     H216368   2.407   1.760   1.228
 5376WAT      O16369   2.227   4.247   3.568
 5376WAT     H116370   2.283   4.239   3.651
 5376WAT     H216371   2.279   4.295   3.498
 5377WAT      O16372   9.829   3.173   3.240
 5377WAT     H116373   9.747   3.128   3.274
 5377WAT     H216374   9.823   3.271   3.257
 5378WAT      O16375   3.176   9.559   6.154
 5378WAT     H116376   3.221   9.474   6.125
 5378WAT     H216377   3.213   9.587   6.243
 5379WAT      O16378   3.301   8.324   5.784
 5379WAT     H116379   3.316   8.289   5.692
 5379WAT     H216380   3.203   8.336   5.801
 5380WAT      O16381   4.663   7.086   2.787
 5380WAT     H116382   4.703   7.153   2.850
 5380WAT     H216383   4.681   7.114   2.693
 5381WAT      O16384   7.050   8.540   6.559
 5381WAT     H116385   6.983   8.614   6.560
 5381WAT     H216386   7.012   8.459   6.603
 5382WAT      O16387   2.910   6.534   9.480
 5382WAT     H116388   2.811   6.550   9.485
 5382WAT     H216389   2.947   6.526   9.572
 5383WAT      O16390   9.386   0.756   8.750
 5383WAT     H116391   9.356   0.778   8.843
 5383WAT     H216392   9.395   0.841   8.697
 5384WAT      O16393   6.699   0.182   4.071
 5384WAT     H116394   6.760   0.130   4.012
 5384WAT     H216395   6.610   0.192   4.026
 5385WAT      O16396   3.954   0.998   2.262
 5385WAT     H116397   4.029   0.983   2.197
 5385WAT     H216398   3.951   0.924   2.329
 5386WAT      O16399   5.695   0.214   9.044
 5386WAT     H116400   5.617   0.248   8.992
 5386WAT     H216401   5.683   0.237   9.140
 5387WAT      O16402   0.880   5.979   6.972
 5387WAT     H116403   0.869   6.067   6.924
 5387WAT     H216404   0.947   5.923   6.924
 5388WAT      O16405   0.359   6.264   4.430
 5388WAT     H116406   0.435   6.324   4.405
 5388WAT     H216407   0.301   6.310   4.497
 5389WAT      O16408   5.611   9.221   7.501
 5389WAT     H116409   5.530   9.254   7.453
 5389WAT     H216410   5.671   9.174   7.436
 5390WAT      O16411   9.425   3.492   3.986
 5390WAT     H116412   9.475   3.405   3.994
 5390WAT     H216413   9.422   3.520   3.890
 5391WAT      O16414   2.849   9.445   3.392
 5391WAT     H116415   2.943   9.475   3.374
 5391WAT     H216416   2.836   9.352   3.359
 5392WAT      O16417   4.304   0.311   3.162
 5392WAT     H116418   4.302   0.244   3.088
 5392WAT     H216419   4.214   0.317   3.204
 5393WAT      O16420   6.011   7.157   7.038
 5393WAT     H116421   6.019   7.115   7.129
 5393WAT     H216422   6.086   7.222   7.025
 5394WAT      O16423   0.601   2.298   3.112
 5394WAT     H116424   0.531   2.340   3.170
 5394WAT     H216425   0.560   2.267   3.027
 5395WAT      O16426   9.795   3.653   6.883
 5395WAT     H116427   9.870   3.694   6.935
 5395WAT     H216428   9.782   3.558   6.911
 5396WAT      O16429   9.305   6.581   4.950
 5396WAT     H116430   9.266   6.667   4.917
 5396WAT     H216431   9.402   6.577   4.926
 5397WAT      O16432   4.446   8.059   9.210
 5397WAT     H116433   4.515   8.044   9.280
 5397WAT     H216434   4.365   8.003   9.230
 5398WAT      O16435   8.824   9.693   0.054
 5398WAT     H116436   8.852   9.618   0.114
 5398WAT     H216437   8.739   9.668   0.006
 5399WAT      O16438   4.052   2.357   8.730
 5399WAT     H116439   4.113   2.380   8.806
 5399WAT     H216440   4.079   2.408   8.648
 5400WAT      O16441   1.081   1.377   4.834
 5400WAT     H116442   1.079   1.347   4.929
 5400WAT     H216443   1.096   1.298   4.774
 5401WAT      O16444   9.661   6.613   0.783
 5401WAT     H116445   9.580   6.657   0.821
 5401WAT     H216446   9.635   6.530   0.734
 5402WAT      O16447   8.212   9.266   1.410
 5402WAT     H116448   8.294   9.264   1.352
 5402WAT     H216449   8.165   9.353   1.398
 5403WAT      O16450   7.865   4.265   4.177
 5403WAT     H116451   7.769   4.260   4.201
 5403WAT     H216452   7.919   4.292   4.257
 5404WAT      O16453   9.238   9.775   3.136
 5404WAT     H116454   9.177   9.812   3.205
 5404WAT     H216455   9.294   9.702   3.176
 5405WAT      O16456   6.940   8.624   9.098
 5405WAT     H116457   6.900   8.532   9.099
 5405WAT     H216458   6.883   8.685   9.153
 5406WAT      O16459   0.319   3.127   1.856
 5406WAT     H116460   0.295   3.094   1.948
 5406WAT     H216461   0.250   3.193   1.825
 5407WAT      O16462   3.916   6.221   1.117
 5407WAT     H116463   3.844   6.165   1.157
 5407WAT     H216464   3.875   6.288   1.055
 5408WAT      O16465   8.736   0.812   5.262
 5408WAT     H116466   8.653   0.816   5.317
 5408WAT     H216467   8.737   0.727   5.209
 5409WAT      O16468   2.397   4.517   1.762
 5409WAT     H116469   2.335   4.458   1.710
 5409WAT     H216470   2.343   4.584   1.813
 5410WAT      O16471   6.409   1.684   2.345
 5410WAT     H116472   6.390   1.618   2.272
 5410WAT     H216473   6.508   1.686   2.363
 5411WAT      O16474   7.135   6.764   8.504
 5411WAT     H116475   7.102   6.844   8.453
 5411WAT     H216476   7.158   6.792   8.597
 5412WAT      O16477   8.455   0.739   6.303
 5412WAT     H116478   8.475   0.668   6.235
 5412WAT     H216479   8.540   0.786   6.327
 5413WAT      O16480   3.106   8.046   4.434
 5413WAT     H116481   3.029   8.096   4.395
 5413WAT     H216482   3.095   7.948   4.416
 5414WAT      O16483   3.612   7.486   6.117
 5414WAT     H116484   3.512   7.490   6.126
 5414WAT     H216485   3.653   7.552   6.180
 5415WAT      O16486   9.778   8.798   3.968
 5415WAT     H116487   9.682   8.778   3.987
 5415WAT     H216488   9.835   8.763   4.042
 5416WAT      O16489   7.988   5.219   2.195
 5416WAT     H116490   7.933   5.138   2.177
 5416WAT     H216491   8.071   5.217   2.139
 5417WAT      O16492   3.168   8.903   5.422
 5417WAT     H116493   3.077   8.892   5.461
 5417WAT     H216494   3.161   8.950   5.334
 5418WAT      O16495   0.547   2.823   2.182
 5418WAT     H116496   0.638   2.831   2.141
 5418WAT     H216497   0.538   2.735   2.228
 5419WAT      O16498   8.512   3.022   6.150
 5419WAT     H116499   8.479   2.932   6.179
 5419WAT     H216500   8.465   3.048   6.065
 5420WAT      O16501   9.659   0.190   5.883
 5420WAT     H116502   9.663   0.280   5.839
 5420WAT     H216503   9.679   0.200   5.981
 5421WAT      O16504   2.806   3.243   3.757
 5421WAT     H116505   2.775   3.211   3.667
 5421WAT     H216506   2.886   3.190   3.785
 5422WAT      O16507   2.171   6.911   1.243
 5422WAT     H116508   2.089   6.963   1.220
 5422WAT     H216509   2.194   6.926   1.340
 5423WAT      O16510   9.389   8.724   4.242
 5423WAT     H116511   9.436   8.741   4.155
 5423WAT     H216512   9.429   8.783   4.313
 5424WAT      O16513   1.095   9.228   9.522
 5424WAT     H116514   1.131   9.276   9.602
 5424WAT     H216515   1.120   9.132   9.527
 5425WAT      O16516   3.258   2.498   8.450
 5425WAT     H116517   3.320   2.430   8.411
 5425WAT     H216518   3.293   2.530   8.538
 5426WAT      O16519   5.500   0.117   7.429
 5426WAT     H116520   5.418   0.060   7.437
 5426WAT     H216521   5.563   0.096   7.504
 5427WAT      O16522   1.400   1.015   9.390
 5427WAT     H116523   1.346   0.948   9.339
 5427WAT     H216524   1.433   0.974   9.475
 5428WAT      O16525   1.051   2.645   1.657
 5428WAT     H116526   0.967   2.606   1.619
 5428WAT     H216527   1.115   2.665   1.583
 5429WAT      O16528   6.205   4.623   9.715
 5429WAT     H116529   6.200   4.565   9.634
 5429WAT     H216530   6.292   4.607   9.762
 5430WAT      O16531   3.665   4.123   9.248
 5430WAT     H116532   3.740   4.157   9.192
 5430WAT     H216533   3.674   4.158   9.341
 5431WAT      O16534   6.169   1.310   5.072
 5431WAT     H116535   6.267   1.326   5.073
 5431WAT     H216536   6.144   1.263   4.987
 5432WAT      O16537   0.567   3.858   5.398
 5432WAT     H116538   0.527   3.887   5.311
 5432WAT     H216539   0.627   3.779   5.383
 5433WAT      O16540   1.803   4.187   0.549
 5433WAT     H116541   1.770   4.093   0.553
 5433WAT     H216542   1.740   4.242   0.494
 5434WAT      O16543   9.054   1.446   2.177
 5434WAT     H116544   8.965   1.463   2.220
 5434WAT     H216545   9.064   1.348   2.159
 5435WAT      O16546   9.891   4.573   3.919
 5435WAT     H116547   9.932   4.540   3.834
 5435WAT     H216548   9.794   4.594   3.903
 5436WAT      O16549   7.512   4.421   5.774
 5436WAT     H116550   7.454   4.487   5.820
 5436WAT     H216551   7.538   4.455   5.684
 5437WAT      O16552   0.802   6.592   2.344
 5437WAT     H116553   0.841   6.581   2.436
 5437WAT     H216554   0.708   6.560   2.344
 5438WAT      O16555   0.090   2.731   5.559
 5438WAT     H116556   0.185   2.762   5.566
 5438WAT     H216557   0.035   2.803   5.516
 5439WAT      O16558   4.739   0.785   5.779
 5439WAT     H116559   4.804   0.781   5.703
 5439WAT     H216560   4.787   0.766   5.865
 5440WAT      O16561   2.659   4.141   2.297
 5440WAT     H116562   2.679   4.234   2.329
 5440WAT     H216563   2.612   4.090   2.369
 5441WAT      O16564   9.168   6.856   4.210
 5441WAT     H116565   9.235   6.784   4.190
 5441WAT     H216566   9.076   6.819   4.197
 5442WAT      O16567   7.994   1.065   9.805
 5442WAT     H116568   8.079   1.116   9.793
 5442WAT     H216569   7.926   1.123   9.851
 5443WAT      O16570   5.073   1.529   6.540
 5443WAT     H116571   5.051   1.583   6.459
 5443WAT     H216572   5.167   1.496   6.534
 5444WAT      O16573   6.513   8.437   2.554
 5444WAT     H116574   6.494   8.370   2.626
 5444WAT     H216575   6.427   8.464   2.511
 5445WAT      O16576   4.977   9.684   8.996
 5445WAT     H116577   4.918   9.692   8.916
 5445WAT     H216578   5.056   9.746   8.985
 5446WAT      O16579   0.421   4.856   5.851
 5446WAT     H116580   0.428   4.766   5.808
 5446WAT     H216581   0.491   4.916   5.814
 5447WAT      O16582   7.510   5.961   9.682
 5447WAT     H116583   7.488   6.002   9.771
 5447WAT     H216584   7.536   5.866   9.695
 5448WAT      O16585   2.416   8.214   4.880
 5448WAT     H116586   2.349   8.215   4.955
 5448WAT     H216587   2.420   8.122   4.840
 5449WAT      O16588   6.082   6.599   5.926
 5449WAT     H116589   6.026   6.517   5.914
 5449WAT     H216590   6.177   6.573   5.940
 5450WAT      O16591   9.561   2.215   3.498
 5450WAT     H116592   9.476   2.210   3.550
 5450WAT     H216593   9.581   2.125   3.459
 5451WAT      O16594   9.060   5.771   9.108
 5451WAT     H116595   9.141   5.795   9.055
 5451WAT     H216596   8.993   5.846   9.103
 5452WAT      O16597   2.313   3.750   3.375
 5452WAT     H116598   2.350   3.708   3.292
 5452WAT     H216599   2.327   3.849   3.371
 5453WAT      O16600   6.152   3.544   2.428
 5453WAT     H116601   6.068   3.594   2.445
 5453WAT     H216602   6.177   3.551   2.331
 5454WAT      O16603   3.361   0.158   6.145
 5454WAT     H116604   3.312   0.092   6.088
 5454WAT     H216605   3.346   0.136   6.242
 5455WAT      O16606   7.489   5.853   5.961
 5455WAT     H116607   7.463   5.852   5.864
 5455WAT     H216608   7.520   5.762   5.988
 5456WAT      O16609   8.997   7.875   8.321
 5456WAT     H116610   8.930   7.949   8.310
 5456WAT     H216611   8.954   7.798   8.368
 5457WAT      O16612   9.337   1.615   8.016
 5457WAT     H116613   9.317   1.560   8.096
 5457WAT     H216614   9.338   1.557   7.935
 5458WAT      O16615   8.496   6.801   0.146
 5458WAT     H116616   8.527   6.785   0.239
 5458WAT     H216617   8.398   6.822   0.147
 5459WAT      O16618   7.457   4.248   8.454
 5459WAT     H116619   7.462   4.186   8.376
 5459WAT     H216620   7.369   4.236   8.501
 5460WAT      O16621   4.827   5.593   1.153
 5460WAT     H116622   4.750   5.625   1.208
 5460WAT     H216623   4.835   5.650   1.071
 5461WAT      O16624   7.635   6.801   4.450
 5461WAT     H116625   7.536   6.792   4.462
 5461WAT     H216626   7.682   6.767   4.531
 5462WAT      O16627   4.998   3.383   7.286
 5462WAT     H116628   4.995   3.406   7.383
 5462WAT     H216629   4.986   3.284   7.275
 5463WAT      O16630   6.313   2.749   9.586
 5463WAT     H116631   6.320   2.786   9.678
 5463WAT     H216632   6.226   2.701   9.575
 5464WAT      O16633   1.223   5.846   0.554
 5464WAT     H116634   1.304   5.886   0.596
 5464WAT     H216635   1.211   5.752   0.587
 5465WAT      O16636   3.980   6.872   8.273
 5465WAT     H116637   3.926   6.936   8.328
 5465WAT     H216638   4.010   6.796   8.331
 5466WAT      O16639   2.072   5.881   2.007
 5466WAT     H116640   2.017   5.798   2.013
 5466WAT     H216641   2.160   5.865   2.051
 5467WAT      O16642   3.245   0.380   9.176
 5467WAT     H116643   3.286   0.288   9.181
 5467WAT     H216644   3.146   0.371   9.162
 5468WAT      O16645   5.274   7.203   6.823
 5468WAT     H116646   5.207   7.136   6.855
 5468WAT     H216647   5.252   7.230   6.730
 5469WAT      O16648   3.392   8.425   1.262
 5469WAT     H116649   3.335   8.473   1.328
 5469WAT     H216650   3.368   8.328   1.261
 5470WAT      O16651   7.637   1.487   4.578
 5470WAT     H116652   7.592   1.536   4.503
 5470WAT     H216653   7.569   1.460   4.646
 5471WAT      O16654   4.938   8.473   2.243
 5471WAT     H116655   4.888   8.411   2.183
 5471WAT     H216656   4.874   8.537   2.285
 5472WAT      O16657   7.677   2.075   2.690
 5472WAT     H116658   7.609   2.034   2.630
 5472WAT     H216659   7.677   2.027   2.778
 5473WAT      O16660   5.067   0.417   4.829
 5473WAT     H116661   5.150   0.401   4.882
 5473WAT     H216662   4.993   0.446   4.891
 5474WAT      O16663   3.277   6.240   3.203
 5474WAT     H116664   3.362   6.240   3.255
 5474WAT     H216665   3.200   6.255   3.265
 5475WAT      O16666   0.450   3.769   6.343
 5475WAT     H116667   0.383   3.733   6.407
 5475WAT     H216668   0.537   3.719   6.354
 5476WAT      O16669   2.531   0.070   6.695
 5476WAT     H116670   2.503   0.138   6.627
 5476WAT     H216671   2.623   0.038   6.674
 5477WAT      O16672   0.825   6.500   6.056
 5477WAT     H116673   0.890   6.571   6.029
 5477WAT     H216674   0.874   6.425   6.101
 5478WAT      O16675   2.488   2.849   6.395
 5478WAT     H116676   2.577   2.884   6.365
 5478WAT     H216677   2.424   2.926   6.403
 5479WAT      O16678   7.405   3.638   6.454
 5479WAT     H116679   7.326   3.641   6.392
 5479WAT     H216680   7.426   3.543   6.475
 5480WAT      O16681   5.372   9.530   4.472
 5480WAT     H116682   5.399   9.626   4.465
 5480WAT     H216683   5.289   9.514   4.420
 5481WAT      O16684   4.212   4.772   5.993
 5481WAT     H116685   4.257   4.694   6.038
 5481WAT     H216686   4.114   4.753   5.983
 5482WAT      O16687   7.997   7.359   7.758
 5482WAT     H116688   8.064   7.430   7.736
 5482WAT     H216689   8.007   7.332   7.853
 5483WAT      O16690   8.330   4.008   1.725
 5483WAT     H116691   8.298   3.950   1.799
 5483WAT     H216692   8.298   3.971   1.637
 5484WAT      O16693   4.869   1.396   8.765
 5484WAT     H116694   4.875   1.466   8.694
 5484WAT     H216695   4.826   1.434   8.847
 5485WAT      O16696   5.129   6.315   7.311
 5485WAT     H116697   5.118   6.288   7.407
 5485WAT     H216698   5.104   6.412   7.301
 5486WAT      O16699   1.282   4.491   2.256
 5486WAT     H116700   1.276   4.413   2.194
 5486WAT     H216701   1.228   4.567   2.220
 5487WAT      O16702   9.183   3.552   9.842
 5487WAT     H116703   9.103   3.574   9.898
 5487WAT     H216704   9.204   3.455   9.852
 5488WAT      O16705   3.975   7.926   5.377
 5488WAT     H116706   4.052   7.913   5.315
 5488WAT     H216707   3.889   7.911   5.328
 5489WAT      O16708   9.357   1.778   6.202
 5489WAT     H116709   9.420   1.847   6.167
 5489WAT     H216710   9.286   1.760   6.135
 5490WAT      O16711   0.997   4.590   1.717
 5490WAT     H116712   1.088   4.624   1.742
 5490WAT     H216713   0.994   4.571   1.619
 5491WAT      O16714   0.827   0.184   6.412
 5491WAT     H116715   0.826   0.101   6.468
 5491WAT     H216716   0.765   0.251   6.452
 5492WAT      O16717   3.183   8.118   3.357
 5492WAT     H116718   3.252   8.063   3.404
 5492WAT     H216719   3.192   8.213   3.385
 5493WAT      O16720   1.335   7.578   7.876
 5493WAT     H116721   1.285   7.663   7.857
 5493WAT     H216722   1.369   7.580   7.970
 5494WAT      O16723   4.769   7.652   8.389
 5494WAT     H116724   4.672   7.627   8.386
 5494WAT     H216725   4.792   7.682   8.482
 5495WAT      O16726   6.766   4.142   5.480
 5495WAT     H116727   6.865   4.147   5.467
 5495WAT     H216728   6.746   4.094   5.566
 5496WAT      O16729   5.854   6.435   4.868
 5496WAT     H116730   5.951   6.452   4.884
 5496WAT     H216731   5.833   6.339   4.885
 5497WAT      O16732   2.854   2.104   4.347
 5497WAT     H116733   2.916   2.088   4.424
 5497WAT     H216734   2.793   2.180   4.368
 5498WAT      O16735   0.111   7.861   7.319
 5498WAT     H116736   0.013   7.873   7.304
 5498WAT     H216737   0.125   7.789   7.388
 5499WAT      O16738   6.043   6.792   5.195
 5499WAT     H116739   6.082   6.799   5.286
 5499WAT     H216740   5.964   6.854   5.187
 5500WAT      O16741   2.123   6.861   4.179
 5500WAT     H116742   2.169   6.942   4.216
 5500WAT     H216743   2.141   6.782   4.238
 5501WAT      O16744   0.672   7.486   7.293
 5501WAT     H116745   0.710   7.534   7.372
 5501WAT     H216746   0.579   7.517   7.275
 5502WAT      O16747   0.946   0.677   0.506
 5502WAT     H116748   1.039   0.711   0.498
 5502WAT     H216749   0.923   0.621   0.426
 5503WAT      O16750   5.851   5.974   6.625
 5503WAT     H116751   5.785   5.979   6.700
 5503WAT     H216752   5.803   5.963   6.538
 5504WAT      O16753   0.458   8.371   5.856
 5504WAT     H116754   0.520   8.437   5.898
 5504WAT     H216755   0.470   8.282   5.900
 5505WAT      O16756   8.048   6.621   1.246
 5505WAT     H116757   8.009   6.618   1.339
 5505WAT     H216758   8.059   6.716   1.218
 5506WAT      O16759   6.393   1.946   3.123
 5506WAT     H116760   6.423   1.908   3.035
 5506WAT     H216761   6.456   2.017   3.152
 5507WAT      O16762   2.060   9.351   9.514
 5507WAT     H116763   2.019   9.285   9.577
 5507WAT     H216764   2.084   9.435   9.564
 5508WAT      O16765   8.064   4.795   4.290
 5508WAT     H116766   8.093   4.766   4.382
 5508WAT     H216767   7.973   4.759   4.272
 5509WAT      O16768   1.431   7.796   4.021
 5509WAT     H116769   1.522   7.829   3.994
 5509WAT     H216770   1.361   7.854   3.980
 5510WAT      O16771   1.727   9.348   2.293
 5510WAT     H116772   1.809   9.321   2.243
 5510WAT     H216773   1.742   9.439   2.333
 5511WAT      O16774   4.362   9.653   4.885
 5511WAT     H116775   4.409   9.656   4.797
 5511WAT     H216776   4.373   9.561   4.924
 5512WAT      O16777   6.777   5.927   2.832
 5512WAT     H116778   6.691   5.892   2.869
 5512WAT     H216779   6.760   5.969   2.743
 5513WAT      O16780   1.834   8.605   0.799
 5513WAT     H116781   1.839   8.561   0.709
 5513WAT     H216782   1.762   8.674   0.799
 5514WAT      O16783   8.789   1.907   9.265
 5514WAT     H116784   8.758   1.999   9.245
 5514WAT     H216785   8.712   1.843   9.260
 5515WAT      O16786   4.869   2.062   1.349
 5515WAT     H116787   4.934   1.986   1.355
 5515WAT     H216788   4.881   2.122   1.428
 5516WAT      O16789   7.301   1.703   6.558
 5516WAT     H116790   7.350   1.786   6.532
 5516WAT     H216791   7.243   1.673   6.483
 5517WAT      O16792   2.027   5.956   6.266
 5517WAT     H116793   2.041   5.961   6.167
 5517WAT     H216794   1.954   6.019   6.292
 5518WAT      O16795   5.030   6.811   4.213
 5518WAT     H116796   5.054   6.845   4.304
 5518WAT     H216797   5.072   6.869   4.143
 5519WAT      O16798   2.948   0.028   0.995
 5519WAT     H116799   2.962   0.067   0.904
 5519WAT     H216800   3.026  -0.028   1.020
 5520WAT      O16801   5.743   4.360   1.386
 5520WAT     H116802   5.757   4.273   1.339
 5520WAT     H216803   5.817   4.374   1.453
 5521WAT      O16804   6.102   9.640   2.572
 5521WAT     H116805   6.103   9.695   2.488
 5521WAT     H216806   6.117   9.700   2.650
 5522WAT      O16807   8.716   2.210   2.151
 5522WAT     H116808   8.663   2.289   2.117
 5522WAT     H216809   8.655   2.148   2.200
 5523WAT      O16810   1.035   1.852   0.558
 5523WAT     H116811   1.045   1.753   0.562
 5523WAT     H216812   1.090   1.889   0.484
 5524WAT      O16813   3.085   0.376   7.321
 5524WAT     H116814   3.160   0.390   7.385
 5524WAT     H216815   3.022   0.307   7.356
 5525WAT      O16816   9.524   1.567   5.972
 5525WAT     H116817   9.482   1.639   5.917
 5525WAT     H216818   9.493   1.574   6.067
 5526WAT      O16819   6.582   2.714   4.628
 5526WAT     H116820   6.577   2.662   4.713
 5526WAT     H216821   6.637   2.663   4.561
 5527WAT      O16822   1.443   2.512   9.211
 5527WAT     H116823   1.384   2.592   9.220
 5527WAT     H216824   1.399   2.445   9.152
 5528WAT      O16825   6.267   2.135   6.832
 5528WAT     H116826   6.262   2.153   6.930
 5528WAT     H216827   6.329   2.202   6.789
 5529WAT      O16828   2.523   7.554   7.948
 5529WAT     H116829   2.582   7.591   7.876
 5529WAT     H216830   2.457   7.624   7.975
 5530WAT      O16831   9.319   2.359   8.739
 5530WAT     H116832   9.240   2.415   8.762
 5530WAT     H216833   9.363   2.396   8.657
 5531WAT      O16834   8.161   7.242   7.249
 5531WAT     H116835   8.107   7.327   7.241
 5531WAT     H216836   8.257   7.265   7.266
 5532WAT      O16837   8.033   0.703   8.996
 5532WAT     H116838   7.987   0.631   8.944
 5532WAT     H216839   8.079   0.765   8.932
 5533WAT      O16840   0.654   5.456   0.153
 5533WAT     H116841   0.681   5.462   0.250
 5533WAT     H216842   0.597   5.535   0.130
 5534WAT      O16843   8.715   0.743   4.848
 5534WAT     H116844   8.650   0.773   4.778
 5534WAT     H216845   8.752   0.823   4.896
 5535WAT      O16846   8.332   5.220   8.368
 5535WAT     H116847   8.388   5.137   8.368
 5535WAT     H216848   8.239   5.197   8.397
 5536WAT      O16849   0.695   8.303   6.917
 5536WAT     H116850   0.657   8.271   7.003
 5536WAT     H216851   0.792   8.277   6.911
 5537WAT      O16852   6.050   6.024   7.467
 5537WAT     H116853   6.011   5.958   7.402
 5537WAT     H216854   6.125   6.073   7.424
 5538WAT      O16855   3.691   1.626   4.080
 5538WAT     H116856   3.696   1.671   3.991
 5538WAT     H216857   3.782   1.593   4.105
 5539WAT      O16858   9.233   8.347   3.908
 5539WAT     H116859   9.172   8.389   3.975
 5539WAT     H216860   9.190   8.350   3.818
 5540WAT      O16861   2.016   2.575   8.810
 5540WAT     H116862   2.093   2.529   8.765
 5540WAT     H216863   2.008   2.543   8.904
 5541WAT      O16864   8.530   6.452   9.519
 5541WAT     H116865   8.593   6.518   9.558
 5541WAT     H216866   8.438   6.469   9.553
 5542WAT      O16867   5.496   8.696   2.947
 5542WAT     H116868   5.463   8.760   3.017
 5542WAT     H216869   5.498   8.742   2.858
 5543WAT      O16870   4.999   2.395   8.339
 5543WAT     H116871   5.001   2.362   8.245
 5543WAT     H216872   5.080   2.363   8.388
 5544WAT      O16873   2.746   3.741   4.448
 5544WAT     H116874   2.716   3.704   4.360
 5544WAT     H216875   2.842   3.768   4.441
 5545WAT      O16876   3.908   5.237   9.800
 5545WAT     H116877   3.999   5.272   9.777
 5545WAT     H216878   3.866   5.296   9.869
 5546WAT      O16879   6.821   8.339   7.656
 5546WAT     H116880   6.743   8.399   7.670
 5546WAT     H216881   6.905   8.388   7.681
 5547WAT      O16882   1.179   1.308   1.612
 5547WAT     H116883   1.172   1.390   1.555
 5547WAT     H216884   1.228   1.330   1.696
 5548WAT      O16885   7.806   0.291   6.377
 5548WAT     H116886   7.773   0.350   6.451
 5548WAT     H216887   7.875   0.339   6.323
 5549WAT      O16888   0.687   5.477   3.518
 5549WAT     H116889   0.774   5.429   3.506
 5549WAT     H216890   0.665   5.481   3.616
 5550WAT      O16891   7.674   1.500   1.924
 5550WAT     H116892   7.668   1.465   1.831
 5550WAT     H216893   7.769   1.501   1.953
 5551WAT      O16894   5.411   7.208   7.550
 5551WAT     H116895   5.457   7.206   7.639
 5551WAT     H216896   5.382   7.301   7.530
 5552WAT      O16897   0.008   3.020   4.101
 5552WAT     H116898  -0.001   3.103   4.046
 5552WAT     H216899  -0.009   3.041   4.197
 5553WAT      O16900   7.614   3.596   0.704
 5553WAT     H116901   7.531   3.570   0.754
 5553WAT     H216902   7.627   3.534   0.627
 5554WAT      O16903   5.240   7.097   4.784
 5554WAT     H116904   5.191   7.012   4.765
 5554WAT     H216905   5.174   7.171   4.797
 5555WAT      O16906   6.312   9.355   3.110
 5555WAT     H116907   6.238   9.333   3.173
 5555WAT     H216908   6.280   9.422   3.043
 5556WAT      O16909   9.636   1.561   7.004
 5556WAT     H116910   9.646   1.527   7.098
 5556WAT     H216911   9.546   1.535   6.969
 5557WAT      O16912   7.958   0.849   4.393
 5557WAT     H116913   7.878   0.906   4.374
 5557WAT     H216914   7.959   0.771   4.331
 5558WAT      O16915   1.553   8.423   3.722
 5558WAT     H116916   1.634   8.396   3.671
 5558WAT     H216917   1.490   8.345   3.728
 5559WAT      O16918   7.973   4.133   1.899
 5559WAT     H116919   7.987   4.043   1.857
 5559WAT     H216920   7.885   4.169   1.871
 5560WAT      O16921   4.817   2.178   6.272
 5560WAT     H116922   4.782   2.226   6.352
 5560WAT     H216923   4.916   2.194   6.264
 5561WAT      O16924   6.686   7.329   4.670
 5561WAT     H116925   6.660   7.255   4.607
 5561WAT     H216926   6.622   7.405   4.660
 5562WAT      O16927   7.305   0.098   1.823
 5562WAT     H116928   7.216   0.137   1.849
 5562WAT     H216929   7.331   0.029   1.891
 5563WAT      O16930   1.664   3.023   1.100
 5563WAT     H116931   1.615   2.936   1.098
 5563WAT     H216932   1.600   3.097   1.081
 5564WAT      O16933   5.254   9.668   0.998
 5564WAT     H116934   5.281   9.732   1.069
 5564WAT     H216935   5.188   9.603   1.035
 5565WAT      O16936   3.471   2.744   1.056
 5565WAT     H116937   3.406   2.773   0.986
 5565WAT     H216938   3.439   2.777   1.146
 5566WAT      O16939   0.119   8.595   3.076
 5566WAT     H116940   0.159   8.687   3.074
 5566WAT     H216941   0.089   8.570   2.984
 5567WAT      O16942   7.723   7.554   9.744
 5567WAT     H116943   7.698   7.465   9.706
 5567WAT     H216944   7.792   7.597   9.686
 5568WAT      O16945   2.084   8.800   2.145
 5568WAT     H116946   2.060   8.703   2.135
 5568WAT     H216947   2.001   8.853   2.158
 5569WAT      O16948   2.288   5.557   8.711
 5569WAT     H116949   2.322   5.554   8.617
 5569WAT     H216950   2.360   5.527   8.774
 5570WAT      O16951   4.900   3.052   2.486
 5570WAT     H116952   4.957   3.126   2.449
 5570WAT     H216953   4.889   3.066   2.585
 5571WAT      O16954   1.334   1.171   3.665
 5571WAT     H116955   1.375   1.091   3.621
 5571WAT     H216956   1.404   1.242   3.676
 5572WAT      O16957   5.208   1.022   6.334
 5572WAT     H116958   5.145   0.976   6.397
 5572WAT     H216959   5.242   1.106   6.377
 5573WAT      O16960   6.466   3.862   3.117
 5573WAT     H116961   6.476   3.961   3.124
 5573WAT     H216962   6.402   3.839   3.044
 5574WAT      O16963   7.436   9.725   9.783
 5574WAT     H116964   7.480   9.714   9.694
 5574WAT     H216965   7.373   9.649   9.799
 5575WAT      O16966   1.823   4.134   4.903
 5575WAT     H116967   1.796   4.041   4.876
 5575WAT     H216968   1.828   4.192   4.822
 5576WAT      O16969   0.421   0.753   8.136
 5576WAT     H116970   0.476   0.784   8.058
 5576WAT     H216971   0.347   0.819   8.152
 5577WAT      O16972   0.369   1.160   3.515
 5577WAT     H116973   0.381   1.179   3.417
 5577WAT     H216974   0.455   1.177   3.563
 5578WAT      O16975   1.987   8.340   7.559
 5578WAT     H116976   2.078   8.298   7.561
 5578WAT     H216977   1.945   8.331   7.650
 5579WAT      O16978   0.478   1.579   9.143
 5579WAT     H116979   0.473   1.679   9.147
 5579WAT     H216980   0.395   1.543   9.100
 5580WAT      O16981   2.177   4.389   6.520
 5580WAT     H116982   2.166   4.362   6.425
 5580WAT     H216983   2.132   4.477   6.535
 5581WAT      O16984   1.739   1.374   1.699
 5581WAT     H116985   1.822   1.381   1.643
 5581WAT     H216986   1.667   1.430   1.658
 5582WAT      O16987   9.437   5.717   9.173
 5582WAT     H116988   9.357   5.730   9.115
 5582WAT     H216989   9.467   5.806   9.209
 5583WAT      O16990   0.629   1.935   7.673
 5583WAT     H116991   0.643   1.942   7.772
 5583WAT     H216992   0.684   1.861   7.637
 5584WAT      O16993   4.311   0.989   5.544
 5584WAT     H116994   4.270   0.901   5.521
 5584WAT     H216995   4.310   1.048   5.463
 5585WAT      O16996   4.113   8.038   4.818
 5585WAT     H116997   4.108   8.118   4.877
 5585WAT     H216998   4.110   8.066   4.722
 5586WAT      O16999   2.583   8.328   3.305
 5586WAT     H117000   2.512   8.280   3.356
 5586WAT     H217001   2.670   8.321   3.354
 5587WAT      O17002   5.130   6.811   2.005
 5587WAT     H117003   5.227   6.789   1.995
 5587WAT     H217004   5.092   6.832   1.915
 5588WAT      O17005   9.717   6.320   1.602
 5588WAT     H117006   9.813   6.310   1.630
 5588WAT     H217007   9.713   6.353   1.508
 5589WAT      O17008   9.617   9.044   8.306
 5589WAT     H117009   9.558   9.069   8.229
 5589WAT     H217010   9.712   9.066   8.283
 5590WAT      O17011   3.942   5.000   0.339
 5590WAT     H117012   3.887   5.034   0.263
 5590WAT     H217013   4.014   4.939   0.305
 5591WAT      O17014   0.466   9.325   9.488
 5591WAT     H117015   0.402   9.331   9.565
 5591WAT     H217016   0.535   9.397   9.497
 5592WAT      O17017   6.217   0.124   6.987
 5592WAT     H117018   6.190   0.107   7.082
 5592WAT     H217019   6.141   0.099   6.926
 5593WAT      O17020   0.055   2.716   9.710
 5593WAT     H117021   0.091   2.771   9.635
 5593WAT     H217022   0.098   2.626   9.709
 5594WAT      O17023   7.443   4.324   3.088
 5594WAT     H117024   7.350   4.303   3.117
 5594WAT     H217025   7.490   4.376   3.160
 5595WAT      O17026   7.118   0.131   7.148
 5595WAT     H117027   7.199   0.188   7.159
 5595WAT     H217028   7.103   0.111   7.051
 5596WAT      O17029   2.933   8.650   1.142
 5596WAT     H117030   2.901   8.733   1.187
 5596WAT     H217031   2.989   8.674   1.063
 5597WAT      O17032   8.881   8.062   8.621
 5597WAT     H117033   8.933   8.137   8.661
 5597WAT     H217034   8.919   7.974   8.652
 5598WAT      O17035   5.354   6.914   4.432
 5598WAT     H117036   5.401   6.942   4.515
 5598WAT     H217037   5.400   6.953   4.352
 5599WAT      O17038   1.723   3.198   8.582
 5599WAT     H117039   1.713   3.295   8.605
 5599WAT     H217040   1.819   3.179   8.562
 5600WAT      O17041   6.766   3.336   7.546
 5600WAT     H117042   6.848   3.294   7.507
 5600WAT     H217043   6.742   3.417   7.493
 5601WAT      O17044   2.516   2.973   2.141
 5601WAT     H117045   2.430   2.922   2.133
 5601WAT     H217046   2.580   2.941   2.072
 5602WAT      O17047   1.420   0.543   9.726
 5602WAT     H117048   1.342   0.521   9.785
 5602WAT     H217049   1.443   0.640   9.736
 5603WAT      O17050   7.535   8.798   0.948
 5603WAT     H117051   7.635   8.797   0.954
 5603WAT     H217052   7.497   8.815   1.039
 5604WAT      O17053   4.225   1.798   3.776
 5604WAT     H117054   4.276   1.716   3.750
 5604WAT     H217055   4.289   1.873   3.795
 5605WAT      O17056   8.907   3.614   7.887
 5605WAT     H117057   8.836   3.576   7.828
 5605WAT     H217058   8.948   3.540   7.942
 5606WAT      O17059   4.260   5.747   0.316
 5606WAT     H117060   4.328   5.769   0.246
 5606WAT     H217061   4.306   5.718   0.400
 5607WAT      O17062   1.833   7.203   7.562
 5607WAT     H117063   1.865   7.158   7.645
 5607WAT     H217064   1.746   7.249   7.580
 5608WAT      O17065   4.212   4.673   5.209
 5608WAT     H117066   4.294   4.622   5.234
 5608WAT     H217067   4.136   4.609   5.197
 5609WAT      O17068   9.673   9.245   0.519
 5609WAT     H117069   9.756   9.286   0.480
 5609WAT     H217070   9.696   9.157   0.560
 5610WAT      O17071   8.725   6.349   4.813
 5610WAT     H117072   8.712   6.437   4.768
 5610WAT     H217073   8.637   6.316   4.847
 5611WAT      O17074   8.127   5.493   7.155
 5611WAT     H117075   8.126   5.461   7.061
 5611WAT     H217076   8.032   5.501   7.188
 5612WAT      O17077   8.738   3.223   7.480
 5612WAT     H117078   8.716   3.150   7.415
 5612WAT     H217079   8.740   3.185   7.572
 5613WAT      O17080   6.934   8.654   2.284
 5613WAT     H117081   6.865   8.586   2.311
 5613WAT     H217082   6.891   8.724   2.228
 5614WAT      O17083   3.021   7.000   3.348
 5614WAT     H117084   3.064   7.090   3.349
 5614WAT     H217085   2.939   7.003   3.292
 5615WAT      O17086   5.631   3.557   6.054
 5615WAT     H117087   5.562   3.629   6.051
 5615WAT     H217088   5.703   3.578   5.988
 5616WAT      O17089   8.336   3.662   2.439
 5616WAT     H117090   8.432   3.661   2.411
 5616WAT     H217091   8.304   3.756   2.447
 5617WAT      O17092   0.753   4.713   8.088
 5617WAT     H117093   0.676   4.674   8.139
 5617WAT     H217094   0.727   4.727   7.993
 5618WAT      O17095   6.667   7.785   9.581
 5618WAT     H117096   6.728   7.837   9.641
 5618WAT     H217097   6.576   7.825   9.583
 5619WAT      O17098   0.923   6.030   7.701
 5619WAT     H117099   0.967   5.995   7.783
 5619WAT     H217100   0.901   6.127   7.713
 5620WAT      O17101   9.139   0.427   5.880
 5620WAT     H117102   9.170   0.357   5.816
 5620WAT     H217103   9.206   0.501   5.885
 5621WAT      O17104   4.555   8.692   0.698
 5621WAT     H117105   4.480   8.627   0.703
 5621WAT     H217106   4.637   8.652   0.739
 5622WAT      O17107   0.410   7.937   4.959
 5622WAT     H117108   0.405   8.034   4.983
 5622WAT     H217109   0.481   7.924   4.890
 5623WAT      O17110   1.994   8.774   7.732
 5623WAT     H117111   1.905   8.728   7.741
 5623WAT     H217112   2.061   8.708   7.698
 5624WAT      O17113   9.491   2.840   6.689
 5624WAT     H117114   9.536   2.760   6.729
 5624WAT     H217115   9.470   2.823   6.593
 5625WAT      O17116   5.319   7.645   2.481
 5625WAT     H117117   5.320   7.663   2.383
 5625WAT     H217118   5.311   7.547   2.497
 5626WAT      O17119   7.480   9.300   8.782
 5626WAT     H117120   7.500   9.391   8.817
 5626WAT     H217121   7.463   9.237   8.858
 5627WAT      O17122   1.433   1.630   1.125
 5627WAT     H117123   1.407   1.704   1.188
 5627WAT     H217124   1.352   1.578   1.099
 5628WAT      O17125   0.890   4.247   0.425
 5628WAT     H117126   0.820   4.269   0.357
 5628WAT     H217127   0.847   4.206   0.505
 5629WAT      O17128   3.870   2.643   0.717
 5629WAT     H117129   3.894   2.585   0.795
 5629WAT     H217130   3.840   2.586   0.641
 5630WAT      O17131   8.837   6.124   2.328
 5630WAT     H117132   8.773   6.201   2.333
 5630WAT     H217133   8.890   6.120   2.413
 5631WAT      O17134   2.906   0.435   0.910
 5631WAT     H117135   2.942   0.345   0.888
 5631WAT     H217136   2.980   0.497   0.934
 5632WAT      O17137   3.830   9.074   1.260
 5632WAT     H117138   3.875   9.143   1.204
 5632WAT     H217139   3.768   9.118   1.324
 5633WAT      O17140   2.426   5.681   4.251
 5633WAT     H117141   2.351   5.657   4.312
 5633WAT     H217142   2.391   5.694   4.159
 5634WAT      O17143   3.868   0.419   2.252
 5634WAT     H117144   3.853   0.325   2.282
 5634WAT     H217145   3.811   0.481   2.307
 5635WAT      O17146   8.767   0.642   0.293
 5635WAT     H117147   8.673   0.611   0.282
 5635WAT     H217148   8.803   0.609   0.381
 5636WAT      O17149   9.753   4.325   5.588
 5636WAT     H117150   9.757   4.396   5.658
 5636WAT     H217151   9.827   4.259   5.604
 5637WAT      O17152   9.168   3.373   8.988
 5637WAT     H117153   9.236   3.424   8.936
 5637WAT     H217154   9.211   3.291   9.027
 5638WAT      O17155   6.730   4.210   6.351
 5638WAT     H117156   6.774   4.146   6.287
 5638WAT     H217157   6.649   4.249   6.308
 5639WAT      O17158   2.176   0.636   5.352
 5639WAT     H117159   2.153   0.647   5.256
 5639WAT     H217160   2.234   0.555   5.364
 5640WAT      O17161   4.447   1.777   9.188
 5640WAT     H117162   4.384   1.846   9.153
 5640WAT     H217163   4.433   1.766   9.287
 5641WAT      O17164   1.510   0.817   7.337
 5641WAT     H117165   1.544   0.734   7.381
 5641WAT     H217166   1.585   0.881   7.323
 5642WAT      O17167   3.289   1.785   0.116
 5642WAT     H117168   3.266   1.818   0.207
 5642WAT     H217169   3.322   1.690   0.122
 5643WAT      O17170   0.598   7.466   6.988
 5643WAT     H117171   0.633   7.387   6.937
 5643WAT     H217172   0.671   7.501   7.047
 5644WAT      O17173   4.635   8.304   4.761
 5644WAT     H117174   4.596   8.235   4.822
 5644WAT     H217175   4.732   8.283   4.744
 5645WAT      O17176   2.913   7.570   2.798
 5645WAT     H117177   2.961   7.494   2.841
 5645WAT     H217178   2.818   7.545   2.780
 5646WAT      O17179   3.315   8.703   3.581
 5646WAT     H117180   3.343   8.608   3.591
 5646WAT     H217181   3.392   8.763   3.605
 5647WAT      O17182   7.361   5.513   9.836
 5647WAT     H117183   7.332   5.421   9.863
 5647WAT     H217184   7.394   5.562   9.916
 5648WAT      O17185   2.438   5.262   1.864
 5648WAT     H117186   2.366   5.296   1.802
 5648WAT     H217187   2.398   5.196   1.928
 5649WAT      O17188   9.876   8.495   1.079
 5649WAT     H117189   9.901   8.453   1.167
 5649WAT     H217190   9.909   8.589   1.076
 5650WAT      O17191   0.625   2.553   4.555
 5650WAT     H117192   0.579   2.472   4.591
 5650WAT     H217193   0.640   2.541   4.457
 5651WAT      O17194   9.800   8.307   9.685
 5651WAT     H117195   9.790   8.286   9.782
 5651WAT     H217196   9.712   8.297   9.639
 5652WAT      O17197   3.299   8.423   1.844
 5652WAT     H117198   3.267   8.486   1.914
 5652WAT     H217199   3.246   8.338   1.848
 5653WAT      O17200   9.626   8.022   2.893
 5653WAT     H117201   9.540   7.999   2.848
 5653WAT     H217202   9.650   7.950   2.958
 5654WAT      O17203   0.508   5.616   8.238
 5654WAT     H117204   0.447   5.622   8.316
 5654WAT     H217205   0.570   5.538   8.250
 5655WAT      O17206   3.464   3.013   3.099
 5655WAT     H117207   3.496   2.928   3.058
 5655WAT     H217208   3.451   3.081   3.027
 5656WAT      O17209   9.759   5.544   2.296
 5656WAT     H117210   9.754   5.634   2.252
 5656WAT     H217211   9.853   5.510   2.292
 5657WAT      O17212   4.934   6.974   5.122
 5657WAT     H117213   4.852   7.021   5.089
 5657WAT     H217214   4.950   6.892   5.068
 5658WAT      O17215   6.767   6.056   2.606
 5658WAT     H117216   6.711   6.044   2.524
 5658WAT     H217217   6.817   6.142   2.599
 5659WAT      O17218   9.611   8.567   9.046
 5659WAT     H117219   9.543   8.556   8.973
 5659WAT     H217220   9.698   8.527   9.017
 5660WAT      O17221   6.046   4.530   0.672
 5660WAT     H117222   5.967   4.583   0.641
 5660WAT     H217223   6.079   4.568   0.759
 5661WAT      O17224   1.670   7.137   1.419
 5661WAT     H117225   1.714   7.073   1.355
 5661WAT     H217226   1.571   7.136   1.404
 5662WAT      O17227   4.229   2.544   6.603
 5662WAT     H117228   4.240   2.622   6.664
 5662WAT     H217229   4.278   2.465   6.640
 5663WAT      O17230   4.594   1.540   6.514
 5663WAT     H117231   4.535   1.595   6.574
 5663WAT     H217232   4.683   1.528   6.557
 5664WAT      O17233   5.373   1.548   7.930
 5664WAT     H117234   5.391   1.595   8.016
 5664WAT     H217235   5.361   1.615   7.857
 5665WAT      O17236   0.944   8.294   6.159
 5665WAT     H117237   0.883   8.336   6.225
 5665WAT     H217238   1.038   8.299   6.192
 5666WAT      O17239   0.476   7.992   7.887
 5666WAT     H117240   0.557   8.012   7.943
 5666WAT     H217241   0.475   8.053   7.807
 5667WAT      O17242   4.452   8.007   6.403
 5667WAT     H117243   4.445   8.106   6.418
 5667WAT     H217244   4.426   7.958   6.486
 5668WAT      O17245   3.131   2.105   2.185
 5668WAT     H117246   3.195   2.116   2.109
 5668WAT     H217247   3.037   2.116   2.151
 5669WAT      O17248   0.474   0.206   9.657
 5669WAT     H117249   0.522   0.293   9.662
 5669WAT     H217250   0.427   0.198   9.568
 5670WAT      O17251   1.867   5.201   4.073
 5670WAT     H117252   1.892   5.123   4.015
 5670WAT     H217253   1.881   5.285   4.022
 5671WAT      O17254   6.360   4.920   5.532
 5671WAT     H117255   6.354   4.826   5.565
 5671WAT     H217256   6.273   4.967   5.550
 5672WAT      O17257   8.790   3.339   4.198
 5672WAT     H117258   8.789   3.331   4.098
 5672WAT     H217259   8.878   3.377   4.228
 5673WAT      O17260   1.642   5.709   2.857
 5673WAT     H117261   1.715   5.774   2.834
 5673WAT     H217262   1.558   5.760   2.879
 5674WAT      O17263   6.352   2.393   6.126
 5674WAT     H117264   6.408   2.323   6.172
 5674WAT     H217265   6.280   2.424   6.188
 5675WAT      O17266   9.884   6.217   2.461
 5675WAT     H117267   9.861   6.308   2.497
 5675WAT     H217268   9.977   6.193   2.487
 5676WAT      O17269   6.556   7.853   3.526
 5676WAT     H117270   6.645   7.844   3.480
 5676WAT     H217271   6.551   7.787   3.600
 5677WAT      O17272   6.085   8.403   8.672
 5677WAT     H117273   6.065   8.308   8.648
 5677WAT     H217274   6.185   8.415   8.676
 5678WAT      O17275   1.305   5.748   4.890
 5678WAT     H117276   1.403   5.755   4.911
 5678WAT     H217277   1.274   5.654   4.907
 5679WAT      O17278   0.915   0.079   5.184
 5679WAT     H117279   0.880   0.168   5.157
 5679WAT     H217280   0.927   0.021   5.103
 5680WAT      O17281   1.201   6.097   8.441
 5680WAT     H117282   1.207   6.062   8.535
 5680WAT     H217283   1.291   6.125   8.410
 5681WAT      O17284   5.407   8.382   7.723
 5681WAT     H117285   5.492   8.433   7.713
 5681WAT     H217286   5.427   8.288   7.749
 5682WAT      O17287   4.060   8.471   8.324
 5682WAT     H117288   4.130   8.400   8.330
 5682WAT     H217289   4.048   8.499   8.229
 5683WAT      O17290   9.594   4.858   1.088
 5683WAT     H117291   9.663   4.867   1.016
 5683WAT     H217292   9.612   4.775   1.141
 5684WAT      O17293   0.602   1.560   7.178
 5684WAT     H117294   0.511   1.550   7.219
 5684WAT     H217295   0.596   1.624   7.101
 5685WAT      O17296   3.305   9.211   6.661
 5685WAT     H117297   3.298   9.248   6.568
 5685WAT     H217298   3.269   9.277   6.726
 5686WAT      O17299   8.074   4.105   8.233
 5686WAT     H117300   8.091   4.041   8.158
 5686WAT     H217301   7.985   4.148   8.220
 5687WAT      O17302   0.346   6.877   8.799
 5687WAT     H117303   0.327   6.939   8.722
 5687WAT     H217304   0.324   6.783   8.773
 5688WAT      O17305   4.324   6.650   2.018
 5688WAT     H117306   4.341   6.612   1.927
 5688WAT     H217307   4.411   6.653   2.069
 5689WAT      O17308   3.421   9.146   9.068
 5689WAT     H117309   3.423   9.046   9.068
 5689WAT     H217310   3.470   9.180   9.148
 5690WAT      O17311   1.820   0.119   8.604
 5690WAT     H117312   1.817   0.087   8.509
 5690WAT     H217313   1.912   0.105   8.641
 5691WAT      O17314   3.707   8.645   4.694
 5691WAT     H117315   3.677   8.697   4.774
 5691WAT     H217316   3.711   8.548   4.717
 5692WAT      O17317   6.765   9.496   2.958
 5692WAT     H117318   6.680   9.488   2.906
 5692WAT     H217319   6.819   9.413   2.946
 5693WAT      O17320   1.984   4.143   5.124
 5693WAT     H117321   1.923   4.130   5.046
 5693WAT     H217322   1.932   4.146   5.209
 5694WAT      O17323   3.257   6.863   2.122
 5694WAT     H117324   3.258   6.911   2.034
 5694WAT     H217325   3.350   6.859   2.158
 5695WAT      O17326   9.245   5.536   3.345
 5695WAT     H117327   9.288   5.617   3.385
 5695WAT     H217328   9.308   5.459   3.349
 5696WAT      O17329   6.306   0.820   4.465
 5696WAT     H117330   6.276   0.914   4.447
 5696WAT     H217331   6.406   0.815   4.460
 5697WAT      O17332   1.335   0.929   2.752
 5697WAT     H117333   1.328   0.864   2.827
 5697WAT     H217334   1.357   1.020   2.787
 5698WAT      O17335   1.344   7.571   8.883
 5698WAT     H117336   1.318   7.657   8.839
 5698WAT     H217337   1.299   7.564   8.972
 5699WAT      O17338   2.313   2.114   3.813
 5699WAT     H117339   2.312   2.208   3.780
 5699WAT     H217340   2.226   2.093   3.858
 5700WAT      O17341   0.744   0.403   1.169
 5700WAT     H117342   0.767   0.431   1.262
 5700WAT     H217343   0.662   0.346   1.172
 5701WAT      O17344   1.025   5.996   6.645
 5701WAT     H117345   0.974   5.910   6.643
 5701WAT     H217346   0.962   6.071   6.663
 5702WAT      O17347   9.521   3.955   9.750
 5702WAT     H117348   9.444   3.891   9.749
 5702WAT     H217349   9.587   3.926   9.820
 5703WAT      O17350   6.375   8.067   3.237
 5703WAT     H117351   6.345   7.999   3.169
 5703WAT     H217352   6.367   8.028   3.329
 5704WAT      O17353   9.567   0.577   9.051
 5704WAT     H117354   9.473   0.568   9.084
 5704WAT     H217355   9.612   0.651   9.100
 5705WAT      O17356   6.141   6.446   7.498
 5705WAT     H117357   6.082   6.486   7.428
 5705WAT     H217358   6.091   6.375   7.548
 5706WAT      O17359   1.150   9.615   2.683
 5706WAT     H117360   1.069   9.608   2.625
 5706WAT     H217361   1.168   9.527   2.726
 5707WAT      O17362   7.556   8.220   8.869
 5707WAT     H117363   7.493   8.213   8.946
 5707WAT     H217364   7.619   8.296   8.883
 5708WAT      O17365   0.369   9.340   7.480
 5708WAT     H117366   0.318   9.367   7.399
 5708WAT     H217367   0.423   9.417   7.514
 5709WAT      O17368   4.511   2.881   2.725
 5709WAT     H117369   4.574   2.896   2.648
 5709WAT     H217370   4.420   2.917   2.701
 5710WAT      O17371   4.834   6.017   0.225
 5710WAT     H117372   4.857   5.949   0.296
 5710WAT     H217373   4.908   6.022   0.159
 5711WAT      O17374   1.814   0.711   1.155
 5711WAT     H117375   1.904   0.737   1.192
 5711WAT     H217376   1.788   0.777   1.085
 5712WAT      O17377   0.470   8.705   0.496
 5712WAT     H117378   0.476   8.633   0.427
 5712WAT     H217379   0.478   8.664   0.587
 5713WAT      O17380   7.290   5.332   2.264
 5713WAT     H117381   7.377   5.366   2.229
 5713WAT     H217382   7.250   5.400   2.325
 5714WAT      O17383   9.479   3.782   0.722
 5714WAT     H117384   9.451   3.844   0.795
 5714WAT     H217385   9.532   3.832   0.654
 5715WAT      O17386   3.668   0.902   3.534
 5715WAT     H117387   3.742   0.923   3.598
 5715WAT     H217388   3.658   0.977   3.468
 5716WAT      O17389   9.256   1.416   5.449
 5716WAT     H117390   9.190   1.344   5.472
 5716WAT     H217391   9.207   1.502   5.435
 5717WAT      O17392   7.402   4.750   0.710
 5717WAT     H117393   7.315   4.796   0.726
 5717WAT     H217394   7.409   4.669   0.769
 5718WAT      O17395   5.586   3.729   3.173
 5718WAT     H117396   5.647   3.671   3.119
 5718WAT     H217397   5.494   3.689   3.173
 5719WAT      O17398   3.657   4.500   6.920
 5719WAT     H117399   3.603   4.478   7.002
 5719WAT     H217400   3.747   4.456   6.928
 5720WAT      O17401   4.241   3.884   1.233
 5720WAT     H117402   4.310   3.896   1.163
 5720WAT     H217403   4.279   3.909   1.322
 5721WAT      O17404   4.442   6.166   2.491
 5721WAT     H117405   4.520   6.110   2.465
 5721WAT     H217406   4.473   6.258   2.514
 5722WAT      O17407   1.612   1.448   9.216
 5722WAT     H117408   1.708   1.422   9.225
 5722WAT     H217409   1.559   1.408   9.290
 5723WAT      O17410   6.633   3.535   5.069
 5723WAT     H117411   6.606   3.501   4.979
 5723WAT     H217412   6.584   3.483   5.139
 5724WAT      O17413   0.859   6.627   4.972
 5724WAT     H117414   0.936   6.653   4.914
 5724WAT     H217415   0.893   6.589   5.058
 5725WAT      O17416   1.450   8.542   8.999
 5725WAT     H117417   1.490   8.469   8.944
 5725WAT     H217418   1.356   8.516   9.024
 5726WAT      O17419   1.711   0.616   6.114
 5726WAT     H117420   1.669   0.690   6.060
 5726WAT     H217421   1.650   0.537   6.115
 5727WAT      O17422   9.669   4.963   5.980
 5727WAT     H117423   9.745   5.014   5.940
 5727WAT     H217424   9.676   4.966   6.080
 5728WAT      O17425   9.337   2.130   8.875
 5728WAT     H117426   9.333   2.215   8.822
 5728WAT     H217427   9.284   2.141   8.959
 5729WAT      O17428   8.013   9.744   4.263
 5729WAT     H117429   8.064   9.823   4.296
 5729WAT     H217430   7.960   9.770   4.182
 5730WAT      O17431   8.285   1.073   8.526
 5730WAT     H117432   8.289   1.049   8.624
 5730WAT     H217433   8.313   1.168   8.514
 5731WAT      O17434   4.945   2.448   1.808
 5731WAT     H117435   4.905   2.536   1.836
 5731WAT     H217436   5.030   2.465   1.757
 5732WAT      O17437   3.216   2.144   9.750
 5732WAT     H117438   3.312   2.127   9.769
 5732WAT     H217439   3.206   2.223   9.689
 5733WAT      O17440   3.304   0.470   6.898
 5733WAT     H117441   3.252   0.471   6.984
 5733WAT     H217442   3.382   0.408   6.908
 5734WAT      O17443   0.062   8.479   5.641
 5734WAT     H117444   0.015   8.456   5.556
 5734WAT     H217445   0.051   8.577   5.658
 5735WAT      O17446   7.903   5.911   1.969
 5735WAT     H117447   7.971   5.891   2.041
 5735WAT     H217448   7.916   6.004   1.936
 5736WAT      O17449   8.413   2.476   3.360
 5736WAT     H117450   8.410   2.389   3.312
 5736WAT     H217451   8.502   2.487   3.403
 5737WAT      O17452   9.578   8.097   6.325
 5737WAT     H117453   9.664   8.047   6.328
 5737WAT     H217454   9.572   8.150   6.240
 5738WAT      O17455   8.755   9.273   2.503
 5738WAT     H117456   8.767   9.371   2.520
 5738WAT     H217457   8.658   9.250   2.508
 5739WAT      O17458   6.736   6.343   7.093
 5739WAT     H117459   6.681   6.419   7.059
 5739WAT     H217460   6.825   6.378   7.124
 5740WAT      O17461   7.772   3.690   8.477
 5740WAT     H117462   7.849   3.633   8.505
 5740WAT     H217463   7.777   3.709   8.379
 5741WAT      O17464   5.238   5.638   1.015
 5741WAT     H117465   5.332   5.630   0.984
 5741WAT     H217466   5.183   5.685   0.946
 5742WAT      O17467   8.368   9.164   6.954
 5742WAT     H117468   8.353   9.240   6.892
 5742WAT     H217469   8.295   9.096   6.943
 5743WAT      O17470   9.773   3.628   4.986
 5743WAT     H117471   9.775   3.529   4.997
 5743WAT     H217472   9.761   3.651   4.890
 5744WAT      O17473   6.502   6.440   6.626
 5744WAT     H117474   6.441   6.381   6.574
 5744WAT     H217475   6.546   6.388   6.699
 5745WAT      O17476   8.463   3.872   5.257
 5745WAT     H117477   8.364   3.874   5.244
 5745WAT     H217478   8.502   3.796   5.205
 5746WAT      O17479   9.107   1.398   0.319
 5746WAT     H117480   9.062   1.415   0.232
 5746WAT     H217481   9.168   1.319   0.311
 5747WAT      O17482   9.768   0.759   2.266
 5747WAT     H117483   9.758   0.712   2.179
 5747WAT     H217484   9.702   0.834   2.272
 5748WAT      O17485   3.932   3.775   3.254
 5748WAT     H117486   3.952   3.723   3.171
 5748WAT     H217487   3.856   3.733   3.303
 5749WAT      O17488   5.727   1.266   1.915
 5749WAT     H117489   5.641   1.308   1.941
 5749WAT     H217490   5.718   1.224   1.825
 5750WAT      O17491   7.778   6.849   2.868
 5750WAT     H117492   7.721   6.880   2.944
 5750WAT     H217493   7.734   6.771   2.823
 5751WAT      O17494   0.491   7.449   9.421
 5751WAT     H117495   0.481   7.365   9.474
 5751WAT     H217496   0.408   7.464   9.367
 5752WAT      O17497   2.144   7.573   9.278
 5752WAT     H117498   2.115   7.483   9.312
 5752WAT     H217499   2.124   7.579   9.180
 5753WAT      O17500   1.070   1.352   2.158
 5753WAT     H117501   1.102   1.272   2.207
 5753WAT     H217502   1.077   1.433   2.216
 5754WAT      O17503   0.959   7.563   6.195
 5754WAT     H117504   1.020   7.537   6.120
 5754WAT     H217505   0.880   7.502   6.198
 5755WAT      O17506   7.516   0.337   2.569
 5755WAT     H117507   7.557   0.375   2.486
 5755WAT     H217508   7.587   0.323   2.638
 5756WAT      O17509   1.418   2.721   4.736
 5756WAT     H117510   1.409   2.630   4.776
 5756WAT     H217511   1.456   2.713   4.644
 5757WAT      O17512   0.089   2.012   3.968
 5757WAT     H117513   0.105   1.927   4.019
 5757WAT     H217514   0.032   1.993   3.888
 5758WAT      O17515   9.714   6.832   3.293
 5758WAT     H117516   9.786   6.876   3.239
 5758WAT     H217517   9.672   6.900   3.353
 5759WAT      O17518   6.069   2.202   2.233
 5759WAT     H117519   6.066   2.102   2.230
 5759WAT     H217520   6.000   2.239   2.172
 5760WAT      O17521   5.874   6.277   8.251
 5760WAT     H117522   5.963   6.240   8.278
 5760WAT     H217523   5.816   6.203   8.217
 5761WAT      O17524   4.534   1.848   7.350
 5761WAT     H117525   4.444   1.865   7.391
 5761WAT     H217526   4.605   1.893   7.404
 5762WAT      O17527   1.076   3.042   7.597
 5762WAT     H117528   1.158   3.084   7.557
 5762WAT     H217529   1.064   3.077   7.690
 5763WAT      O17530   8.299   4.489   0.852
 5763WAT     H117531   8.221   4.448   0.899
 5763WAT     H217532   8.373   4.504   0.917
 5764WAT      O17533   8.352   2.379   8.746
 5764WAT     H117534   8.409   2.340   8.818
 5764WAT     H217535   8.309   2.305   8.694
 5765WAT      O17536   1.147   9.369   0.696
 5765WAT     H117537   1.112   9.448   0.746
 5765WAT     H217538   1.204   9.314   0.756
 5766WAT      O17539   4.436   2.753   1.718
 5766WAT     H117540   4.361   2.786   1.775
 5766WAT     H217541   4.473   2.829   1.665
 5767WAT      O17542   5.839   9.351   7.279
 5767WAT     H117543   5.905   9.362   7.354
 5767WAT     H217544   5.767   9.419   7.287
 5768WAT      O17545   6.155   1.275   5.698
 5768WAT     H117546   6.083   1.327   5.743
 5768WAT     H217547   6.114   1.207   5.637
 5769WAT      O17548   7.316   1.970   6.802
 5769WAT     H117549   7.313   2.021   6.888
 5769WAT     H217550   7.310   1.872   6.821
 5770WAT      O17551   2.119   9.075   4.948
 5770WAT     H117552   2.196   9.079   4.884
 5770WAT     H217553   2.052   9.008   4.915
 5771WAT      O17554   5.800   4.343   8.239
 5771WAT     H117555   5.744   4.287   8.178
 5771WAT     H217556   5.859   4.284   8.294
 5772WAT      O17557   9.065   4.959   3.737
 5772WAT     H117558   9.005   5.037   3.756
 5772WAT     H217559   9.085   4.954   3.640
 5773WAT      O17560   0.027   7.407   0.219
 5773WAT     H117561  -0.030   7.393   0.138
 5773WAT     H217562  -0.030   7.442   0.293
 5774WAT      O17563   5.596   5.508   7.563
 5774WAT     H117564   5.544   5.423   7.569
 5774WAT     H217565   5.560   5.565   7.490
 5775WAT      O17566   1.996   4.467   2.747
 5775WAT     H117567   2.058   4.515   2.685
 5775WAT     H217568   2.044   4.443   2.832
 5776WAT      O17569   6.966   3.116   6.826
 5776WAT     H117570   7.023   3.112   6.908
 5776WAT     H217571   6.959   3.211   6.795
 5777WAT      O17572   3.433   8.454   3.573
 5777WAT     H117573   3.527   8.481   3.555
 5777WAT     H217574   3.431   8.364   3.617
 5778WAT      O17575   5.480   1.240   9.549
 5778WAT     H117576   5.382   1.219   9.552
 5778WAT     H217577   5.505   1.274   9.459
 5779WAT      O17578   4.654   9.291   6.615
 5779WAT     H117579   4.714   9.264   6.690
 5779WAT     H217580   4.569   9.238   6.620
 5780WAT      O17581   7.516   7.608   6.841
 5780WAT     H117582   7.497   7.627   6.744
 5780WAT     H217583   7.501   7.691   6.895
 5781WAT      O17584   5.355   3.006   0.412
 5781WAT     H117585   5.435   2.949   0.435
 5781WAT     H217586   5.382   3.102   0.413
 5782WAT      O17587   2.212   3.104   9.672
 5782WAT     H117588   2.302   3.068   9.700
 5782WAT     H217589   2.209   3.109   9.572
 5783WAT      O17590   8.628   9.641   1.183
 5783WAT     H117591   8.659   9.590   1.102
 5783WAT     H217592   8.644   9.739   1.168
 5784WAT      O17593   6.646   1.775   3.054
 5784WAT     H117594   6.560   1.723   3.059
 5784WAT     H217595   6.657   1.828   3.138
 5785WAT      O17596   9.401   7.190   7.371
 5785WAT     H117597   9.397   7.144   7.460
 5785WAT     H217598   9.389   7.288   7.384
 5786WAT      O17599   7.446   9.036   6.797
 5786WAT     H117600   7.383   8.996   6.730
 5786WAT     H217601   7.497   9.110   6.754
 5787WAT      O17602   4.307   1.000   6.208
 5787WAT     H117603   4.290   1.007   6.109
 5787WAT     H217604   4.313   0.903   6.234
 5788WAT      O17605   1.131   0.908   2.094
 5788WAT     H117606   1.063   0.877   2.027
 5788WAT     H217607   1.191   0.831   2.118
 5789WAT      O17608   6.391   5.563   1.480
 5789WAT     H117609   6.352   5.473   1.464
 5789WAT     H217610   6.320   5.627   1.508
 5790WAT      O17611   0.659   2.151   7.504
 5790WAT     H117612   0.630   2.141   7.409
 5790WAT     H217613   0.606   2.089   7.562
 5791WAT      O17614   1.175   9.728   1.065
 5791WAT     H117615   1.095   9.787   1.065
 5791WAT     H217616   1.257   9.782   1.083
 5792WAT      O17617   1.991   2.646   9.849
 5792WAT     H117618   1.921   2.576   9.858
 5792WAT     H217619   1.974   2.701   9.767
 5793WAT      O17620   3.445   4.374   1.028
 5793WAT     H117621   3.380   4.310   1.069
 5793WAT     H217622   3.445   4.459   1.081
 5794WAT      O17623   3.641   5.534   3.719
 5794WAT     H117624   3.726   5.535   3.772
 5794WAT     H217625   3.564   5.553   3.779
 5795WAT      O17626   7.941   1.647   8.663
 5795WAT     H117627   7.880   1.725   8.651
 5795WAT     H217628   7.951   1.598   8.576
 5796WAT      O17629   4.999   2.821   6.166
 5796WAT     H117630   5.094   2.795   6.150
 5796WAT     H217631   4.957   2.757   6.230
 5797WAT      O17632   0.257   7.309   8.500
 5797WAT     H117633   0.158   7.309   8.484
 5797WAT     H217634   0.304   7.339   8.417
 5798WAT      O17635   9.659   2.408   8.893
 5798WAT     H117636   9.609   2.400   8.806
 5798WAT     H217637   9.750   2.368   8.882
 5799WAT      O17638   9.408   2.255   0.513
 5799WAT     H117639   9.475   2.279   0.443
 5799WAT     H217640   9.379   2.337   0.562
 5800WAT      O17641   0.578   7.282   6.760
 5800WAT     H117642   0.653   7.330   6.715
 5800WAT     H217643   0.492   7.330   6.742
 5801WAT      O17644   2.860   5.258   1.266
 5801WAT     H117645   2.796   5.306   1.326
 5801WAT     H217646   2.809   5.202   1.201
 5802WAT      O17647   3.887   9.632   6.596
 5802WAT     H117648   3.824   9.559   6.624
 5802WAT     H217649   3.873   9.712   6.653
 5803WAT      O17650   8.044   7.972   5.673
 5803WAT     H117651   7.973   7.903   5.686
 5803WAT     H217652   8.088   7.991   5.761
 5804WAT      O17653   6.533   6.320   8.952
 5804WAT     H117654   6.483   6.234   8.946
 5804WAT     H217655   6.577   6.327   9.041
 5805WAT      O17656   0.448   1.553   3.702
 5805WAT     H117657   0.502   1.524   3.782
 5805WAT     H217658   0.509   1.565   3.624
 5806WAT      O17659   7.645   3.607   2.775
 5806WAT     H117660   7.657   3.660   2.691
 5806WAT     H217661   7.590   3.526   2.756
 5807WAT      O17662   8.217   2.676   3.349
 5807WAT     H117663   8.290   2.615   3.317
 5807WAT     H217664   8.223   2.764   3.302
 5808WAT      O17665   9.022   3.725   5.000
 5808WAT     H117666   8.999   3.738   4.904
 5808WAT     H217667   8.963   3.654   5.039
 5809WAT      O17668   1.965   8.434   8.812
 5809WAT     H117669   1.916   8.494   8.875
 5809WAT     H217670   1.970   8.477   8.722
 5810WAT      O17671   0.067   8.210   5.713
 5810WAT     H117672   0.124   8.160   5.647
 5810WAT     H217673   0.065   8.307   5.689
 5811WAT      O17674   5.210   8.431   9.575
 5811WAT     H117675   5.207   8.333   9.598
 5811WAT     H217676   5.294   8.450   9.523
 5812WAT      O17677   2.339   4.938   2.298
 5812WAT     H117678   2.392   4.961   2.380
 5812WAT     H217679   2.242   4.936   2.322
 5813WAT      O17680   7.259   6.912   5.014
 5813WAT     H117681   7.327   6.843   5.041
 5813WAT     H217682   7.196   6.872   4.947
 5814WAT      O17683   4.012   2.361   4.745
 5814WAT     H117684   3.935   2.421   4.726
 5814WAT     H217685   4.033   2.306   4.664
 5815WAT      O17686   4.686   2.929   0.821
 5815WAT     H117687   4.593   2.928   0.857
 5815WAT     H217688   4.749   2.956   0.894
 5816WAT      O17689   7.509   8.159   5.131
 5816WAT     H117690   7.453   8.116   5.061
 5816WAT     H217691   7.582   8.096   5.158
 5817WAT      O17692   1.927   9.621   7.619
 5817WAT     H117693   1.970   9.592   7.534
 5817WAT     H217694   1.833   9.588   7.623
 5818WAT      O17695   2.111   8.628   0.360
 5818WAT     H117696   2.202   8.659   0.389
 5818WAT     H217697   2.121   8.551   0.297
 5819WAT      O17698   0.908   9.026   8.696
 5819WAT     H117699   0.913   8.932   8.662
 5819WAT     H217700   0.915   9.090   8.619
 5820WAT      O17701   4.969   7.661   0.600
 5820WAT     H117702   5.045   7.616   0.647
 5820WAT     H217703   4.915   7.593   0.551
 5821WAT      O17704   9.728   0.434   7.616
 5821WAT     H117705   9.686   0.518   7.583
 5821WAT     H217706   9.684   0.406   7.701
 5822WAT      O17707   0.825   0.259   9.727
 5822WAT     H117708   0.778   0.177   9.759
 5822WAT     H217709   0.759   0.335   9.721
 5823WAT      O17710   4.576   6.511   7.831
 5823WAT     H117711   4.592   6.496   7.733
 5823WAT     H217712   4.608   6.602   7.857
 5824WAT      O17713   6.804   1.485   2.187
 5824WAT     H117714   6.896   1.472   2.225
 5824WAT     H217715   6.812   1.533   2.100
 5825WAT      O17716   7.036   4.281   4.165
 5825WAT     H117717   6.994   4.220   4.232
 5825WAT     H217718   7.117   4.324   4.205
 5826WAT      O17719   4.473   6.786   7.493
 5826WAT     H117720   4.412   6.715   7.529
 5826WAT     H217721   4.549   6.742   7.444
 5827WAT      O17722   4.386   0.910   2.591
 5827WAT     H117723   4.316   0.843   2.616
 5827WAT     H217724   4.443   0.872   2.518
 5828WAT      O17725   5.058   7.134   0.890
 5828WAT     H117726   5.004   7.052   0.908
 5828WAT     H217727   5.034   7.171   0.800
 5829WAT      O17728   2.412   0.034   1.183
 5829WAT     H117729   2.395   0.067   1.090
 5829WAT     H217730   2.364   0.092   1.248
 5830WAT      O17731   8.546   0.443   0.207
 5830WAT     H117732   8.520   0.446   0.111
 5830WAT     H217733   8.542   0.349   0.240
 5831WAT      O17734   0.596   6.335   1.204
 5831WAT     H117735   0.567   6.242   1.182
 5831WAT     H217736   0.652   6.370   1.129
 5832WAT      O17737   7.625   9.372   7.354
 5832WAT     H117738   7.670   9.355   7.267
 5832WAT     H217739   7.688   9.353   7.429
 5833WAT      O17740   6.682   1.908   0.010
 5833WAT     H117741   6.726   1.819   0.013
 5833WAT     H217742   6.732   1.972   0.070
 5834WAT      O17743   8.574   1.395   7.808
 5834WAT     H117744   8.483   1.356   7.797
 5834WAT     H217745   8.623   1.347   7.881
 5835WAT      O17746   5.185   1.785   8.420
 5835WAT     H117747   5.259   1.720   8.401
 5835WAT     H217748   5.152   1.824   8.335
 5836WAT      O17749   5.111   2.929   3.184
 5836WAT     H117750   5.182   2.996   3.206
 5836WAT     H217751   5.132   2.842   3.229
 5837WAT      O17752   1.361   3.215   7.064
 5837WAT     H117753   1.434   3.276   7.094
 5837WAT     H217754   1.282   3.224   7.124
 5838WAT      O17755   3.450   8.822   9.031
 5838WAT     H117756   3.526   8.864   8.981
 5838WAT     H217757   3.367   8.828   8.976
 5839WAT      O17758   5.090   4.460   3.960
 5839WAT     H117759   5.157   4.528   3.990
 5839WAT     H217760   5.020   4.505   3.905
 5840WAT      O17761   7.262   6.286   0.337
 5840WAT     H117762   7.238   6.252   0.428
 5840WAT     H217763   7.205   6.241   0.269
 5841WAT      O17764   9.508   2.198   1.671
 5841WAT     H117765   9.607   2.192   1.662
 5841WAT     H217766   9.468   2.234   1.587
 5842WAT      O17767   4.426   6.649   8.250
 5842WAT     H117768   4.420   6.552   8.228
 5842WAT     H217769   4.378   6.702   8.181
 5843WAT      O17770   5.855   2.950   6.134
 5843WAT     H117771   5.955   2.944   6.131
 5843WAT     H217772   5.824   2.940   6.228
 5844WAT      O17773   5.890   7.421   2.816
 5844WAT     H117774   5.855   7.501   2.768
 5844WAT     H217775   5.963   7.448   2.878
 5845WAT      O17776   6.007   5.919   5.075
 5845WAT     H117777   5.974   5.898   4.983
 5845WAT     H217778   6.095   5.873   5.090
 5846WAT      O17779   7.309   9.829   3.756
 5846WAT     H117780   7.225   9.876   3.784
 5846WAT     H217781   7.318   9.743   3.806
 5847WAT      O17782   2.781   3.619   8.580
 5847WAT     H117783   2.869   3.630   8.627
 5847WAT     H217784   2.797   3.615   8.481
 5848WAT      O17785   5.771   9.394   7.856
 5848WAT     H117786   5.816   9.375   7.769
 5848WAT     H217787   5.841   9.410   7.927
 5849WAT      O17788   6.436   2.100   1.309
 5849WAT     H117789   6.429   2.199   1.297
 5849WAT     H217790   6.479   2.080   1.397
 5850WAT      O17791   5.304   3.475   7.790
 5850WAT     H117792   5.301   3.392   7.845
 5850WAT     H217793   5.394   3.484   7.748
 5851WAT      O17794   4.063   7.744   6.412
 5851WAT     H117795   4.026   7.669   6.357
 5851WAT     H217796   4.151   7.716   6.451
 5852WAT      O17797   2.235   8.179   7.040
 5852WAT     H117798   2.306   8.245   7.016
 5852WAT     H217799   2.147   8.226   7.048
 5853WAT      O17800   0.280   9.683   8.856
 5853WAT     H117801   0.287   9.596   8.904
 5853WAT     H217802   0.187   9.695   8.821
 5854WAT      O17803   4.250   3.513   8.295
 5854WAT     H117804   4.219   3.606   8.275
 5854WAT     H217805   4.325   3.516   8.360
 5855WAT      O17806   1.100   9.502   5.351
 5855WAT     H117807   1.021   9.523   5.292
 5855WAT     H217808   1.179   9.555   5.320
 5856WAT      O17809   8.516   4.778   9.082
 5856WAT     H117810   8.436   4.796   9.024
 5856WAT     H217811   8.490   4.784   9.178
 5857WAT      O17812   2.940   2.239   2.593
 5857WAT     H117813   3.012   2.282   2.648
 5857WAT     H217814   2.967   2.145   2.572
 5858WAT      O17815   8.026   6.290   7.486
 5858WAT     H117816   8.092   6.338   7.428
 5858WAT     H217817   7.979   6.221   7.432
 5859WAT      O17818   0.541   5.202   7.598
 5859WAT     H117819   0.625   5.251   7.575
 5859WAT     H217820   0.495   5.173   7.514
 5860WAT      O17821   4.713   5.462   8.827
 5860WAT     H117822   4.803   5.425   8.846
 5860WAT     H217823   4.705   5.481   8.729
 5861WAT      O17824   6.042   5.103   8.576
 5861WAT     H117825   6.040   5.092   8.675
 5861WAT     H217826   6.064   5.199   8.554
 5862WAT      O17827   9.558   1.077   0.613
 5862WAT     H117828   9.588   1.138   0.686
 5862WAT     H217829   9.576   0.982   0.639
 5863WAT      O17830   5.518   5.177   5.943
 5863WAT     H117831   5.440   5.239   5.941
 5863WAT     H217832   5.509   5.110   5.869
 5864WAT      O17833   0.977   6.288   9.670
 5864WAT     H117834   0.908   6.221   9.646
 5864WAT     H217835   0.958   6.324   9.762
 5865WAT      O17836   5.429   9.625   2.861
 5865WAT     H117837   5.421   9.545   2.801
 5865WAT     H217838   5.399   9.600   2.954
 5866WAT      O17839   6.244   4.113   6.581
 5866WAT     H117840   6.275   4.177   6.651
 5866WAT     H217841   6.273   4.145   6.491
 5867WAT      O17842   1.590   6.401   8.019
 5867WAT     H117843   1.513   6.444   8.065
 5867WAT     H217844   1.668   6.465   8.017
 5868WAT      O17845   1.135   6.876   7.012
 5868WAT     H117846   1.181   6.822   7.082
 5868WAT     H217847   1.201   6.940   6.972
 5869WAT      O17848   8.124   4.588   4.464
 5869WAT     H117849   8.206   4.532   4.473
 5869WAT     H217850   8.097   4.623   4.553
 5870WAT      O17851   6.823   3.132   9.761
 5870WAT     H117852   6.752   3.199   9.781
 5870WAT     H217853   6.857   3.146   9.668
 5871WAT      O17854   5.721   6.185   7.185
 5871WAT     H117855   5.664   6.172   7.267
 5871WAT     H217856   5.696   6.270   7.140
 5872WAT      O17857   2.008   6.250   4.594
 5872WAT     H117858   2.002   6.159   4.554
 5872WAT     H217859   2.088   6.298   4.558
 5873WAT      O17860   7.603   4.405   0.825
 5873WAT     H117861   7.567   4.472   0.890
 5873WAT     H217862   7.568   4.425   0.733
 5874WAT      O17863   2.291   5.089   3.011
 5874WAT     H117864   2.338   5.007   2.979
 5874WAT     H217865   2.274   5.082   3.110
 5875WAT      O17866   5.356   9.352   2.349
 5875WAT     H117867   5.438   9.409   2.349
 5875WAT     H217868   5.309   9.360   2.261
 5876WAT      O17869   1.583   3.723   7.149
 5876WAT     H117870   1.572   3.741   7.246
 5876WAT     H217871   1.679   3.701   7.130
 5877WAT      O17872   3.912   1.974   2.986
 5877WAT     H117873   3.913   2.072   2.968
 5877WAT     H217874   3.975   1.953   3.060
 5878WAT      O17875   0.837   4.145   6.401
 5878WAT     H117876   0.767   4.124   6.333
 5878WAT     H217877   0.794   4.176   6.486
 5879WAT      O17878   0.394   3.051   0.457
 5879WAT     H117879   0.465   2.986   0.485
 5879WAT     H217880   0.354   3.022   0.371
 5880WAT      O17881   2.342   1.109   4.318
 5880WAT     H117882   2.432   1.067   4.313
 5880WAT     H217883   2.272   1.040   4.296
 5881WAT      O17884   3.949   0.396   4.855
 5881WAT     H117885   3.952   0.360   4.761
 5881WAT     H217886   4.033   0.372   4.903
 5882WAT      O17887   4.795   8.598   1.101
 5882WAT     H117888   4.749   8.510   1.090
 5882WAT     H217889   4.894   8.584   1.109
 5883WAT      O17890   7.214   5.200   8.792
 5883WAT     H117891   7.310   5.210   8.819
 5883WAT     H217892   7.175   5.119   8.837
 5884WAT      O17893   9.357   6.768   1.329
 5884WAT     H117894   9.444   6.816   1.328
 5884WAT     H217895   9.361   6.692   1.394
 5885WAT      O17896   2.385   2.187   7.781
 5885WAT     H117897   2.471   2.238   7.771
 5885WAT     H217898   2.308   2.250   7.768
 5886WAT      O17899   0.703   7.612   9.264
 5886WAT     H117900   0.630   7.544   9.253
 5886WAT     H217901   0.783   7.584   9.211
 5887WAT      O17902   6.527   0.064   0.252
 5887WAT     H117903   6.615   0.109   0.239
 5887WAT     H217904   6.490   0.037   0.163
 5888WAT      O17905   1.065   8.565   2.975
 5888WAT     H117906   1.002   8.578   3.052
 5888WAT     H217907   1.090   8.468   2.970
 5889WAT      O17908   9.856   5.136   5.911
 5889WAT     H117909   9.837   5.214   5.850
 5889WAT     H217910   9.950   5.104   5.895
 5890WAT      O17911   7.689   0.706   4.504
 5890WAT     H117912   7.734   0.791   4.531
 5890WAT     H217913   7.753   0.648   4.454
 5891WAT      O17914   9.112   2.868   3.687
 5891WAT     H117915   9.168   2.802   3.638
 5891WAT     H217916   9.171   2.936   3.731
 5892WAT      O17917   2.944   3.297   5.281
 5892WAT     H117918   2.925   3.372   5.344
 5892WAT     H217919   2.879   3.300   5.205
 5893WAT      O17920   0.443   7.751   5.134
 5893WAT     H117921   0.439   7.837   5.084
 5893WAT     H217922   0.463   7.676   5.071
 5894WAT      O17923   0.142   7.187   3.465
 5894WAT     H117924   0.194   7.198   3.550
 5894WAT     H217925   0.046   7.166   3.487
 5895WAT      O17926   6.231   7.235   9.166
 5895WAT     H117927   6.210   7.151   9.216
 5895WAT     H217928   6.329   7.240   9.149
 5896WAT      O17929   1.309   2.246   2.037
 5896WAT     H117930   1.382   2.178   2.023
 5896WAT     H217931   1.269   2.271   1.949
 5897WAT      O17932   0.944   4.444   2.234
 5897WAT     H117933   0.909   4.386   2.307
 5897WAT     H217934   0.932   4.540   2.260
 5898WAT      O17935   1.925   5.849   0.113
 5898WAT     H117936   1.925   5.756   0.149
 5898WAT     H217937   1.839   5.866   0.065
 5899WAT      O17938   3.052   7.076   2.593
 5899WAT     H117939   3.095   7.140   2.529
 5899WAT     H217940   2.991   7.014   2.542
 5900WAT      O17941   5.241   9.030   5.324
 5900WAT     H117942   5.170   8.965   5.351
 5900WAT     H217943   5.293   8.992   5.247
 5901WAT      O17944   0.344   7.614   2.117
 5901WAT     H117945   0.335   7.643   2.021
 5901WAT     H217946   0.391   7.526   2.120
 5902WAT      O17947   0.693   5.570   0.475
 5902WAT     H117948   0.674   5.547   0.571
 5902WAT     H217949   0.734   5.491   0.430
 5903WAT      O17950   9.245   1.198   2.079
 5903WAT     H117951   9.342   1.220   2.093
 5903WAT     H217952   9.219   1.219   1.985
 5904WAT      O17953   6.555   1.107   6.404
 5904WAT     H117954   6.545   1.046   6.483
 5904WAT     H217955   6.652   1.119   6.383
 5905WAT      O17956   6.169   6.891   4.305
 5905WAT     H117957   6.161   6.985   4.273
 5905WAT     H217958   6.187   6.831   4.227
 5906WAT      O17959   8.375   0.632   1.443
 5906WAT     H117960   8.451   0.570   1.462
 5906WAT     H217961   8.318   0.592   1.371
 5907WAT      O17962   5.201   7.975   6.792
 5907WAT     H117963   5.286   8.009   6.830
 5907WAT     H217964   5.130   7.975   6.862
 5908WAT      O17965   4.085   0.899   6.449
 5908WAT     H117966   4.118   0.826   6.390
 5908WAT     H217967   4.135   0.984   6.430
 5909WAT      O17968   8.593   3.453   8.354
 5909WAT     H117969   8.544   3.376   8.395
 5909WAT     H217970   8.673   3.420   8.305
 5910WAT      O17971   1.487   4.674   9.060
 5910WAT     H117972   1.506   4.648   9.155
 5910WAT     H217973   1.488   4.774   9.052
 5911WAT      O17974   1.252   1.659   6.246
 5911WAT     H117975   1.297   1.604   6.175
 5911WAT     H217976   1.246   1.754   6.214
 5912WAT      O17977   1.719   0.777   4.404
 5912WAT     H117978   1.677   0.733   4.484
 5912WAT     H217979   1.816   0.794   4.423
 5913WAT      O17980   9.224   6.598   0.883
 5913WAT     H117981   9.301   6.661   0.895
 5913WAT     H217982   9.257   6.504   0.879
 5914WAT      O17983   2.974   8.826   4.776
 5914WAT     H117984   2.905   8.806   4.706
 5914WAT     H217985   2.949   8.910   4.824
 5915WAT      O17986   2.726   5.875   2.115
 5915WAT     H117987   2.656   5.928   2.162
 5915WAT     H217988   2.686   5.827   2.037
 5916WAT      O17989   0.791   2.072   8.062
 5916WAT     H117990   0.871   2.087   8.004
 5916WAT     H217991   0.712   2.119   8.023
 5917WAT      O17992   2.940   3.523   1.267
 5917WAT     H117993   2.906   3.613   1.240
 5917WAT     H217994   2.923   3.457   1.194
 5918WAT      O17995   5.185   4.897   7.582
 5918WAT     H117996   5.115   4.932   7.644
 5918WAT     H217997   5.141   4.852   7.505
 5919WAT      O17998   9.024   9.406   0.391
 5919WAT     H117999   9.042   9.504   0.387
 5919WAT     H218000   9.036   9.373   0.485
 5920WAT      O18001   5.389   7.056   5.595
 5920WAT     H118002   5.371   7.019   5.503
 5920WAT     H218003   5.317   7.122   5.618
 5921WAT      O18004   3.372   8.330   4.943
 5921WAT     H118005   3.446   8.374   4.993
 5921WAT     H218006   3.388   8.338   4.845
 5922WAT      O18007   6.076   1.270   7.667
 5922WAT     H118008   5.978   1.288   7.677
 5922WAT     H218009   6.097   1.178   7.700
 5923WAT      O18010   1.577   7.864   9.229
 5923WAT     H118011   1.481   7.887   9.214
 5923WAT     H218012   1.615   7.921   9.302
 5924WAT      O18013   8.409   1.765   2.897
 5924WAT     H118014   8.471   1.839   2.923
 5924WAT     H218015   8.316   1.802   2.885
 5925WAT      O18016   4.996   4.908   0.683
 5925WAT     H118017   5.027   4.873   0.772
 5925WAT     H218018   5.073   4.951   0.635
 5926WAT      O18019   0.678   9.109   3.173
 5926WAT     H118020   0.683   9.197   3.220
 5926WAT     H218021   0.728   9.115   3.086
 5927WAT      O18022   3.236   0.121   4.753
 5927WAT     H118023   3.180   0.047   4.714
 5927WAT     H218024   3.300   0.082   4.821
 5928WAT      O18025   9.118   8.162   3.696
 5928WAT     H118026   9.170   8.204   3.622
 5928WAT     H218027   9.033   8.124   3.659
 5929WAT      O18028   9.264   4.311   9.365
 5929WAT     H118029   9.213   4.230   9.394
 5929WAT     H218030   9.322   4.343   9.441
 5930WAT      O18031   3.203   6.235   5.825
 5930WAT     H118032   3.285   6.185   5.856
 5930WAT     H218033   3.139   6.170   5.783
 5931WAT      O18034   1.128   0.097   7.611
 5931WAT     H118035   1.094   0.081   7.704
 5931WAT     H218036   1.060   0.147   7.559
 5932WAT      O18037   8.827   1.210   6.574
 5932WAT     H118038   8.867   1.297   6.603
 5932WAT     H218039   8.746   1.228   6.518
 5933WAT      O18040   8.269   6.923   2.855
 5933WAT     H118041   8.176   6.932   2.820
 5933WAT     H218042   8.331   6.894   2.782
 5934WAT      O18043   7.103   0.388   6.085
 5934WAT     H118044   7.112   0.397   6.184
 5934WAT     H218045   7.040   0.314   6.063
 5935WAT      O18046   7.422   5.227   4.951
 5935WAT     H118047   7.392   5.218   5.046
 5935WAT     H218048   7.406   5.140   4.903
 5936WAT      O18049   5.999   7.546   8.921
 5936WAT     H118050   5.983   7.449   8.938
 5936WAT     H218051   6.089   7.559   8.879
 5937WAT      O18052   8.104   6.930   8.072
 5937WAT     H118053   8.007   6.942   8.054
 5937WAT     H218054   8.133   6.840   8.040
 5938WAT      O18055   1.685   1.728   1.321
 5938WAT     H118056   1.742   1.771   1.391
 5938WAT     H218057   1.741   1.701   1.243
 5939WAT      O18058   4.812   7.277   1.649
 5939WAT     H118059   4.887   7.259   1.712
 5939WAT     H218060   4.729   7.299   1.701
 5940WAT      O18061   2.626   3.587   2.990
 5940WAT     H118062   2.672   3.616   2.905
 5940WAT     H218063   2.692   3.539   3.048
 5941WAT      O18064   3.507   6.887   5.824
 5941WAT     H118065   3.575   6.961   5.825
 5941WAT     H218066   3.471   6.874   5.916
 5942WAT      O18067   4.070   9.026   7.512
 5942WAT     H118068   4.068   8.927   7.502
 5942WAT     H218069   4.069   9.049   7.610
 5943WAT      O18070   6.325   5.529   8.690
 5943WAT     H118071   6.420   5.518   8.661
 5943WAT     H218072   6.266   5.468   8.637
 5944WAT      O18073   0.575   9.660   9.802
 5944WAT     H118074   0.594   9.581   9.861
 5944WAT     H218075   0.489   9.644   9.752
 5945WAT      O18076   2.092   0.734   2.412
 5945WAT     H118077   2.019   0.704   2.474
 5945WAT     H218078   2.067   0.820   2.370
 5946WAT      O18079   1.857   1.776   2.877
 5946WAT     H118080   1.902   1.841   2.817
 5946WAT     H218081   1.790   1.824   2.934
 5947WAT      O18082   0.435   0.932   1.008
 5947WAT     H118083   0.407   0.886   1.091
 5947WAT     H218084   0.490   0.870   0.952
 5948WAT      O18085   0.917   7.093   1.374
 5948WAT     H118086   0.930   6.995   1.358
 5948WAT     H218087   0.990   7.127   1.435
 5949WAT      O18088   5.502   1.477   6.046
 5949WAT     H118089   5.503   1.573   6.020
 5949WAT     H218090   5.559   1.462   6.126
 5950WAT      O18091   1.592   1.437   8.255
 5950WAT     H118092   1.575   1.378   8.176
 5950WAT     H218093   1.580   1.533   8.228
 5951WAT      O18094   3.157   7.071   0.878
 5951WAT     H118095   3.116   7.032   0.960
 5951WAT     H218096   3.196   7.160   0.901
 5952WAT      O18097   2.252   8.746   9.284
 5952WAT     H118098   2.176   8.729   9.221
 5952WAT     H218099   2.332   8.775   9.232
 5953WAT      O18100   4.806   9.444   1.361
 5953WAT     H118101   4.874   9.387   1.314
 5953WAT     H218102   4.823   9.441   1.460
 5954WAT      O18103   6.736   7.262   2.056
 5954WAT     H118104   6.713   7.288   1.962
 5954WAT     H218105   6.655   7.269   2.114
 5955WAT      O18106   6.428   8.996   8.936
 5955WAT     H118107   6.396   8.922   8.877
 5955WAT     H218108   6.349   9.038   8.981
 5956WAT      O18109   0.047   1.718   9.416
 5956WAT     H118110   0.016   1.647   9.479
 5956WAT     H218111  -0.017   1.795   9.418
 5957WAT      O18112   6.667   2.598   5.809
 5957WAT     H118113   6.583   2.649   5.826
 5957WAT     H218114   6.663   2.511   5.859
 5958WAT      O18115   2.882   3.672   5.409
 5958WAT     H118116   2.819   3.655   5.333
 5958WAT     H218117   2.971   3.700   5.372
 5959WAT      O18118   7.026   4.848   3.925
 5959WAT     H118119   7.119   4.872   3.897
 5959WAT     H218120   6.961   4.905   3.875
 5960WAT      O18121   6.195   2.371   1.064
 5960WAT     H118122   6.102   2.332   1.064
 5960WAT     H218123   6.225   2.386   0.970
 5961WAT      O18124   1.734   1.254   8.966
 5961WAT     H118125   1.775   1.272   9.055
 5961WAT     H218126   1.654   1.313   8.954
 5962WAT      O18127   4.982   9.370   1.624
 5962WAT     H118128   5.017   9.425   1.700
 5962WAT     H218129   5.058   9.329   1.575
 5963WAT      O18130   0.128   4.551   9.337
 5963WAT     H118131   0.122   4.600   9.424
 5963WAT     H218132   0.173   4.609   9.269
 5964WAT      O18133   7.359   1.268   2.114
 5964WAT     H118134   7.447   1.252   2.157
 5964WAT     H218135   7.354   1.363   2.084
 5965WAT      O18136   7.823   2.384   9.216
 5965WAT     H118137   7.798   2.305   9.160
 5965WAT     H218138   7.850   2.353   9.307
 5966WAT      O18139   4.935   1.905   0.775
 5966WAT     H118140   4.975   1.814   0.789
 5966WAT     H218141   4.849   1.912   0.825
 5967WAT      O18142   5.103   5.165   5.934
 5967WAT     H118143   5.060   5.113   5.861
 5967WAT     H218144   5.161   5.104   5.988
 5968WAT      O18145   8.102   1.757   1.338
 5968WAT     H118146   8.151   1.705   1.268
 5968WAT     H218147   8.168   1.804   1.396
 5969WAT      O18148   2.161   2.239   4.443
 5969WAT     H118149   2.186   2.318   4.499
 5969WAT     H218150   2.174   2.155   4.495
 5970WAT      O18151   5.786   0.766   4.648
 5970WAT     H118152   5.824   0.704   4.717
 5970WAT     H218153   5.861   0.806   4.595
 5971WAT      O18154   2.143   9.536   8.633
 5971WAT     H118155   2.157   9.614   8.694
 5971WAT     H218156   2.164   9.451   8.683
 5972WAT      O18157   4.435   1.706   3.508
 5972WAT     H118158   4.532   1.683   3.495
 5972WAT     H218159   4.425   1.805   3.509
 5973WAT      O18160   5.097   6.774   0.859
 5973WAT     H118161   5.035   6.700   0.834
 5973WAT     H218162   5.087   6.795   0.956
 5974WAT      O18163   7.951   4.581   8.363
 5974WAT     H118164   8.039   4.581   8.411
 5974WAT     H218165   7.959   4.524   8.281
 5975WAT      O18166   7.687   0.606   5.991
 5975WAT     H118167   7.647   0.539   6.054
 5975WAT     H218168   7.672   0.576   5.897
 5976WAT      O18169   0.370   2.216   7.852
 5976WAT     H118170   0.467   2.219   7.878
 5976WAT     H218171   0.344   2.304   7.812
 5977WAT      O18172   2.396   4.726   2.131
 5977WAT     H118173   2.400   4.825   2.143
 5977WAT     H218174   2.483   4.693   2.094
 5978WAT      O18175   9.327   0.805   5.094
 5978WAT     H118176   9.316   0.904   5.082
 5978WAT     H218177   9.373   0.787   5.181
 5979WAT      O18178   3.468   6.309   4.468
 5979WAT     H118179   3.565   6.318   4.443
 5979WAT     H218180   3.412   6.324   4.387
 5980WAT      O18181   0.253   6.515   2.253
 5980WAT     H118182   0.294   6.432   2.291
 5980WAT     H218183   0.248   6.507   2.153
 5981WAT      O18184   2.027   2.157   5.238
 5981WAT     H118185   2.018   2.219   5.160
 5981WAT     H218186   2.109   2.100   5.226
 5982WAT      O18187   1.334   3.146   2.011
 5982WAT     H118188   1.359   3.170   2.105
 5982WAT     H218189   1.256   3.084   2.012
 5983WAT      O18190   3.431   6.884   6.092
 5983WAT     H118191   3.358   6.952   6.087
 5983WAT     H218192   3.402   6.807   6.149
 5984WAT      O18193   0.177   9.553   7.525
 5984WAT     H118194   0.263   9.603   7.537
 5984WAT     H218195   0.146   9.518   7.614
 5985WAT      O18196   9.794   3.863   8.683
 5985WAT     H118197   9.754   3.870   8.591
 5985WAT     H218198   9.828   3.770   8.698
 5986WAT      O18199   7.455   6.129   9.010
 5986WAT     H118200   7.454   6.039   9.054
 5986WAT     H218201   7.507   6.192   9.067
 5987WAT      O18202   3.844   1.564   1.961
 5987WAT     H118203   3.868   1.479   2.007
 5987WAT     H218204   3.928   1.613   1.937
 5988WAT      O18205   1.751   4.970   3.105
 5988WAT     H118206   1.695   5.052   3.090
 5988WAT     H218207   1.714   4.894   3.052
 5989WAT      O18208   1.846   2.059   7.350
 5989WAT     H118209   1.785   1.988   7.386
 5989WAT     H218210   1.802   2.149   7.359
 5990WAT      O18211   6.317   0.275   0.808
 5990WAT     H118212   6.326   0.267   0.908
 5990WAT     H218213   6.391   0.333   0.773
 5991WAT      O18214   6.157   8.323   6.524
 5991WAT     H118215   6.210   8.250   6.481
 5991WAT     H218216   6.129   8.390   6.455
 5992WAT      O18217   8.896   6.692   6.537
 5992WAT     H118218   8.856   6.774   6.496
 5992WAT     H218219   8.870   6.688   6.634
 5993WAT      O18220   9.027   3.439   5.066
 5993WAT     H118221   9.008   3.345   5.039
 5993WAT     H218222   8.992   3.455   5.159
 5994WAT      O18223   4.773   3.005   8.037
 5994WAT     H118224   4.782   2.935   7.967
 5994WAT     H218225   4.738   2.962   8.121
 5995WAT      O18226   5.660   9.046   3.065
 5995WAT     H118227   5.698   8.992   2.991
 5995WAT     H218228   5.698   9.139   3.062
 5996WAT      O18229   2.832   8.958   3.700
 5996WAT     H118230   2.761   8.977   3.633
 5996WAT     H218231   2.913   8.922   3.653
 5997WAT      O18232   0.506   7.910   2.131
 5997WAT     H118233   0.426   7.945   2.181
 5997WAT     H218234   0.494   7.927   2.033
 5998WAT      O18235   8.144   7.610   5.035
 5998WAT     H118236   8.069   7.625   5.099
 5998WAT     H218237   8.110   7.615   4.941
 5999WAT      O18238   8.104   6.453   5.155
 5999WAT     H118239   8.169   6.434   5.081
 5999WAT     H218240   8.126   6.396   5.234
 6000WAT      O18241   4.776   1.866   3.115
 6000WAT     H118242   4.822   1.952   3.137
 6000WAT     H218243   4.683   1.867   3.152
 6001WAT      O18244   9.317   6.295   5.261
 6001WAT     H118245   9.410   6.282   5.228
 6001WAT     H218246   9.295   6.223   5.328
 6002WAT      O18247   2.224   4.350   5.922
 6002WAT     H118248   2.248   4.424   5.985
 6002WAT     H218249   2.306   4.301   5.894
 6003WAT      O18250   4.667   5.685   0.255
 6003WAT     H118251   4.744   5.739   0.287
 6003WAT     H218252   4.606   5.743   0.200
 6004WAT      O18253   0.209   3.964   1.884
 6004WAT     H118254   0.289   3.995   1.831
 6004WAT     H218255   0.199   4.021   1.965
 6005WAT      O18256   9.678   5.884   8.991
 6005WAT     H118257   9.602   5.949   8.983
 6005WAT     H218258   9.754   5.927   9.040
 6006WAT      O18259   5.191   1.157   8.457
 6006WAT     H118260   5.102   1.130   8.495
 6006WAT     H218261   5.220   1.243   8.498
 6007WAT      O18262   6.386   7.866   7.000
 6007WAT     H118263   6.317   7.909   6.942
 6007WAT     H218264   6.466   7.842   6.945
 6008WAT      O18265   2.620   7.646   0.971
 6008WAT     H118266   2.710   7.603   0.977
 6008WAT     H218267   2.567   7.601   0.899
 6009WAT      O18268   1.088   4.929   1.099
 6009WAT     H118269   1.100   4.958   1.195
 6009WAT     H218270   1.178   4.913   1.059
 6010WAT      O18271   1.806   6.384   9.464
 6010WAT     H118272   1.850   6.468   9.432
 6010WAT     H218273   1.714   6.404   9.496
 6011WAT      O18274   1.764   0.048   2.773
 6011WAT     H118275   1.664   0.041   2.772
 6011WAT     H218276   1.799   0.040   2.680
 6012WAT      O18277   3.900   8.194   9.461
 6012WAT     H118278   3.879   8.238   9.374
 6012WAT     H218279   3.896   8.095   9.451
 6013WAT      O18280   5.424   8.644   2.272
 6013WAT     H118281   5.482   8.619   2.350
 6013WAT     H218282   5.363   8.719   2.298
 6014WAT      O18283   2.070   2.557   5.181
 6014WAT     H118284   2.156   2.579   5.226
 6014WAT     H218285   2.019   2.641   5.164
 6015WAT      O18286   8.514   9.340   6.064
 6015WAT     H118287   8.567   9.255   6.071
 6015WAT     H218288   8.464   9.355   6.149
 6016WAT      O18289   7.756   1.269   4.850
 6016WAT     H118290   7.673   1.321   4.872
 6016WAT     H218291   7.774   1.275   4.752
 6017WAT      O18292   9.149   6.421   5.085
 6017WAT     H118293   9.214   6.375   5.145
 6017WAT     H218294   9.199   6.479   5.020
 6018WAT      O18295   4.962   5.662   8.807
 6018WAT     H118296   5.057   5.690   8.795
 6018WAT     H218297   4.958   5.565   8.831
 6019WAT      O18298   1.514   1.124   2.345
 6019WAT     H118299   1.425   1.111   2.391
 6019WAT     H218300   1.583   1.148   2.413
 6020WAT      O18301   6.245   9.354   8.773
 6020WAT     H118302   6.182   9.348   8.695
 6020WAT     H218303   6.319   9.288   8.761
 6021WAT      O18304   6.305   7.800   5.612
 6021WAT     H118305   6.219   7.842   5.583
 6021WAT     H218306   6.368   7.871   5.644
 6022WAT      O18307   9.094   5.373   7.064
 6022WAT     H118308   9.180   5.417   7.038
 6022WAT     H218309   9.018   5.435   7.047
 6023WAT      O18310   3.857   1.732   6.937
 6023WAT     H118311   3.863   1.654   6.875
 6023WAT     H218312   3.850   1.816   6.884
 6024WAT      O18313   0.783   5.109   7.044
 6024WAT     H118314   0.735   5.028   7.077
 6024WAT     H218315   0.722   5.160   6.982
 6025WAT      O18316   1.462   5.284   8.020
 6025WAT     H118317   1.398   5.333   8.079
 6025WAT     H218318   1.497   5.204   8.067
 6026WAT      O18319   2.893   6.828   1.720
 6026WAT     H118320   2.899   6.924   1.745
 6026WAT     H218321   2.826   6.818   1.646
 6027WAT      O18322   3.700   3.466   8.069
 6027WAT     H118323   3.795   3.460   8.039
 6027WAT     H218324   3.685   3.406   8.147
 6028WAT      O18325   0.036   2.598   7.014
 6028WAT     H118326   0.065   2.508   6.983
 6028WAT     H218327   0.093   2.668   6.971
 6029WAT      O18328   1.919   2.036   2.794
 6029WAT     H118329   1.935   2.085   2.880
 6029WAT     H218330   1.824   2.048   2.766
 6030WAT      O18331   9.551   0.728   3.493
 6030WAT     H118332   9.496   0.805   3.459
 6030WAT     H218333   9.491   0.653   3.519
 6031WAT      O18334   5.717   5.616   5.878
 6031WAT     H118335   5.773   5.564   5.813
 6031WAT     H218336   5.758   5.610   5.969
 6032WAT      O18337   3.923   7.105   7.298
 6032WAT     H118338   3.968   7.126   7.211
 6032WAT     H218339   3.825   7.093   7.283
 6033WAT      O18340   2.090   3.365   6.761
 6033WAT     H118341   1.993   3.377   6.741
 6033WAT     H218342   2.112   3.409   6.848
 6034WAT      O18343   6.942   0.175   2.254
 6034WAT     H118344   6.920   0.164   2.157
 6034WAT     H218345   7.012   0.109   2.280
 6035WAT      O18346   0.729   7.817   6.478
 6035WAT     H118347   0.827   7.832   6.464
 6035WAT     H218348   0.717   7.755   6.556
 6036WAT      O18349   5.448   5.571   8.391
 6036WAT     H118350   5.449   5.635   8.468
 6036WAT     H218351   5.409   5.484   8.421
 6037WAT      O18352   3.701   5.316   1.023
 6037WAT     H118353   3.771   5.387   1.013
 6037WAT     H218354   3.746   5.226   1.026
 6038WAT      O18355   1.805   3.081   6.835
 6038WAT     H118356   1.714   3.042   6.818
 6038WAT     H218357   1.861   3.015   6.883
 6039WAT      O18358   2.118   1.360   9.052
 6039WAT     H118359   2.073   1.293   9.111
 6039WAT     H218360   2.177   1.419   9.108
 6040WAT      O18361   9.578   8.016   4.609
 6040WAT     H118362   9.560   8.061   4.521
 6040WAT     H218363   9.676   8.002   4.619
 6041WAT      O18364   0.166   7.889   9.094
 6041WAT     H118365   0.254   7.886   9.142
 6041WAT     H218366   0.170   7.831   9.013
 6042WAT      O18367   3.939   3.828   4.421
 6042WAT     H118368   3.853   3.875   4.439
 6042WAT     H218369   3.925   3.729   4.426
 6043WAT      O18370   6.979   7.406   3.718
 6043WAT     H118371   7.043   7.388   3.792
 6043WAT     H218372   6.971   7.325   3.660
 6044WAT      O18373   1.049   2.034   7.784
 6044WAT     H118374   1.047   1.957   7.848
 6044WAT     H218375   1.057   2.000   7.691
 6045WAT      O18376   2.248   7.488   0.443
 6045WAT     H118377   2.186   7.547   0.494
 6045WAT     H218378   2.317   7.450   0.504
 6046WAT      O18379   1.198   4.727   0.909
 6046WAT     H118380   1.133   4.651   0.911
 6046WAT     H218381   1.290   4.692   0.927
 6047WAT      O18382   7.555   8.828   3.833
 6047WAT     H118383   7.591   8.747   3.879
 6047WAT     H218384   7.551   8.904   3.897
 6048WAT      O18385   6.727   5.724   6.660
 6048WAT     H118386   6.697   5.708   6.565
 6048WAT     H218387   6.821   5.758   6.660
 6049WAT      O18388   9.880   3.770   5.188
 6049WAT     H118389   9.919   3.854   5.151
 6049WAT     H218390   9.844   3.714   5.113
 6050WAT      O18391   4.006   5.766   9.275
 6050WAT     H118392   3.962   5.856   9.269
 6050WAT     H218393   3.936   5.695   9.285
 6051WAT      O18394   6.661   3.295   3.756
 6051WAT     H118395   6.637   3.211   3.707
 6051WAT     H218396   6.720   3.351   3.699
 6052WAT      O18397   8.314   0.822   5.555
 6052WAT     H118398   8.249   0.896   5.574
 6052WAT     H218399   8.302   0.749   5.623
 6053WAT      O18400   5.808   1.587   0.232
 6053WAT     H118401   5.749   1.623   0.304
 6053WAT     H218402   5.774   1.618   0.143
 6054WAT      O18403   4.955   9.144   5.132
 6054WAT     H118404   5.012   9.167   5.210
 6054WAT     H218405   4.866   9.111   5.164
 6055WAT      O18406   0.767   7.927   2.575
 6055WAT     H118407   0.866   7.937   2.568
 6055WAT     H218408   0.733   7.870   2.501
 6056WAT      O18409   8.331   0.096   0.898
 6056WAT     H118410   8.378   0.130   0.979
 6056WAT     H218411   8.234   0.082   0.919
 6057WAT      O18412   6.274   4.301   3.958
 6057WAT     H118413   6.209   4.254   4.018
 6057WAT     H218414   6.232   4.386   3.924
 6058WAT      O18415   5.104   6.835   1.723
 6058WAT     H118416   5.123   6.850   1.626
 6058WAT     H218417   5.091   6.738   1.740
 6059WAT      O18418   9.729   2.941   9.302
 6059WAT     H118419   9.804   3.003   9.323
 6059WAT     H218420   9.709   2.885   9.382
 6060WAT      O18421   9.326   3.302   9.800
 6060WAT     H118422   9.319   3.209   9.764
 6060WAT     H218423   9.391   3.355   9.745
 6061WAT      O18424   0.693   9.428   8.869
 6061WAT     H118425   0.655   9.446   8.960
 6061WAT     H218426   0.721   9.515   8.827
 6062WAT      O18427   1.449   5.427   2.379
 6062WAT     H118428   1.448   5.341   2.431
 6062WAT     H218429   1.511   5.492   2.423
 6063WAT      O18430   7.849   5.892   8.768
 6063WAT     H118431   7.919   5.908   8.837
 6063WAT     H218432   7.759   5.891   8.811
 6064WAT      O18433   3.253   2.584   7.473
 6064WAT     H118434   3.267   2.567   7.571
 6064WAT     H218435   3.320   2.531   7.420
 6065WAT      O18436   2.432   5.008   9.570
 6065WAT     H118437   2.508   5.049   9.520
 6065WAT     H218438   2.438   4.909   9.566
 6066WAT      O18439   8.693   0.394   5.808
 6066WAT     H118440   8.632   0.473   5.814
 6066WAT     H218441   8.642   0.311   5.828
 6067WAT      O18442   3.783   0.079   3.624
 6067WAT     H118443   3.821  -0.008   3.594
 6067WAT     H218444   3.850   0.151   3.612
 6068WAT      O18445   5.326   8.167   1.599
 6068WAT     H118446   5.304   8.155   1.502
 6068WAT     H218447   5.372   8.254   1.612
 6069WAT      O18448   8.791   3.662   8.170
 6069WAT     H118449   8.775   3.565   8.151
 6069WAT     H218450   8.704   3.707   8.190
 6070WAT      O18451   6.355   4.751   1.205
 6070WAT     H118452   6.426   4.812   1.239
 6070WAT     H218453   6.364   4.662   1.250
 6071WAT      O18454   1.901   2.214   4.350
 6071WAT     H118455   1.866   2.296   4.304
 6071WAT     H218456   1.991   2.234   4.389
 6072WAT      O18457   2.179   2.214   5.792
 6072WAT     H118458   2.161   2.182   5.886
 6072WAT     H218459   2.122   2.163   5.728
 6073WAT      O18460   7.733   7.241   3.907
 6073WAT     H118461   7.805   7.180   3.940
 6073WAT     H218462   7.767   7.335   3.905
 6074WAT      O18463   8.092   2.023   4.661
 6074WAT     H118464   8.127   1.969   4.584
 6074WAT     H218465   8.052   1.963   4.729
 6075WAT      O18466   0.931   9.811   3.356
 6075WAT     H118467   0.890   9.843   3.441
 6075WAT     H218468   1.030   9.824   3.360
 6076WAT      O18469   1.567   2.076   5.482
 6076WAT     H118470   1.661   2.058   5.452
 6076WAT     H218471   1.570   2.115   5.575
 6077WAT      O18472   1.243   3.321   1.172
 6077WAT     H118473   1.202   3.340   1.261
 6077WAT     H218474   1.339   3.350   1.173
 6078WAT      O18475   9.577   0.305   9.582
 6078WAT     H118476   9.670   0.340   9.586
 6078WAT     H218477   9.530   0.343   9.503
 6079WAT      O18478   9.797   4.112   4.997
 6079WAT     H118479   9.859   4.035   5.014
 6079WAT     H218480   9.842   4.197   5.025
 6080WAT      O18481   5.352   7.349   3.330
 6080WAT     H118482   5.319   7.322   3.420
 6080WAT     H218483   5.351   7.449   3.322
 6081WAT      O18484   0.110   9.560   7.974
 6081WAT     H118485   0.106   9.614   8.058
 6081WAT     H218486   0.157   9.612   7.903
 6082WAT      O18487   0.690   1.129   5.206
 6082WAT     H118488   0.695   1.029   5.211
 6082WAT     H218489   0.656   1.165   5.293
 6083WAT      O18490   3.624   8.985   8.641
 6083WAT     H118491   3.711   9.009   8.598
 6083WAT     H218492   3.635   8.983   8.740
 6084WAT      O18493   3.035   7.891   7.158
 6084WAT     H118494   3.092   7.931   7.230
 6084WAT     H218495   3.003   7.963   7.097
 6085WAT      O18496   0.599   0.342   3.816
 6085WAT     H118497   0.540   0.424   3.820
 6085WAT     H218498   0.543   0.261   3.830
 6086WAT      O18499   7.999   9.339   4.967
 6086WAT     H118500   7.937   9.414   4.944
 6086WAT     H218501   8.085   9.376   5.000
 6087WAT      O18502   9.025   5.932   1.819
 6087WAT     H118503   8.942   5.973   1.780
 6087WAT     H218504   9.052   5.982   1.901
 6088WAT      O18505   0.958   7.486   8.434
 6088WAT     H118506   1.015   7.492   8.516
 6088WAT     H218507   0.924   7.392   8.424
 6089WAT      O18508   6.717   6.158   5.361
 6089WAT     H118509   6.706   6.140   5.263
 6089WAT     H218510   6.814   6.168   5.383
 6090WAT      O18511   3.366   8.193   6.513
 6090WAT     H118512   3.388   8.097   6.497
 6090WAT     H218513   3.392   8.218   6.606
 6091WAT      O18514   1.918   9.704   1.728
 6091WAT     H118515   1.869   9.764   1.666
 6091WAT     H218516   1.869   9.697   1.815
 6092WAT      O18517   4.606   8.229   3.814
 6092WAT     H118518   4.702   8.206   3.828
 6092WAT     H218519   4.557   8.226   3.901
 6093WAT      O18520   3.672   6.790   2.776
 6093WAT     H118521   3.668   6.743   2.864
 6093WAT     H218522   3.584   6.835   2.758
 6094WAT      O18523   5.394   7.386   4.353
 6094WAT     H118524   5.303   7.354   4.326
 6094WAT     H218525   5.423   7.338   4.435
 6095WAT      O18526   4.197   2.666   0.290
 6095WAT     H118527   4.291   2.633   0.291
 6095WAT     H218528   4.144   2.619   0.360
 6096WAT      O18529   0.363   0.812   5.233
 6096WAT     H118530   0.353   0.826   5.135
 6096WAT     H218531   0.346   0.898   5.281
 6097WAT      O18532   7.373   5.547   0.848
 6097WAT     H118533   7.411   5.591   0.929
 6097WAT     H218534   7.447   5.525   0.784
 6098WAT      O18535   7.566   7.266   8.226
 6098WAT     H118536   7.615   7.196   8.277
 6098WAT     H218537   7.622   7.350   8.223
 6099WAT      O18538   3.146   7.617   5.961
 6099WAT     H118539   3.072   7.585   5.902
 6099WAT     H218540   3.222   7.647   5.905
 6100WAT      O18541   5.585   2.206   1.386
 6100WAT     H118542   5.509   2.254   1.342
 6100WAT     H218543   5.672   2.236   1.346
 6101WAT      O18544   5.095   5.743   6.015
 6101WAT     H118545   5.152   5.663   5.995
 6101WAT     H218546   5.141   5.825   5.981
 6102WAT      O18547   9.858   8.636   5.117
 6102WAT     H118548   9.790   8.693   5.071
 6102WAT     H218549   9.840   8.539   5.097
 6103WAT      O18550   0.128   9.038   4.484
 6103WAT     H118551   0.048   9.085   4.521
 6103WAT     H218552   0.200   9.032   4.553
 6104WAT      O18553   7.931   7.621   4.110
 6104WAT     H118554   8.014   7.595   4.060
 6104WAT     H218555   7.887   7.539   4.146
 6105WAT      O18556   2.511   3.394   2.798
 6105WAT     H118557   2.505   3.479   2.851
 6105WAT     H218558   2.582   3.336   2.837
 6106WAT      O18559   0.182   4.421   7.386
 6106WAT     H118560   0.185   4.372   7.473
 6106WAT     H218561   0.245   4.499   7.389
 6107WAT      O18562   3.728   3.945   7.192
 6107WAT     H118563   3.816   3.991   7.182
 6107WAT     H218564   3.654   4.011   7.176
 6108WAT      O18565   4.078   2.180   1.466
 6108WAT     H118566   4.046   2.085   1.460
 6108WAT     H218567   4.083   2.219   1.374
 6109WAT      O18568   9.339   8.945   3.893
 6109WAT     H118569   9.321   9.043   3.878
 6109WAT     H218570   9.346   8.899   3.804
 6110WAT      O18571   2.529   0.969   7.230
 6110WAT     H118572   2.596   1.032   7.269
 6110WAT     H218573   2.489   1.009   7.148
 6111WAT      O18574   1.439   8.115   3.292
 6111WAT     H118575   1.522   8.143   3.340
 6111WAT     H218576   1.395   8.041   3.342
 6112WAT      O18577   8.712   0.757   3.300
 6112WAT     H118578   8.743   0.705   3.379
 6112WAT     H218579   8.617   0.732   3.278
 6113WAT      O18580   3.375   8.586   0.066
 6113WAT     H118581   3.447   8.516   0.073
 6113WAT     H218582   3.294   8.555   0.115
 6114WAT      O18583   7.068   2.756   4.433
 6114WAT     H118584   7.002   2.824   4.466
 6114WAT     H218585   7.023   2.667   4.425
 6115WAT      O18586   0.148   7.401   9.584
 6115WAT     H118587   0.099   7.403   9.498
 6115WAT     H218588   0.100   7.342   9.649
 6116WAT      O18589   1.114   0.613   9.443
 6116WAT     H118590   1.091   0.623   9.346
 6116WAT     H218591   1.032   0.631   9.498
 6117WAT      O18592   9.501   8.721   9.434
 6117WAT     H118593   9.538   8.726   9.526
 6117WAT     H218594   9.413   8.672   9.436
 6118WAT      O18595   4.696   4.146   5.050
 6118WAT     H118596   4.733   4.184   5.135
 6118WAT     H218597   4.603   4.113   5.067
 6119WAT      O18598   2.791   0.118   4.219
 6119WAT     H118599   2.817   0.022   4.205
 6119WAT     H218600   2.811   0.145   4.313
 6120WAT      O18601   7.750   6.062   0.022
 6120WAT     H118602   7.772   5.972   0.059
 6120WAT     H218603   7.652   6.070   0.008
 6121WAT      O18604   5.401   9.494   1.757
 6121WAT     H118605   5.422   9.398   1.771
 6121WAT     H218606   5.469   9.551   1.804
 6122WAT      O18607   5.652   6.300   0.042
 6122WAT     H118608   5.701   6.365  -0.015
 6122WAT     H218609   5.678   6.314   0.138
 6123WAT      O18610   9.873   3.474   3.630
 6123WAT     H118611   9.832   3.469   3.721
 6123WAT     H218612   9.960   3.523   3.635
 6124WAT      O18613   4.039   3.456   6.309
 6124WAT     H118614   3.953   3.504   6.330
 6124WAT     H218615   4.059   3.464   6.212
 6125WAT      O18616   4.382   0.273   0.599
 6125WAT     H118617   4.329   0.246   0.680
 6125WAT     H218618   4.471   0.310   0.628
 6126WAT      O18619   6.411   8.510   7.018
 6126WAT     H118620   6.424   8.575   6.943
 6126WAT     H218621   6.481   8.438   7.013
 6127WAT      O18622   3.380   1.417   5.476
 6127WAT     H118623   3.417   1.481   5.409
 6127WAT     H218624   3.451   1.392   5.542
 6128WAT      O18625   6.030   9.075   4.694
 6128WAT     H118626   6.111   9.114   4.651
 6128WAT     H218627   6.022   9.110   4.788
 6129WAT      O18628   5.134   2.497   7.117
 6129WAT     H118629   5.203   2.547   7.065
 6129WAT     H218630   5.043   2.516   7.080
 6130WAT      O18631   4.930   7.350   8.153
 6130WAT     H118632   4.948   7.267   8.101
 6130WAT     H218633   4.836   7.380   8.138
 6131WAT      O18634   6.452   8.570   9.431
 6131WAT     H118635   6.536   8.612   9.397
 6131WAT     H218636   6.415   8.509   9.361
 6132WAT      O18637   6.897   6.947   4.655
 6132WAT     H118638   6.990   6.948   4.693
 6132WAT     H218639   6.891   7.008   4.576
 6133WAT      O18640   2.519   2.754   4.420
 6133WAT     H118641   2.463   2.837   4.426
 6133WAT     H218642   2.459   2.674   4.415
 6134WAT      O18643   1.705   7.543   2.216
 6134WAT     H118644   1.647   7.507   2.143
 6134WAT     H218645   1.793   7.495   2.214
 6135WAT      O18646   2.318   7.667   8.840
 6135WAT     H118647   2.302   7.758   8.802
 6135WAT     H218648   2.234   7.632   8.881
 6136WAT      O18649   7.886   4.828   8.229
 6136WAT     H118650   7.972   4.877   8.209
 6136WAT     H218651   7.906   4.746   8.282
 6137WAT      O18652   1.463   5.358   9.537
 6137WAT     H118653   1.372   5.398   9.548
 6137WAT     H218654   1.533   5.428   9.549
 6138WAT      O18655   9.181   0.365   9.348
 6138WAT     H118656   9.212   0.298   9.281
 6138WAT     H218657   9.252   0.378   9.417
 6139WAT      O18658   7.837   5.822   0.123
 6139WAT     H118659   7.777   5.744   0.102
 6139WAT     H218660   7.921   5.814   0.069
 6140WAT      O18661   9.497   6.695   1.806
 6140WAT     H118662   9.409   6.651   1.820
 6140WAT     H218663   9.570   6.626   1.808
 6141WAT      O18664   0.657   5.405   8.293
 6141WAT     H118665   0.746   5.391   8.335
 6141WAT     H218666   0.614   5.316   8.277
 6142WAT      O18667   5.125   2.840   2.614
 6142WAT     H118668   5.026   2.822   2.613
 6142WAT     H218669   5.141   2.936   2.588
 6143WAT      O18670   2.603   6.131   4.532
 6143WAT     H118671   2.634   6.221   4.502
 6143WAT     H218672   2.635   6.061   4.468
 6144WAT      O18673   9.497   1.140   2.523
 6144WAT     H118674   9.540   1.066   2.472
 6144WAT     H218675   9.463   1.105   2.611
 6145WAT      O18676   1.262   9.395   4.753
 6145WAT     H118677   1.317   9.478   4.756
 6145WAT     H218678   1.222   9.377   4.843
 6146WAT      O18679   9.731   0.066   8.578
 6146WAT     H118680   9.706  -0.006   8.513
 6146WAT     H218681   9.655   0.080   8.642
 6147WAT      O18682   4.932   0.181   8.533
 6147WAT     H118683   4.900   0.245   8.464
 6147WAT     H218684   4.950   0.231   8.618
 6148WAT      O18685   7.408   9.067   4.392
 6148WAT     H118686   7.414   9.000   4.319
 6148WAT     H218687   7.412   9.020   4.481
 6149WAT      O18688   2.097   0.343   8.182
 6149WAT     H118689   2.131   0.250   8.193
 6149WAT     H218690   2.080   0.382   8.272
 6150WAT      O18691   9.038   4.157   2.650
 6150WAT     H118692   8.970   4.191   2.585
 6150WAT     H218693   9.059   4.062   2.630
 6151WAT      O18694   1.567   1.687   3.910
 6151WAT     H118695   1.563   1.587   3.919
 6151WAT     H218696   1.537   1.729   3.995
 6152WAT      O18697   2.430   2.747   2.844
 6152WAT     H118698   2.380   2.821   2.889
 6152WAT     H218699   2.370   2.702   2.778
 6153WAT      O18700   1.950   5.080   4.540
 6153WAT     H118701   1.909   5.168   4.563
 6153WAT     H218702   1.985   5.083   4.447
 6154WAT      O18703   9.600   2.506   3.841
 6154WAT     H118704   9.636   2.545   3.926
 6154WAT     H218705   9.535   2.433   3.863
 6155WAT      O18706   5.337   0.104   0.596
 6155WAT     H118707   5.344   0.015   0.552
 6155WAT     H218708   5.417   0.159   0.574
 6156WAT      O18709   0.800   5.430   6.280
 6156WAT     H118710   0.873   5.492   6.252
 6156WAT     H218711   0.712   5.470   6.253
 6157WAT      O18712   6.632   2.657   2.174
 6157WAT     H118713   6.655   2.665   2.077
 6157WAT     H218714   6.643   2.746   2.218
 6158WAT      O18715   9.341   9.320   4.657
 6158WAT     H118716   9.295   9.405   4.632
 6158WAT     H218717   9.283   9.242   4.632
 6159WAT      O18718   3.655   7.193   0.867
 6159WAT     H118719   3.684   7.271   0.811
 6159WAT     H218720   3.588   7.139   0.817
 6160WAT      O18721   9.744   8.419   3.869
 6160WAT     H118722   9.654   8.379   3.887
 6160WAT     H218723   9.796   8.422   3.954
 6161WAT      O18724   0.894   8.419   4.793
 6161WAT     H118725   0.856   8.489   4.732
 6161WAT     H218726   0.910   8.459   4.883
 6162WAT      O18727   6.216   4.028   3.320
 6162WAT     H118728   6.254   4.120   3.331
 6162WAT     H218729   6.126   4.024   3.362
 6163WAT      O18730   3.168   2.016   8.726
 6163WAT     H118731   3.075   2.006   8.690
 6163WAT     H218732   3.170   2.092   8.791
 6164WAT      O18733   5.837   5.558   0.158
 6164WAT     H118734   5.739   5.573   0.146
 6164WAT     H218735   5.887   5.617   0.093
 6165WAT      O18736   4.511   0.911   5.789
 6165WAT     H118737   4.439   0.874   5.730
 6165WAT     H218738   4.593   0.854   5.782
 6166WAT      O18739   9.434   3.962   0.938
 6166WAT     H118740   9.496   3.941   1.013
 6166WAT     H218741   9.424   4.062   0.931
 6167WAT      O18742   4.203   0.829   7.375
 6167WAT     H118743   4.270   0.756   7.362
 6167WAT     H218744   4.175   0.832   7.471
 6168WAT      O18745   3.851   4.077   1.886
 6168WAT     H118746   3.847   4.019   1.967
 6168WAT     H218747   3.901   4.161   1.906
 6169WAT      O18748   7.745   4.623   3.630
 6169WAT     H118749   7.805   4.581   3.698
 6169WAT     H218750   7.673   4.559   3.605
 6170WAT      O18751   4.644   7.645   8.671
 6170WAT     H118752   4.604   7.573   8.614
 6170WAT     H218753   4.583   7.725   8.669
 6171WAT      O18754   5.448   8.517   0.847
 6171WAT     H118755   5.408   8.581   0.913
 6171WAT     H218756   5.383   8.444   0.828
 6172WAT      O18757   1.258   2.626   8.083
 6172WAT     H118758   1.279   2.618   7.986
 6172WAT     H218759   1.344   2.624   8.136
 6173WAT      O18760   1.457   1.436   2.237
 6173WAT     H118761   1.456   1.345   2.195
 6173WAT     H218762   1.399   1.435   2.319
 6174WAT      O18763   6.628   1.681   5.242
 6174WAT     H118764   6.667   1.682   5.334
 6174WAT     H218765   6.624   1.774   5.207
 6175WAT      O18766   5.772   6.704   8.008
 6175WAT     H118767   5.831   6.655   8.073
 6175WAT     H218768   5.689   6.652   7.992
 6176WAT      O18769   5.077   6.371   4.314
 6176WAT     H118770   5.150   6.420   4.266
 6176WAT     H218771   5.030   6.310   4.249
 6177WAT      O18772   4.001   4.886   2.473
 6177WAT     H118773   4.001   4.812   2.406
 6177WAT     H218774   4.032   4.971   2.429
 6178WAT      O18775   7.294   8.603   7.109
 6178WAT     H118776   7.273   8.526   7.169
 6178WAT     H218777   7.275   8.577   7.014
 6179WAT      O18778   6.915   1.369   3.322
 6179WAT     H118779   6.857   1.412   3.253
 6179WAT     H218780   6.897   1.412   3.411
 6180WAT      O18781   4.439   5.848   0.922
 6180WAT     H118782   4.417   5.941   0.890
 6180WAT     H218783   4.420   5.841   1.020
 6181WAT      O18784   4.670   0.062   0.365
 6181WAT     H118785   4.692   0.058   0.267
 6181WAT     H218786   4.755   0.066   0.418
 6182WAT      O18787   8.687   8.563   0.660
 6182WAT     H118788   8.635   8.628   0.606
 6182WAT     H218789   8.633   8.536   0.740
 6183WAT      O18790   9.350   2.563   9.181
 6183WAT     H118791   9.306   2.543   9.269
 6183WAT     H218792   9.416   2.491   9.160
 6184WAT      O18793   5.427   7.174   0.537
 6184WAT     H118794   5.365   7.237   0.582
 6184WAT     H218795   5.423   7.085   0.582
 6185WAT      O18796   3.572   8.313   7.757
 6185WAT     H118797   3.525   8.271   7.834
 6185WAT     H218798   3.639   8.249   7.720
 6186WAT      O18799   8.675   5.484   2.566
 6186WAT     H118800   8.631   5.573   2.554
 6186WAT     H218801   8.706   5.474   2.661
 6187WAT      O18802   3.596   3.463   6.147
 6187WAT     H118803   3.675   3.403   6.133
 6187WAT     H218804   3.626   3.558   6.143
 6188WAT      O18805   5.968   5.619   7.566
 6188WAT     H118806   6.051   5.564   7.580
 6188WAT     H218807   5.971   5.661   7.475
 6189WAT      O18808   7.858   0.643   9.380
 6189WAT     H118809   7.825   0.672   9.290
 6189WAT     H218810   7.954   0.666   9.390
 6190WAT      O18811   7.114   2.814   5.876
 6190WAT     H118812   7.015   2.800   5.876
 6190WAT     H218813   7.150   2.795   5.785
 6191WAT      O18814   3.925   0.336   1.312
 6191WAT     H118815   4.014   0.379   1.304
 6191WAT     H218816   3.906   0.315   1.408
 6192WAT      O18817   6.212   4.585   4.593
 6192WAT     H118818   6.149   4.663   4.592
 6192WAT     H218819   6.276   4.593   4.517
 6193WAT      O18820   3.765   1.235   9.570
 6193WAT     H118821   3.794   1.327   9.595
 6193WAT     H218822   3.843   1.172   9.575
 6194WAT      O18823   2.027   6.522   3.439
 6194WAT     H118824   2.018   6.495   3.343
 6194WAT     H218825   2.116   6.492   3.474
 6195WAT      O18826   7.144   6.872   6.013
 6195WAT     H118827   7.155   6.836   5.921
 6195WAT     H218828   7.188   6.812   6.079
 6196WAT      O18829   6.664   2.667   5.361
 6196WAT     H118830   6.726   2.647   5.437
 6196WAT     H218831   6.569   2.663   5.394
 6197WAT      O18832   6.625   1.952   7.523
 6197WAT     H118833   6.540   1.943   7.472
 6197WAT     H218834   6.691   1.884   7.490
 6198WAT      O18835   4.652   7.603   4.252
 6198WAT     H118836   4.705   7.680   4.216
 6198WAT     H218837   4.634   7.538   4.178
 6199WAT      O18838   4.404   9.394   4.951
 6199WAT     H118839   4.485   9.354   4.993
 6199WAT     H218840   4.373   9.337   4.875
 6200WAT      O18841   9.285   5.819   8.995
 6200WAT     H118842   9.314   5.910   9.022
 6200WAT     H218843   9.290   5.810   8.896
 6201WAT      O18844   8.862   0.914   2.717
 6201WAT     H118845   8.818   0.878   2.634
 6201WAT     H218846   8.798   0.907   2.794
 6202WAT      O18847   9.485   9.541   2.711
 6202WAT     H118848   9.439   9.602   2.775
 6202WAT     H218849   9.575   9.577   2.689
 6203WAT      O18850   4.008   2.078   6.267
 6203WAT     H118851   3.968   2.137   6.337
 6203WAT     H218852   4.027   1.988   6.306
 6204WAT      O18853   7.489   1.561   7.541
 6204WAT     H118854   7.558   1.497   7.575
 6204WAT     H218855   7.436   1.518   7.468
 6205WAT      O18856   5.855   5.143   2.767
 6205WAT     H118857   5.773   5.194   2.742
 6205WAT     H218858   5.852   5.123   2.866
 6206WAT      O18859   4.720   2.326   1.117
 6206WAT     H118860   4.753   2.273   1.039
 6206WAT     H218861   4.796   2.374   1.160
 6207WAT      O18862   7.902   1.190   2.536
 6207WAT     H118863   7.976   1.176   2.602
 6207WAT     H218864   7.814   1.169   2.579
 6208WAT      O18865   9.492   5.878   4.671
 6208WAT     H118866   9.591   5.876   4.657
 6208WAT     H218867   9.458   5.784   4.676
 6209WAT      O18868   7.563   5.705   7.415
 6209WAT     H118869   7.535   5.732   7.507
 6209WAT     H218870   7.501   5.745   7.348
 6210WAT      O18871   2.169   0.537   6.230
 6210WAT     H118872   2.129   0.586   6.153
 6210WAT     H218873   2.236   0.596   6.276
 6211WAT      O18874   8.575   4.917   4.032
 6211WAT     H118875   8.495   4.904   3.974
 6211WAT     H218876   8.553   4.980   4.107
 6212WAT      O18877   6.759   8.206   6.469
 6212WAT     H118878   6.818   8.161   6.403
 6212WAT     H218879   6.670   8.159   6.472
 6213WAT      O18880   6.219   8.373   1.864
 6213WAT     H118881   6.240   8.469   1.850
 6213WAT     H218882   6.231   8.350   1.960
 6214WAT      O18883   6.787   4.374   7.449
 6214WAT     H118884   6.880   4.337   7.444
 6214WAT     H218885   6.720   4.301   7.435
 6215WAT      O18886   6.276   8.265   1.401
 6215WAT     H118887   6.204   8.272   1.332
 6215WAT     H218888   6.319   8.175   1.395
 6216WAT      O18889   1.032   4.403   4.150
 6216WAT     H118890   0.988   4.477   4.200
 6216WAT     H218891   0.967   4.328   4.137
 6217WAT      O18892   6.821   3.424   2.099
 6217WAT     H118893   6.767   3.383   2.173
 6217WAT     H218894   6.909   3.378   2.094
 6218WAT      O18895   1.473   1.700   8.170
 6218WAT     H118896   1.418   1.698   8.087
 6218WAT     H218897   1.413   1.700   8.250
 6219WAT      O18898   8.889   8.854   3.773
 6219WAT     H118899   8.851   8.761   3.769
 6219WAT     H218900   8.839   8.906   3.842
 6220WAT      O18901   7.394   6.974   0.330
 6220WAT     H118902   7.377   6.980   0.232
 6220WAT     H218903   7.378   6.880   0.361
 6221WAT      O18904   5.603   7.038   0.260
 6221WAT     H118905   5.619   7.111   0.326
 6221WAT     H218906   5.607   7.075   0.167
 6222WAT      O18907   5.739   8.404   0.450
 6222WAT     H118908   5.823   8.399   0.503
 6222WAT     H218909   5.668   8.349   0.495
 6223WAT      O18910   7.632   6.737   2.685
 6223WAT     H118911   7.650   6.639   2.689
 6223WAT     H218912   7.543   6.752   2.642
 6224WAT      O18913   0.368   7.235   3.080
 6224WAT     H118914   0.357   7.180   3.162
 6224WAT     H218915   0.331   7.185   3.001
 6225WAT      O18916   8.846   8.169   9.565
 6225WAT     H118917   8.940   8.183   9.597
 6225WAT     H218918   8.802   8.257   9.550
 6226WAT      O18919   3.396   1.630   6.174
 6226WAT     H118920   3.319   1.634   6.237
 6226WAT     H218921   3.481   1.645   6.225
 6227WAT      O18922   9.842   1.123   8.599
 6227WAT     H118923   9.797   1.204   8.637
 6227WAT     H218924   9.785   1.083   8.528
 6228WAT      O18925   0.092   4.218   3.956
 6228WAT     H118926   0.167   4.188   3.897
 6228WAT     H218927   0.120   4.207   4.052
 6229WAT      O18928   3.875   6.802   4.614
 6229WAT     H118929   3.970   6.831   4.628
 6229WAT     H218930   3.847   6.824   4.520
 6230WAT      O18931   5.992   8.933   8.349
 6230WAT     H118932   6.004   8.839   8.317
 6230WAT     H218933   5.895   8.952   8.361
 6231WAT      O18934   7.883   5.590   5.355
 6231WAT     H118935   7.860   5.687   5.359
 6231WAT     H218936   7.843   5.550   5.272
 6232WAT      O18937   3.476   2.575   5.482
 6232WAT     H118938   3.389   2.549   5.440
 6232WAT     H218939   3.534   2.495   5.492
 6233WAT      O18940   6.875   0.660   4.379
 6233WAT     H118941   6.967   0.631   4.353
 6233WAT     H218942   6.808   0.597   4.340
 6234WAT      O18943   8.693   2.481   1.716
 6234WAT     H118944   8.688   2.383   1.736
 6234WAT     H218945   8.699   2.532   1.801
 6235WAT      O18946   3.404   7.315   1.170
 6235WAT     H118947   3.324   7.274   1.213
 6235WAT     H218948   3.376   7.365   1.088
 6236WAT      O18949   7.761   8.716   1.123
 6236WAT     H118950   7.818   8.677   1.051
 6236WAT     H218951   7.802   8.801   1.156
 6237WAT      O18952   8.089   7.321   1.490
 6237WAT     H118953   8.164   7.357   1.546
 6237WAT     H218954   8.047   7.244   1.537
 6238WAT      O18955   2.938   8.075   8.198
 6238WAT     H118956   2.917   8.065   8.296
 6238WAT     H218957   3.034   8.054   8.182
 6239WAT      O18958   5.178   5.955   0.347
 6239WAT     H118959   5.221   5.935   0.259
 6239WAT     H218960   5.093   5.903   0.356
 6240WAT      O18961   4.805   7.123   4.753
 6240WAT     H118962   4.722   7.082   4.716
 6240WAT     H218963   4.809   7.106   4.852
 6241WAT      O18964   2.238   4.147   6.856
 6241WAT     H118965   2.260   4.235   6.896
 6241WAT     H218966   2.257   4.074   6.923
 6242WAT      O18967   7.284   2.192   8.518
 6242WAT     H118968   7.209   2.191   8.451
 6242WAT     H218969   7.371   2.197   8.470
 6243WAT      O18970   6.215   5.551   2.997
 6243WAT     H118971   6.234   5.468   2.945
 6243WAT     H218972   6.255   5.544   3.088
 6244WAT      O18973   4.610   9.612   8.170
 6244WAT     H118974   4.557   9.571   8.245
 6244WAT     H218975   4.702   9.634   8.202
 6245WAT      O18976   2.905   0.694   3.604
 6245WAT     H118977   2.818   0.648   3.588
 6245WAT     H218978   2.980   0.636   3.572
 6246WAT      O18979   3.127   8.084   2.072
 6246WAT     H118980   3.107   8.041   2.160
 6246WAT     H218981   3.176   8.019   2.014
 6247WAT      O18982   4.573   9.296   9.430
 6247WAT     H118983   4.499   9.362   9.436
 6247WAT     H218984   4.555   9.232   9.355
 6248WAT      O18985   0.842   2.213   7.725
 6248WAT     H118986   0.916   2.146   7.731
 6248WAT     H218987   0.802   2.210   7.633
 6249WAT      O18988   0.280   2.111   5.969
 6249WAT     H118989   0.292   2.208   5.946
 6249WAT     H218990   0.245   2.102   6.062
 6250WAT      O18991   2.711   1.887   7.934
 6250WAT     H118992   2.666   1.905   8.022
 6250WAT     H218993   2.641   1.879   7.862
 6251WAT      O18994   2.694   8.698   9.522
 6251WAT     H118995   2.698   8.719   9.425
 6251WAT     H218996   2.694   8.782   9.575
 6252WAT      O18997   8.426   9.203   0.799
 6252WAT     H118998   8.444   9.196   0.701
 6252WAT     H218999   8.406   9.299   0.822
 6253WAT      O19000   3.085   6.485   5.037
 6253WAT     H119001   3.080   6.415   5.107
 6253WAT     H219002   3.117   6.571   5.077
 6254WAT      O19003   1.800   9.452   0.361
 6254WAT     H119004   1.796   9.363   0.407
 6254WAT     H219005   1.872   9.508   0.403
 6255WAT      O19006   5.369   8.136   0.072
 6255WAT     H119007   5.437   8.183   0.128
 6255WAT     H219008   5.293   8.198   0.053
 6256WAT      O19009   6.974   8.020   5.493
 6256WAT     H119010   6.932   8.038   5.405
 6256WAT     H219011   6.975   8.104   5.548
 6257WAT      O19012   1.582   6.178   1.845
 6257WAT     H119013   1.523   6.245   1.799
 6257WAT     H219014   1.535   6.090   1.847
 6258WAT      O19015   9.337   3.113   0.250
 6258WAT     H119016   9.250   3.127   0.298
 6258WAT     H219017   9.388   3.040   0.295
 6259WAT      O19018   2.068   4.266   0.561
 6259WAT     H119019   2.072   4.281   0.462
 6259WAT     H219020   1.973   4.257   0.589
 6260WAT      O19021   6.287   5.340   9.751
 6260WAT     H119022   6.229   5.393   9.813
 6260WAT     H219023   6.345   5.279   9.805
 6261WAT      O19024   4.052   6.414   8.961
 6261WAT     H119025   3.978   6.420   9.028
 6261WAT     H219026   4.027   6.346   8.891
 6262WAT      O19027   3.879   6.618   7.296
 6262WAT     H119028   3.920   6.697   7.340
 6262WAT     H219029   3.944   6.543   7.294
 6263WAT      O19030   2.378   3.648   8.848
 6263WAT     H119031   2.368   3.602   8.936
 6263WAT     H219032   2.462   3.702   8.848
 6264WAT      O19033   2.508   8.887   4.844
 6264WAT     H119034   2.469   8.822   4.908
 6264WAT     H219035   2.572   8.947   4.891
 6265WAT      O19036   5.385   1.876   7.449
 6265WAT     H119037   5.400   1.787   7.493
 6265WAT     H219038   5.402   1.949   7.514
 6266WAT      O19039   8.907   1.693   5.001
 6266WAT     H119040   9.003   1.664   5.009
 6266WAT     H219041   8.847   1.613   5.006
 6267WAT      O19042   8.826   4.384   0.828
 6267WAT     H119043   8.755   4.442   0.867
 6267WAT     H219044   8.788   4.331   0.753
 6268WAT      O19045   4.788   9.763   8.752
 6268WAT     H119046   4.689   9.768   8.765
 6268WAT     H219047   4.808   9.719   8.664
 6269WAT      O19048   6.328   3.467   7.592
 6269WAT     H119049   6.236   3.506   7.598
 6269WAT     H219050   6.345   3.434   7.499
 6270WAT      O19051   7.444   6.726   5.108
 6270WAT     H119052   7.533   6.748   5.068
 6270WAT     H219053   7.434   6.627   5.115
 6271WAT      O19054   3.643   4.776   6.908
 6271WAT     H119055   3.737   4.798   6.884
 6271WAT     H219056   3.634   4.677   6.921
 6272WAT      O19057   7.071   6.302   4.132
 6272WAT     H119058   7.012   6.326   4.056
 6272WAT     H219059   7.018   6.254   4.202
 6273WAT      O19060   2.569   1.919   0.560
 6273WAT     H119061   2.472   1.910   0.584
 6273WAT     H219062   2.613   1.830   0.562
 6274WAT      O19063   3.827   0.642   1.087
 6274WAT     H119064   3.810   0.741   1.089
 6274WAT     H219065   3.782   0.599   1.165
 6275WAT      O19066   1.414   8.087   5.068
 6275WAT     H119067   1.494   8.120   5.018
 6275WAT     H219068   1.351   8.163   5.084
 6276WAT      O19069   2.833   3.508   4.576
 6276WAT     H119070   2.811   3.543   4.485
 6276WAT     H219071   2.836   3.583   4.641
 6277WAT      O19072   1.167   8.785   5.538
 6277WAT     H119073   1.136   8.871   5.580
 6277WAT     H219074   1.102   8.757   5.467
 6278WAT      O19075   2.334   0.082   7.572
 6278WAT     H119076   2.264   0.153   7.565
 6278WAT     H219077   2.415   0.120   7.616
 6279WAT      O19078   1.847   6.529   4.053
 6279WAT     H119079   1.895   6.446   4.082
 6279WAT     H219080   1.774   6.549   4.118
 6280WAT      O19081   0.537   3.471   7.399
 6280WAT     H119082   0.573   3.424   7.479
 6280WAT     H219083   0.459   3.528   7.426
 6281WAT      O19084   5.378   7.219   8.399
 6281WAT     H119085   5.299   7.279   8.397
 6281WAT     H219086   5.459   7.269   8.366
 6282WAT      O19087   8.384   4.139   7.632
 6282WAT     H119088   8.329   4.061   7.602
 6282WAT     H219089   8.323   4.211   7.667
 6283WAT      O19090   5.146   5.431   6.771
 6283WAT     H119091   5.184   5.350   6.725
 6283WAT     H219092   5.118   5.498   6.703
 6284WAT      O19093   4.153   3.114   5.776
 6284WAT     H119094   4.057   3.099   5.799
 6284WAT     H219095   4.194   3.028   5.744
 6285WAT      O19096   7.842   1.664   4.155
 6285WAT     H119097   7.781   1.742   4.140
 6285WAT     H219098   7.889   1.674   4.243
 6286WAT      O19099   8.728   0.650   1.798
 6286WAT     H119100   8.646   0.706   1.798
 6286WAT     H219101   8.786   0.675   1.720
 6287WAT      O19102   0.337   1.303   9.831
 6287WAT     H119103   0.429   1.285   9.866
 6287WAT     H219104   0.321   1.402   9.831
 6288WAT      O19105   3.741   6.718   2.043
 6288WAT     H119106   3.708   6.637   1.995
 6288WAT     H219107   3.830   6.744   2.007
 6289WAT      O19108   3.899   9.078   0.490
 6289WAT     H119109   3.973   9.018   0.522
 6289WAT     H219110   3.912   9.097   0.393
 6290WAT      O19111   1.798   4.083   8.307
 6290WAT     H119112   1.745   4.110   8.227
 6290WAT     H219113   1.747   4.014   8.358
 6291WAT      O19114   6.681   2.438   9.684
 6291WAT     H119115   6.628   2.505   9.632
 6291WAT     H219116   6.684   2.351   9.634
 6292WAT      O19117   9.596   5.837   2.753
 6292WAT     H119118   9.517   5.890   2.783
 6292WAT     H219119   9.591   5.746   2.794
 6293WAT      O19120   1.413   3.633   5.962
 6293WAT     H119121   1.374   3.717   6.001
 6293WAT     H219122   1.340   3.572   5.933
 6294WAT      O19123   9.519   5.923   6.269
 6294WAT     H119124   9.516   5.851   6.338
 6294WAT     H219125   9.426   5.948   6.243
 6295WAT      O19126   9.408   3.175   8.836
 6295WAT     H119127   9.347   3.134   8.769
 6295WAT     H219128   9.503   3.163   8.807
 6296WAT      O19129   3.021   9.324   6.523
 6296WAT     H119130   3.014   9.281   6.613
 6296WAT     H219131   3.007   9.422   6.532
 6297WAT      O19132   3.720   5.314   1.721
 6297WAT     H119133   3.704   5.338   1.626
 6297WAT     H219134   3.799   5.364   1.756
 6298WAT      O19135   3.558   6.807   6.769
 6298WAT     H119136   3.554   6.714   6.805
 6298WAT     H219137   3.596   6.806   6.677
 6299WAT      O19138   9.393   3.275   1.066
 6299WAT     H119139   9.370   3.199   1.004
 6299WAT     H219140   9.486   3.305   1.049
 6300WAT      O19141   3.042   9.429   0.778
 6300WAT     H119142   3.000   9.506   0.729
 6300WAT     H219143   3.024   9.344   0.729
 6301WAT      O19144   5.887   7.581   1.241
 6301WAT     H119145   5.955   7.520   1.282
 6301WAT     H219146   5.801   7.532   1.229
 6302WAT      O19147   3.560   9.019   7.203
 6302WAT     H119148   3.541   9.025   7.301
 6302WAT     H219149   3.522   8.934   7.167
 6303WAT      O19150   4.298   5.631   6.280
 6303WAT     H119151   4.240   5.560   6.320
 6303WAT     H219152   4.348   5.677   6.353
 6304WAT      O19153   8.179   2.051   0.458
 6304WAT     H119154   8.181   2.042   0.558
 6304WAT     H219155   8.166   2.147   0.434
 6305WAT      O19156   4.712   8.118   6.285
 6305WAT     H119157   4.626   8.076   6.313
 6305WAT     H219158   4.697   8.215   6.266
 6306WAT      O19159   7.986   7.869   9.375
 6306WAT     H119160   7.914   7.898   9.439
 6306WAT     H219161   7.949   7.863   9.283
 6307WAT      O19162   3.930   9.447   0.115
 6307WAT     H119163   4.005   9.393   0.151
 6307WAT     H219164   3.942   9.543   0.141
 6308WAT      O19165   7.845   7.346   6.833
 6308WAT     H119166   7.837   7.320   6.930
 6308WAT     H219167   7.929   7.399   6.820
 6309WAT      O19168   8.129   1.944   6.758
 6309WAT     H119169   8.049   1.914   6.707
 6309WAT     H219170   8.101   1.978   6.848
 6310WAT      O19171   2.216   9.620   3.376
 6310WAT     H119172   2.187   9.688   3.308
 6310WAT     H219173   2.138   9.595   3.433
 6311WAT      O19174   1.317   3.717   8.681
 6311WAT     H119175   1.370   3.764   8.610
 6311WAT     H219176   1.360   3.629   8.701
 6312WAT      O19177   0.258   8.957   4.979
 6312WAT     H119178   0.215   8.993   5.063
 6312WAT     H219179   0.260   8.858   4.983
 6313WAT      O19180   0.972   3.916   0.249
 6313WAT     H119181   1.034   3.987   0.281
 6313WAT     H219182   0.998   3.887   0.157
 6314WAT      O19183   1.948   9.669   6.143
 6314WAT     H119184   1.956   9.654   6.044
 6314WAT     H219185   2.023   9.727   6.174
 6315WAT      O19186   0.111   2.506   1.873
 6315WAT     H119187   0.195   2.457   1.894
 6315WAT     H219188   0.042   2.487   1.943
 6316WAT      O19189   5.197   6.222   0.113
 6316WAT     H119190   5.262   6.204   0.039
 6316WAT     H219191   5.139   6.300   0.088
 6317WAT      O19192   8.861   8.032   1.305
 6317WAT     H119193   8.871   8.080   1.393
 6317WAT     H219194   8.779   8.065   1.259
 6318WAT      O19195   3.254   5.918   9.462
 6318WAT     H119196   3.333   5.897   9.403
 6318WAT     H219197   3.192   5.839   9.463
 6319WAT      O19198   4.342   4.677   7.893
 6319WAT     H119199   4.353   4.579   7.909
 6319WAT     H219200   4.345   4.696   7.795
 6320WAT      O19201   7.836   1.216   4.150
 6320WAT     H119202   7.904   1.289   4.145
 6320WAT     H219203   7.795   1.203   4.060
 6321WAT      O19204   2.804   4.780   3.716
 6321WAT     H119205   2.817   4.833   3.632
 6321WAT     H219206   2.764   4.839   3.787
 6322WAT      O19207   5.173   8.199   0.383
 6322WAT     H119208   5.265   8.160   0.382
 6322WAT     H219209   5.178   8.295   0.409
 6323WAT      O19210   9.657   6.572   6.941
 6323WAT     H119211   9.697   6.483   6.963
 6323WAT     H219212   9.652   6.583   6.842
 6324WAT      O19213   5.540   3.446   7.628
 6324WAT     H119214   5.633   3.409   7.616
 6324WAT     H219215   5.522   3.514   7.557
 6325WAT      O19216   1.751   5.671   6.190
 6325WAT     H119217   1.755   5.677   6.090
 6325WAT     H219218   1.845   5.667   6.226
 6326WAT      O19219   5.402   0.939   7.202
 6326WAT     H119220   5.477   0.881   7.170
 6326WAT     H219221   5.440   1.015   7.255
 6327WAT      O19222   1.175   7.267   9.091
 6327WAT     H119223   1.155   7.262   8.993
 6327WAT     H219224   1.220   7.353   9.111
 6328WAT      O19225   5.149   0.537   2.118
 6328WAT     H119226   5.219   0.593   2.073
 6328WAT     H219227   5.102   0.592   2.186
 6329WAT      O19228   4.664   0.010   0.087
 6329WAT     H119229   4.596   0.077   0.054
 6329WAT     H219230   4.745   0.014   0.028
 6330WAT      O19231   6.915   4.830   4.188
 6330WAT     H119232   6.974   4.863   4.114
 6330WAT     H219233   6.883   4.738   4.165
 6331WAT      O19234   1.716   2.988   1.493
 6331WAT     H119235   1.707   2.891   1.518
 6331WAT     H219236   1.766   2.995   1.406
 6332WAT      O19237   2.907   5.730   8.164
 6332WAT     H119238   2.888   5.738   8.262
 6332WAT     H219239   2.901   5.634   8.137
 6333WAT      O19240   1.214   8.996   9.186
 6333WAT     H119241   1.244   8.930   9.255
 6333WAT     H219242   1.124   9.033   9.212
 6334WAT      O19243   2.736   7.523   0.469
 6334WAT     H119244   2.799   7.461   0.516
 6334WAT     H219245   2.723   7.606   0.524
 6335WAT      O19246   3.495   5.056   5.942
 6335WAT     H119247   3.567   5.110   5.986
 6335WAT     H219248   3.420   5.117   5.916
 6336WAT      O19249   7.699   5.995   4.266
 6336WAT     H119250   7.754   6.038   4.194
 6336WAT     H219251   7.755   5.987   4.349
 6337WAT      O19252   1.584   5.792   5.454
 6337WAT     H119253   1.517   5.833   5.516
 6337WAT     H219254   1.560   5.812   5.360
 6338WAT      O19255   3.099   7.982   3.669
 6338WAT     H119256   3.196   7.977   3.647
 6338WAT     H219257   3.064   8.073   3.645
 6339WAT      O19258   2.112   6.179   6.031
 6339WAT     H119259   2.108   6.079   6.038
 6339WAT     H219260   2.163   6.205   5.950
 6340WAT      O19261   5.079   5.584   0.228
 6340WAT     H119262   5.033   5.655   0.282
 6340WAT     H219263   5.124   5.519   0.289
 6341WAT      O19264   6.031   4.796   4.508
 6341WAT     H119265   6.062   4.778   4.414
 6341WAT     H219266   6.012   4.893   4.519
 6342WAT      O19267   2.956   3.104   2.870
 6342WAT     H119268   2.938   3.024   2.813
 6342WAT     H219269   2.945   3.078   2.967
 6343WAT      O19270   3.094   6.121   8.035
 6343WAT     H119271   3.156   6.044   8.028
 6343WAT     H219272   3.004   6.089   8.065
 6344WAT      O19273   7.692   6.885   4.996
 6344WAT     H119274   7.746   6.949   5.051
 6344WAT     H219275   7.620   6.935   4.949
 6345WAT      O19276   3.474   2.765   9.630
 6345WAT     H119277   3.544   2.701   9.597
 6345WAT     H219278   3.513   2.857   9.637
 6346WAT      O19279   2.332   6.154   9.744
 6346WAT     H119280   2.279   6.208   9.808
 6346WAT     H219281   2.277   6.135   9.662
 6347WAT      O19282   4.453   3.328   1.951
 6347WAT     H119283   4.356   3.315   1.931
 6347WAT     H219284   4.467   3.327   2.050
 6348WAT      O19285   4.110   4.585   9.365
 6348WAT     H119286   4.143   4.677   9.384
 6348WAT     H219287   4.061   4.585   9.277
 6349WAT      O19288   5.813   0.979   3.320
 6349WAT     H119289   5.890   0.992   3.258
 6349WAT     H219290   5.796   1.063   3.370
 6350WAT      O19291   4.851   9.841   6.108
 6350WAT     H119292   4.897   9.866   6.023
 6350WAT     H219293   4.912   9.784   6.164
 6351WAT      O19294   1.789   8.117   1.818
 6351WAT     H119295   1.815   8.213   1.821
 6351WAT     H219296   1.714   8.101   1.883
 6352WAT      O19297   0.729   0.906   5.370
 6352WAT     H119298   0.750   0.954   5.455
 6352WAT     H219299   0.810   0.854   5.341
 6353WAT      O19300   2.560   7.252   8.446
 6353WAT     H119301   2.514   7.285   8.529
 6353WAT     H219302   2.522   7.299   8.367
 6354WAT      O19303   8.346   5.616   5.836
 6354WAT     H119304   8.342   5.641   5.740
 6354WAT     H219305   8.408   5.539   5.848
 6355WAT      O19306   8.732   0.816   2.508
 6355WAT     H119307   8.660   0.755   2.541
 6355WAT     H219308   8.811   0.762   2.479
 6356WAT      O19309   9.836   7.508   8.669
 6356WAT     H119310   9.830   7.604   8.641
 6356WAT     H219311   9.917   7.496   8.728
 6357WAT      O19312   3.135   6.098   1.665
 6357WAT     H119313   3.164   6.133   1.576
 6357WAT     H219314   3.037   6.083   1.665
 6358WAT      O19315   9.592   4.501   5.198
 6358WAT     H119316   9.527   4.497   5.122
 6358WAT     H219317   9.668   4.561   5.174
 6359WAT      O19318   9.450   0.169   3.679
 6359WAT     H119319   9.408   0.246   3.630
 6359WAT     H219320   9.397   0.151   3.762
 6360WAT      O19321   2.621   8.151   2.704
 6360WAT     H119322   2.715   8.118   2.711
 6360WAT     H219323   2.620   8.251   2.712
 6361WAT      O19324   4.261   0.850   8.711
 6361WAT     H119325   4.229   0.897   8.628
 6361WAT     H219326   4.334   0.787   8.688
 6362WAT      O19327   5.674   1.503   8.540
 6362WAT     H119328   5.660   1.407   8.565
 6362WAT     H219329   5.696   1.509   8.442
 6363WAT      O19330   4.989   5.512   8.196
 6363WAT     H119331   5.022   5.491   8.105
 6363WAT     H219332   4.889   5.520   8.195
 6364WAT      O19333   8.498   3.459   8.750
 6364WAT     H119334   8.415   3.406   8.769
 6364WAT     H219335   8.571   3.397   8.719
 6365WAT      O19336   7.422   0.744   3.706
 6365WAT     H119337   7.436   0.702   3.796
 6365WAT     H219338   7.468   0.832   3.704
 6366WAT      O19339   8.087   8.037   3.789
 6366WAT     H119340   8.043   7.954   3.824
 6366WAT     H219341   8.030   8.078   3.719
 6367WAT      O19342   6.199   9.343   4.814
 6367WAT     H119343   6.224   9.301   4.726
 6367WAT     H219344   6.233   9.287   4.889
 6368WAT      O19345   6.059   7.520   3.061
 6368WAT     H119346   6.064   7.459   3.140
 6368WAT     H219347   6.071   7.614   3.091
 6369WAT      O19348   4.642   8.324   7.435
 6369WAT     H119349   4.607   8.256   7.370
 6369WAT     H219350   4.663   8.279   7.521
 6370WAT      O19351   0.143   6.189   3.802
 6370WAT     H119352   0.063   6.134   3.826
 6370WAT     H219353   0.122   6.286   3.816
 6371WAT      O19354   0.594   8.864   0.849
 6371WAT     H119355   0.507   8.817   0.839
 6371WAT     H219356   0.634   8.879   0.758
 6372WAT      O19357   5.807   7.452   9.185
 6372WAT     H119358   5.829   7.549   9.180
 6372WAT     H219359   5.867   7.401   9.122
 6373WAT      O19360   3.150   3.117   1.791
 6373WAT     H119361   3.102   3.151   1.872
 6373WAT     H219362   3.084   3.076   1.728
 6374WAT      O19363   7.615   5.282   6.635
 6374WAT     H119364   7.576   5.240   6.553
 6374WAT     H219365   7.639   5.377   6.615
 6375WAT      O19366   4.424   1.631   6.048
 6375WAT     H119367   4.344   1.574   6.068
 6375WAT     H219368   4.492   1.620   6.120
 6376WAT      O19369   1.770   4.844   0.831
 6376WAT     H119370   1.856   4.830   0.781
 6376WAT     H219371   1.784   4.820   0.927
 6377WAT      O19372   4.026   5.413   9.074
 6377WAT     H119373   3.972   5.487   9.033
 6377WAT     H219374   4.123   5.435   9.067
 6378WAT      O19375   4.406   0.956   1.341
 6378WAT     H119376   4.490   0.965   1.286
 6378WAT     H219377   4.430   0.930   1.434
 6379WAT      O19378   7.850   6.819   6.716
 6379WAT     H119379   7.781   6.757   6.753
 6379WAT     H219380   7.828   6.841   6.621
 6380WAT      O19381   5.367   8.637   9.166
 6380WAT     H119382   5.298   8.570   9.141
 6380WAT     H219383   5.436   8.643   9.094
 6381WAT      O19384   9.202   9.093   4.603
 6381WAT     H119385   9.146   9.126   4.679
 6381WAT     H219386   9.144   9.046   4.536
 6382WAT      O19387   0.496   0.029   4.285
 6382WAT     H119388   0.574   0.093   4.291
 6382WAT     H219389   0.530  -0.064   4.276
 6383WAT      O19390   1.257   9.048   7.015
 6383WAT     H119391   1.332   8.992   6.980
 6383WAT     H219392   1.295   9.131   7.057
 6384WAT      O19393   1.107   0.533   1.124
 6384WAT     H119394   1.023   0.554   1.074
 6384WAT     H219395   1.148   0.450   1.086
 6385WAT      O19396   7.333   9.788   1.583
 6385WAT     H119397   7.312   9.841   1.666
 6385WAT     H219398   7.335   9.849   1.504
 6386WAT      O19399   1.458   8.041   2.013
 6386WAT     H119400   1.399   8.071   1.938
 6386WAT     H219401   1.412   7.968   2.064
 6387WAT      O19402   7.847   0.939   2.823
 6387WAT     H119403   7.808   1.027   2.794
 6387WAT     H219404   7.945   0.950   2.840
 6388WAT      O19405   7.263   1.751   2.462
 6388WAT     H119406   7.230   1.658   2.446
 6388WAT     H219407   7.275   1.767   2.560
 6389WAT      O19408   7.229   0.740   1.897
 6389WAT     H119409   7.148   0.799   1.909
 6389WAT     H219410   7.204   0.660   1.844
 6390WAT      O19411   3.569   0.392   7.691
 6390WAT     H119412   3.475   0.360   7.683
 6390WAT     H219413   3.572   0.490   7.672
 6391WAT      O19414   9.610   9.625   3.020
 6391WAT     H119415   9.702   9.601   3.052
 6391WAT     H219416   9.545   9.558   3.054
 6392WAT      O19417   1.908   1.026   0.169
 6392WAT     H119418   1.877   1.116   0.201
 6392WAT     H219419   1.975   1.039   0.096
 6393WAT      O19420   5.782   6.128   0.330
 6393WAT     H119421   5.745   6.190   0.400
 6393WAT     H219422   5.767   6.034   0.359
 6394WAT      O19423   0.948   5.214   2.074
 6394WAT     H119424   0.912   5.136   2.125
 6394WAT     H219425   0.874   5.278   2.055
 6395WAT      O19426   3.139   0.716   5.327
 6395WAT     H119427   3.143   0.677   5.418
 6395WAT     H219428   3.171   0.648   5.260
 6396WAT      O19429   8.133   1.096   8.846
 6396WAT     H119430   8.164   1.005   8.816
 6396WAT     H219431   8.161   1.111   8.941
 6397WAT      O19432   6.680   9.461   8.275
 6397WAT     H119433   6.779   9.455   8.289
 6397WAT     H219434   6.637   9.377   8.306
 6398WAT      O19435   7.224   6.360   2.107
 6398WAT     H119436   7.302   6.363   2.044
 6398WAT     H219437   7.139   6.348   2.055
 6399WAT      O19438   9.540   4.863   6.606
 6399WAT     H119439   9.570   4.778   6.649
 6399WAT     H219440   9.608   4.891   6.538
 6400WAT      O19441   4.285   2.895   5.689
 6400WAT     H119442   4.378   2.856   5.692
 6400WAT     H219443   4.220   2.828   5.726
 6401WAT      O19444   3.639   2.405   0.886
 6401WAT     H119445   3.684   2.328   0.931
 6401WAT     H219446   3.677   2.491   0.920
 6402WAT      O19447   4.683   4.696   4.397
 6402WAT     H119448   4.651   4.790   4.394
 6402WAT     H219449   4.754   4.687   4.467
 6403WAT      O19450   9.313   8.343   9.765
 6403WAT     H119451   9.340   8.432   9.801
 6403WAT     H219452   9.393   8.298   9.725
 6404WAT      O19453   6.484   9.298   8.013
 6404WAT     H119454   6.439   9.306   8.102
 6404WAT     H219455   6.570   9.248   8.023
 6405WAT      O19456   2.427   7.507   5.404
 6405WAT     H119457   2.389   7.475   5.491
 6405WAT     H219458   2.430   7.607   5.404
 6406WAT      O19459   9.252   2.263   0.163
 6406WAT     H119460   9.320   2.292   0.230
 6406WAT     H219461   9.218   2.172   0.187
 6407WAT      O19462   1.407   9.513   6.008
 6407WAT     H119463   1.415   9.469   5.919
 6407WAT     H219464   1.348   9.593   6.001
 6408WAT      O19465   8.681   2.391   8.045
 6408WAT     H119466   8.756   2.407   7.980
 6408WAT     H219467   8.597   2.431   8.009
 6409WAT      O19468   7.412   1.976   3.091
 6409WAT     H119469   7.422   2.060   3.037
 6409WAT     H219470   7.423   1.997   3.188
 6410WAT      O19471   1.716   4.919   7.317
 6410WAT     H119472   1.775   4.991   7.356
 6410WAT     H219473   1.667   4.955   7.238
 6411WAT      O19474   2.418   3.463   0.398
 6411WAT     H119475   2.336   3.439   0.451
 6411WAT     H219476   2.449   3.383   0.347
 6412WAT      O19477   3.291   2.084   8.255
 6412WAT     H119478   3.334   2.026   8.324
 6412WAT     H219479   3.286   2.035   8.168
 6413WAT      O19480   5.105   5.566   2.931
 6413WAT     H119481   5.007   5.549   2.938
 6413WAT     H219482   5.149   5.489   2.884
 6414WAT      O19483   0.764   3.414   3.867
 6414WAT     H119484   0.697   3.358   3.818
 6414WAT     H219485   0.853   3.369   3.867
 6415WAT      O19486   0.788   8.331   7.643
 6415WAT     H119487   0.884   8.311   7.663
 6415WAT     H219488   0.779   8.360   7.547
 6416WAT      O19489   2.639   7.976   4.539
 6416WAT     H119490   2.734   7.988   4.510
 6416WAT     H219491   2.583   7.955   4.460
 6417WAT      O19492   6.848   6.688   7.778
 6417WAT     H119493   6.841   6.678   7.679
 6417WAT     H219494   6.939   6.660   7.808
 6418WAT      O19495   5.841   4.993   8.421
 6418WAT     H119496   5.928   5.040   8.440
 6418WAT     H219497   5.830   4.916   8.483
 6419WAT      O19498   1.243   3.133   8.994
 6419WAT     H119499   1.234   3.109   9.090
 6419WAT     H219500   1.338   3.119   8.965
 6420WAT      O19501   0.745   4.262   5.977
 6420WAT     H119502   0.805   4.342   5.968
 6420WAT     H219503   0.671   4.267   5.910
 6421WAT      O19504   2.808   0.442   2.822
 6421WAT     H119505   2.866   0.504   2.875
 6421WAT     H219506   2.866   0.384   2.765
 6422WAT      O19507   2.573   6.287   6.878
 6422WAT     H119508   2.490   6.236   6.901
 6422WAT     H219509   2.620   6.241   6.803
 6423WAT      O19510   4.433   3.332   6.943
 6423WAT     H119511   4.475   3.335   7.033
 6423WAT     H219512   4.336   3.357   6.950
 6424WAT      O19513   1.786   2.259   2.532
 6424WAT     H119514   1.715   2.297   2.473
 6424WAT     H219515   1.751   2.176   2.576
 6425WAT      O19516   7.475   4.415   9.004
 6425WAT     H119517   7.398   4.353   8.988
 6425WAT     H219518   7.550   4.391   8.942
 6426WAT      O19519   5.256   1.768   5.621
 6426WAT     H119520   5.336   1.802   5.572
 6426WAT     H219521   5.173   1.807   5.580
 6427WAT      O19522   2.470   7.359   8.202
 6427WAT     H119523   2.508   7.447   8.174
 6427WAT     H219524   2.529   7.285   8.170
 6428WAT      O19525   5.662   7.302   5.165
 6428WAT     H119526   5.691   7.236   5.095
 6428WAT     H219527   5.659   7.393   5.124
 6429WAT      O19528   8.427   0.560   7.788
 6429WAT     H119529   8.470   0.625   7.851
 6429WAT     H219530   8.433   0.595   7.695
 6430WAT      O19531   2.904   6.921   9.142
 6430WAT     H119532   2.842   6.886   9.071
 6430WAT     H219533   2.878   6.881   9.230
 6431WAT      O19534   0.150   1.516   4.934
 6431WAT     H119535   0.077   1.583   4.942
 6431WAT     H219536   0.237   1.563   4.917
 6432WAT      O19537   5.141   3.040   3.581
 6432WAT     H119538   5.069   3.010   3.644
 6432WAT     H219539   5.219   2.978   3.587
 6433WAT      O19540   4.959   7.170   3.654
 6433WAT     H119541   4.997   7.133   3.570
 6433WAT     H219542   4.872   7.215   3.634
 6434WAT      O19543   4.243   2.893   0.124
 6434WAT     H119544   4.253   2.812   0.181
 6434WAT     H219545   4.269   2.871   0.030
 6435WAT      O19546   8.738   3.806   3.937
 6435WAT     H119547   8.686   3.832   4.018
 6435WAT     H219548   8.803   3.734   3.962
 6436WAT      O19549   7.202   6.355   2.963
 6436WAT     H119550   7.281   6.378   3.020
 6436WAT     H219551   7.211   6.262   2.930
 6437WAT      O19552   1.649   3.087   5.970
 6437WAT     H119553   1.651   2.987   5.982
 6437WAT     H219554   1.563   3.122   6.005
 6438WAT      O19555   1.167   8.881   8.699
 6438WAT     H119556   1.164   8.861   8.797
 6438WAT     H219557   1.090   8.838   8.653
 6439WAT      O19558   9.759   0.924   7.472
 6439WAT     H119559   9.768   1.002   7.411
 6439WAT     H219560   9.849   0.882   7.487
 6440WAT      O19561   2.464   8.383   7.917
 6440WAT     H119562   2.365   8.380   7.931
 6440WAT     H219563   2.492   8.477   7.896
 6441WAT      O19564   1.649   8.939   1.252
 6441WAT     H119565   1.641   8.895   1.341
 6441WAT     H219566   1.689   8.876   1.186
 6442WAT      O19567   0.806   6.459   7.531
 6442WAT     H119568   0.788   6.443   7.434
 6442WAT     H219569   0.754   6.539   7.561
 6443WAT      O19570   5.497   8.072   4.336
 6443WAT     H119571   5.444   7.990   4.313
 6443WAT     H219572   5.580   8.045   4.384
 6444WAT      O19573   2.730   5.322   5.491
 6444WAT     H119574   2.640   5.338   5.531
 6444WAT     H219575   2.772   5.242   5.533
 6445WAT      O19576   0.232   0.176   2.106
 6445WAT     H119577   0.139   0.141   2.107
 6445WAT     H219578   0.241   0.251   2.171
 6446WAT      O19579   4.465   3.793   6.346
 6446WAT     H119580   4.441   3.886   6.315
 6446WAT     H219581   4.403   3.727   6.303
 6447WAT      O19582   6.241   2.742   0.052
 6447WAT     H119583   6.327   2.695   0.071
 6447WAT     H219584   6.166   2.692   0.095
 6448WAT      O19585   2.299   3.218   2.755
 6448WAT     H119586   2.230   3.224   2.827
 6448WAT     H219587   2.353   3.302   2.753
 6449WAT      O19588   8.442   4.991   5.473
 6449WAT     H119589   8.429   5.070   5.533
 6449WAT     H219590   8.355   4.944   5.459
 6450WAT      O19591   5.342   2.000   4.003
 6450WAT     H119592   5.429   1.981   4.048
 6450WAT     H219593   5.336   1.948   3.918
 6451WAT      O19594   0.565   3.291   9.846
 6451WAT     H119595   0.623   3.294   9.928
 6451WAT     H219596   0.586   3.209   9.793
 6452WAT      O19597   5.032   3.992   2.227
 6452WAT     H119598   5.067   3.965   2.137
 6452WAT     H219599   5.055   3.922   2.294
 6453WAT      O19600   3.719   6.206   9.185
 6453WAT     H119601   3.808   6.162   9.179
 6453WAT     H219602   3.646   6.138   9.176
 6454WAT      O19603   0.614   1.827   8.484
 6454WAT     H119604   0.519   1.848   8.459
 6454WAT     H219605   0.674   1.899   8.450
 6455WAT      O19606   7.825   7.734   8.925
 6455WAT     H119607   7.760   7.725   8.850
 6455WAT     H219608   7.918   7.740   8.887
 6456WAT      O19609   3.823   9.425   8.945
 6456WAT     H119610   3.908   9.460   8.985
 6456WAT     H219611   3.787   9.491   8.880
 6457WAT      O19612   6.414   5.630   3.509
 6457WAT     H119613   6.509   5.599   3.510
 6457WAT     H219614   6.368   5.592   3.429
 6458WAT      O19615   7.868   3.371   5.514
 6458WAT     H119616   7.841   3.464   5.541
 6458WAT     H219617   7.877   3.367   5.414
 6459WAT      O19618   0.898   2.372   1.638
 6459WAT     H119619   0.977   2.368   1.577
 6459WAT     H219620   0.854   2.282   1.641
 6460WAT      O19621   3.177   9.210   8.942
 6460WAT     H119622   3.143   9.297   8.977
 6460WAT     H219623   3.267   9.191   8.980
 6461WAT      O19624   6.910   3.131   2.232
 6461WAT     H119625   6.980   3.181   2.182
 6461WAT     H219626   6.845   3.195   2.272
 6462WAT      O19627   8.735   9.576   0.929
 6462WAT     H119628   8.808   9.510   0.908
 6462WAT     H219629   8.650   9.546   0.887
 6463WAT      O19630   3.391   0.620   3.778
 6463WAT     H119631   3.407   0.676   3.859
 6463WAT     H219632   3.327   0.547   3.799
 6464WAT      O19633   0.947   2.629   2.897
 6464WAT     H119634   0.943   2.726   2.918
 6464WAT     H219635   0.893   2.578   2.965
 6465WAT      O19636   5.677   6.220   2.698
 6465WAT     H119637   5.670   6.158   2.619
 6465WAT     H219638   5.626   6.303   2.679
 6466WAT      O19639   8.474   9.447   5.164
 6466WAT     H119640   8.455   9.426   5.260
 6466WAT     H219641   8.508   9.540   5.156
 6467WAT      O19642   0.025   0.188   7.972
 6467WAT     H119643   0.055   0.122   7.904
 6467WAT     H219644  -0.075   0.190   7.974
 6468WAT      O19645   9.517   6.164   3.136
 6468WAT     H119646   9.565   6.089   3.091
 6468WAT     H219647   9.437   6.190   3.081
 6469WAT      O19648   7.959   8.554   6.963
 6469WAT     H119649   7.973   8.479   7.028
 6469WAT     H219650   7.869   8.594   6.978
 6470WAT      O19651   4.093   0.618   9.014
 6470WAT     H119652   4.096   0.620   9.114
 6470WAT     H219653   4.175   0.570   8.980
 6471WAT      O19654   6.565   1.717   4.540
 6471WAT     H119655   6.467   1.733   4.553
 6471WAT     H219656   6.612   1.805   4.529
 6472WAT      O19657   9.738   4.097   4.208
 6472WAT     H119658   9.647   4.092   4.251
 6472WAT     H219659   9.804   4.133   4.273
 6473WAT      O19660   5.958   4.009   1.025
 6473WAT     H119661   6.039   3.960   0.994
 6473WAT     H219662   5.975   4.046   1.117
 6474WAT      O19663   7.269   3.256   8.128
 6474WAT     H119664   7.242   3.351   8.111
 6474WAT     H219665   7.196   3.209   8.177
 6475WAT      O19666   0.847   7.285   9.063
 6475WAT     H119667   0.878   7.378   9.078
 6475WAT     H219668   0.925   7.226   9.044
 6476WAT      O19669   3.925   0.280   9.778
 6476WAT     H119670   3.959   0.329   9.698
 6476WAT     H219671   3.998   0.273   9.846
 6477WAT      O19672   9.853   9.159   1.744
 6477WAT     H119673   9.781   9.229   1.748
 6477WAT     H219674   9.929   9.188   1.802
 6478WAT      O19675   5.657   0.091   4.354
 6478WAT     H119676   5.736   0.128   4.403
 6478WAT     H219677   5.602   0.167   4.318
 6479WAT      O19678   1.439   8.175   1.527
 6479WAT     H119679   1.352   8.130   1.548
 6479WAT     H219680   1.423   8.273   1.514
 6480WAT      O19681   7.580   2.479   7.589
 6480WAT     H119682   7.644   2.553   7.570
 6480WAT     H219683   7.587   2.410   7.517
 6481WAT      O19684   8.462   1.652   0.631
 6481WAT     H119685   8.417   1.741   0.625
 6481WAT     H219686   8.458   1.606   0.542
 6482WAT      O19687   7.562   2.518   1.260
 6482WAT     H119688   7.659   2.525   1.280
 6482WAT     H219689   7.531   2.603   1.216
 6483WAT      O19690   4.186   9.024   9.260
 6483WAT     H119691   4.099   8.975   9.258
 6483WAT     H219692   4.256   8.965   9.301
 6484WAT      O19693   7.266   7.828   4.502
 6484WAT     H119694   7.309   7.911   4.537
 6484WAT     H219695   7.170   7.824   4.531
 6485WAT      O19696   4.887   3.280   6.042
 6485WAT     H119697   4.817   3.251   6.107
 6485WAT     H219698   4.876   3.230   5.956
 6486WAT      O19699   8.958   5.894   0.873
 6486WAT     H119700   9.037   5.896   0.935
 6486WAT     H219701   8.965   5.814   0.812
 6487WAT      O19702   3.272   5.997   6.234
 6487WAT     H119703   3.197   6.018   6.297
 6487WAT     H219704   3.263   5.902   6.204
 6488WAT      O19705   6.921   8.002   2.932
 6488WAT     H119706   6.854   8.066   2.969
 6488WAT     H219707   6.915   8.003   2.832
 6489WAT      O19708   4.691   5.163   5.565
 6489WAT     H119709   4.738   5.183   5.479
 6489WAT     H219710   4.712   5.233   5.632
 6490WAT      O19711   6.138   4.833   3.608
 6490WAT     H119712   6.050   4.876   3.588
 6490WAT     H219713   6.196   4.898   3.658
 6491WAT      O19714   6.210   2.356   3.807
 6491WAT     H119715   6.257   2.268   3.816
 6491WAT     H219716   6.240   2.402   3.724
 6492WAT      O19717   7.526   1.072   5.543
 6492WAT     H119718   7.460   1.147   5.550
 6492WAT     H219719   7.610   1.098   5.591
 6493WAT      O19720   0.378   6.700   2.943
 6493WAT     H119721   0.359   6.751   3.027
 6493WAT     H219722   0.473   6.714   2.916
 6494WAT      O19723   2.353   4.238   8.511
 6494WAT     H119724   2.420   4.311   8.521
 6494WAT     H219725   2.307   4.247   8.423
 6495WAT      O19726   1.227   7.275   5.438
 6495WAT     H119727   1.185   7.365   5.452
 6495WAT     H219728   1.322   7.287   5.407
 6496WAT      O19729   8.059   2.525   5.301
 6496WAT     H119730   8.077   2.545   5.205
 6496WAT     H219731   8.081   2.606   5.357
 6497WAT      O19732   4.676   4.616   6.613
 6497WAT     H119733   4.696   4.714   6.620
 6497WAT     H219734   4.615   4.600   6.535
 6498WAT      O19735   3.281   3.387   3.195
 6498WAT     H119736   3.284   3.372   3.294
 6498WAT     H219737   3.369   3.422   3.163
 6499WAT      O19738   1.802   0.346   8.776
 6499WAT     H119739   1.817   0.261   8.724
 6499WAT     H219740   1.722   0.336   8.834
 6500WAT      O19741   3.223   2.277   1.405
 6500WAT     H119742   3.151   2.245   1.343
 6500WAT     H219743   3.223   2.376   1.407
 6501WAT      O19744   8.561   4.431   1.520
 6501WAT     H119745   8.463   4.437   1.537
 6501WAT     H219746   8.581   4.342   1.477
 6502WAT      O19747   0.746   1.349   5.949
 6502WAT     H119748   0.768   1.444   5.926
 6502WAT     H219749   0.816   1.289   5.910
 6503WAT      O19750   8.498   8.998   7.449
 6503WAT     H119751   8.504   9.094   7.475
 6503WAT     H219752   8.519   8.940   7.528
 6504WAT      O19753   5.004   5.273   8.315
 6504WAT     H119754   4.914   5.230   8.328
 6504WAT     H219755   4.993   5.356   8.260
 6505WAT      O19756   8.334   0.900   1.448
 6505WAT     H119757   8.238   0.921   1.466
 6505WAT     H219758   8.348   0.801   1.454
 6506WAT      O19759   1.178   9.607   9.380
 6506WAT     H119760   1.124   9.529   9.349
 6506WAT     H219761   1.151   9.689   9.330
 6507WAT      O19762   3.502   0.806   9.363
 6507WAT     H119763   3.487   0.784   9.460
 6507WAT     H219764   3.567   0.741   9.324
 6508WAT      O19765   8.622   4.198   7.502
 6508WAT     H119766   8.545   4.198   7.567
 6508WAT     H219767   8.707   4.218   7.551
 6509WAT      O19768   4.616   2.770   8.835
 6509WAT     H119769   4.571   2.845   8.884
 6509WAT     H219770   4.592   2.683   8.878
 6510WAT      O19771   5.739   8.822   7.898
 6510WAT     H119772   5.707   8.732   7.927
 6510WAT     H219773   5.836   8.832   7.920
 6511WAT      O19774   4.775   2.679   2.508
 6511WAT     H119775   4.841   2.708   2.578
 6511WAT     H219776   4.707   2.751   2.495
 6512WAT      O19777   4.688   2.688   8.601
 6512WAT     H119778   4.661   2.740   8.682
 6512WAT     H219779   4.769   2.731   8.559
 6513WAT      O19780   2.388   8.097   2.844
 6513WAT     H119781   2.457   8.131   2.780
 6513WAT     H219782   2.297   8.124   2.813
 6514WAT      O19783   7.088   7.788   2.258
 6514WAT     H119784   7.062   7.869   2.206
 6514WAT     H219785   7.185   7.769   2.245
 6515WAT      O19786   3.667   0.419   8.873
 6515WAT     H119787   3.583   0.451   8.918
 6515WAT     H219788   3.671   0.455   8.780
 6516WAT      O19789   5.325   4.754   0.339
 6516WAT     H119790   5.345   4.660   0.366
 6516WAT     H219791   5.229   4.774   0.356
 6517WAT      O19792   6.916   0.033   5.671
 6517WAT     H119793   6.829  -0.014   5.651
 6517WAT     H219794   6.983   0.008   5.600
 6518WAT      O19795   8.941   7.482   7.116
 6518WAT     H119796   9.019   7.493   7.054
 6518WAT     H219797   8.860   7.524   7.075
 6519WAT      O19798   6.562   6.504   1.049
 6519WAT     H119799   6.631   6.438   1.078
 6519WAT     H219800   6.501   6.524   1.125
 6520WAT      O19801   4.392   4.937   3.954
 6520WAT     H119802   4.451   5.015   3.972
 6520WAT     H219803   4.379   4.885   4.038
 6521WAT      O19804   0.617   3.304   9.060
 6521WAT     H119805   0.609   3.225   9.120
 6521WAT     H219806   0.633   3.274   8.966
 6522WAT      O19807   3.794   4.204   2.604
 6522WAT     H119808   3.874   4.151   2.632
 6522WAT     H219809   3.778   4.278   2.670
 6523WAT      O19810   2.321   0.491   5.147
 6523WAT     H119811   2.359   0.436   5.073
 6523WAT     H219812   2.275   0.571   5.109
 6524WAT      O19813   0.611   5.560   6.482
 6524WAT     H119814   0.598   5.645   6.430
 6524WAT     H219815   0.706   5.531   6.475
 6525WAT      O19816   5.225   6.056   8.686
 6525WAT     H119817   5.285   6.067   8.764
 6525WAT     H219818   5.143   6.112   8.698
 6526WAT      O19819   2.079   6.043   1.452
 6526WAT     H119820   2.124   6.131   1.464
 6526WAT     H219821   2.021   6.024   1.530
 6527WAT      O19822   5.066   0.159   9.709
 6527WAT     H119823   4.990   0.096   9.724
 6527WAT     H219824   5.030   0.252   9.696
 6528WAT      O19825   1.968   7.981   6.040
 6528WAT     H119826   1.870   7.970   6.025
 6528WAT     H219827   2.018   7.912   5.988
 6529WAT      O19828   9.709   5.657   9.134
 6529WAT     H119829   9.691   5.737   9.077
 6529WAT     H219830   9.623   5.620   9.169
 6530WAT      O19831   2.533   8.696   6.900
 6530WAT     H119832   2.460   8.725   6.962
 6530WAT     H219833   2.523   8.598   6.881
 6531WAT      O19834   7.844   4.800   6.313
 6531WAT     H119835   7.847   4.771   6.218
 6531WAT     H219836   7.810   4.725   6.370
 6532WAT      O19837   2.840   2.475   2.897
 6532WAT     H119838   2.752   2.503   2.935
 6532WAT     H219839   2.828   2.454   2.799
 6533WAT      O19840   2.178   1.625   5.707
 6533WAT     H119841   2.136   1.550   5.758
 6533WAT     H219842   2.115   1.702   5.703
 6534WAT      O19843   8.816   2.505   9.700
 6534WAT     H119844   8.858   2.483   9.788
 6534WAT     H219845   8.754   2.583   9.712
 6535WAT      O19846   1.471   5.258   6.795
 6535WAT     H119847   1.496   5.184   6.857
 6535WAT     H219848   1.550   5.315   6.777
 6536WAT      O19849   9.317   4.791   1.380
 6536WAT     H119850   9.407   4.783   1.423
 6536WAT     H219851   9.278   4.700   1.368
 6537WAT      O19852   7.065   8.432   7.679
 6537WAT     H119853   7.050   8.528   7.702
 6537WAT     H219854   7.124   8.390   7.748
 6538WAT      O19855   9.578   3.717   8.799
 6538WAT     H119856   9.542   3.694   8.708
 6538WAT     H219857   9.604   3.813   8.802
 6539WAT      O19858   6.527   0.279   8.102
 6539WAT     H119859   6.444   0.295   8.155
 6539WAT     H219860   6.570   0.366   8.079
 6540WAT      O19861   4.912   0.139   6.378
 6540WAT     H119862   4.920   0.120   6.280
 6540WAT     H219863   4.878   0.058   6.425
 6541WAT      O19864   5.219   6.125   7.708
 6541WAT     H119865   5.148   6.062   7.741
 6541WAT     H219866   5.221   6.206   7.767
 6542WAT      O19867   0.592   9.793   5.837
 6542WAT     H119868   0.592   9.887   5.870
 6542WAT     H219869   0.562   9.732   5.911
 6543WAT      O19870   1.073   3.667   5.529
 6543WAT     H119871   1.078   3.667   5.429
 6543WAT     H219872   1.164   3.655   5.567
 6544WAT      O19873   0.556   1.600   9.774
 6544WAT     H119874   0.617   1.530   9.736
 6544WAT     H219875   0.536   1.578   9.870
 6545WAT      O19876   8.173   1.093   6.047
 6545WAT     H119877   8.229   1.026   6.095
 6545WAT     H219878   8.130   1.049   5.968
 6546WAT      O19879   2.735   6.463   3.254
 6546WAT     H119880   2.777   6.373   3.241
 6546WAT     H219881   2.724   6.508   3.165
 6547WAT      O19882   2.989   6.500   8.233
 6547WAT     H119883   3.058   6.568   8.259
 6547WAT     H219884   2.930   6.481   8.310
 6548WAT      O19885   3.039   5.098   3.430
 6548WAT     H119886   2.985   5.176   3.401
 6548WAT     H219887   3.090   5.121   3.513
 6549WAT      O19888   1.134   9.193   8.183
 6549WAT     H119889   1.233   9.196   8.196
 6549WAT     H219890   1.097   9.112   8.229
 6550WAT      O19891   8.176   5.877   5.448
 6550WAT     H119892   8.181   5.825   5.363
 6550WAT     H219893   8.267   5.883   5.488
 6551WAT      O19894   6.982   0.990   4.980
 6551WAT     H119895   6.905   0.938   5.017
 6551WAT     H219896   7.059   0.988   5.044
 6552WAT      O19897   6.072   0.334   6.205
 6552WAT     H119898   6.042   0.343   6.110
 6552WAT     H219899   6.166   0.299   6.207
 6553WAT      O19900   4.652   8.583   6.678
 6553WAT     H119901   4.650   8.677   6.711
 6553WAT     H219902   4.564   8.561   6.636
 6554WAT      O19903   3.616   5.892   4.379
 6554WAT     H119904   3.577   5.944   4.302
 6554WAT     H219905   3.547   5.829   4.415
 6555WAT      O19906   0.798   6.115   8.869
 6555WAT     H119907   0.838   6.057   8.799
 6555WAT     H219908   0.833   6.087   8.959
 6556WAT      O19909   5.070   9.114   2.189
 6556WAT     H119910   5.078   9.042   2.120
 6556WAT     H219911   5.065   9.073   2.280
 6557WAT      O19912   2.564   2.494   0.084
 6557WAT     H119913   2.493   2.527   0.146
 6557WAT     H219914   2.643   2.554   0.089
 6558WAT      O19915   5.033   1.885   5.521
 6558WAT     H119916   5.020   1.872   5.423
 6558WAT     H219917   4.949   1.920   5.561
 6559WAT      O19918   1.814   2.656   2.582
 6559WAT     H119919   1.753   2.682   2.508
 6559WAT     H219920   1.846   2.737   2.631
 6560WAT      O19921   4.567   5.085   2.714
 6560WAT     H119922   4.476   5.065   2.679
 6560WAT     H219923   4.573   5.057   2.810
 6561WAT      O19924   4.118   5.933   1.000
 6561WAT     H119925   4.125   5.984   0.914
 6561WAT     H219926   4.158   5.988   1.074
 6562WAT      O19927   7.656   4.904   3.611
 6562WAT     H119928   7.680   4.828   3.672
 6562WAT     H219929   7.722   4.910   3.537
 6563WAT      O19930   0.720   6.224   0.602
 6563WAT     H119931   0.727   6.259   0.509
 6563WAT     H219932   0.696   6.127   0.601
 6564WAT      O19933   5.456   0.819   2.275
 6564WAT     H119934   5.392   0.867   2.215
 6564WAT     H219935   5.539   0.873   2.285
 6565WAT      O19936   1.777   4.805   3.536
 6565WAT     H119937   1.711   4.803   3.611
 6565WAT     H219938   1.733   4.774   3.452
 6566WAT      O19939   0.697   9.411   6.172
 6566WAT     H119940   0.774   9.419   6.236
 6566WAT     H219941   0.626   9.354   6.213
 6567WAT      O19942   4.804   0.705   7.087
 6567WAT     H119943   4.785   0.636   7.017
 6567WAT     H219944   4.862   0.777   7.048
 6568WAT      O19945   6.288   7.345   1.762
 6568WAT     H119946   6.328   7.423   1.809
 6568WAT     H219947   6.312   7.348   1.665
 6569WAT      O19948   8.904   3.070   5.660
 6569WAT     H119949   8.880   3.157   5.704
 6569WAT     H219950   8.933   3.005   5.730
 6570WAT      O19951   3.990   1.143   7.058
 6570WAT     H119952   3.997   1.113   6.963
 6570WAT     H219953   3.901   1.186   7.073
 6571WAT      O19954   6.015   1.393   8.837
 6571WAT     H119955   5.985   1.463   8.901
 6571WAT     H219956   6.048   1.436   8.754
 6572WAT      O19957   9.173   1.172   8.745
 6572WAT     H119958   9.261   1.125   8.749
 6572WAT     H219959   9.187   1.270   8.759
 6573WAT      O19960   3.547   5.699   9.622
 6573WAT     H119961   3.593   5.748   9.695
 6573WAT     H219962   3.513   5.611   9.657
 6574WAT      O19963   5.162   1.572   2.035
 6574WAT     H119964   5.119   1.523   1.959
 6574WAT     H219965   5.261   1.572   2.023
 6575WAT      O19966   9.748   8.908   6.497
 6575WAT     H119967   9.766   8.876   6.590
 6575WAT     H219968   9.763   9.007   6.492
 6576WAT      O19969   5.363   8.927   8.071
 6576WAT     H119970   5.348   8.857   8.001
 6576WAT     H219971   5.441   8.984   8.044
 6577WAT      O19972   3.058   4.759   0.389
 6577WAT     H119973   3.062   4.845   0.439
 6577WAT     H219974   3.056   4.683   0.454
 6578WAT      O19975   9.478   4.102   0.399
 6578WAT     H119976   9.386   4.075   0.426
 6578WAT     H219977   9.477   4.134   0.305
 6579WAT      O19978   4.956   0.683   5.942
 6579WAT     H119979   4.967   0.662   5.845
 6579WAT     H219980   5.046   0.682   5.986
 6580WAT      O19981   1.946   3.247   8.982
 6580WAT     H119982   1.886   3.327   8.977
 6580WAT     H219983   2.040   3.275   8.966
 6581WAT      O19984   4.828   5.845   7.340
 6581WAT     H119985   4.768   5.768   7.320
 6581WAT     H219986   4.815   5.917   7.272
 6582WAT      O19987   6.364   9.768   2.410
 6582WAT     H119988   6.374   9.686   2.353
 6582WAT     H219989   6.274   9.809   2.394
 6583WAT      O19990   0.365   2.987   2.076
 6583WAT     H119991   0.410   2.915   2.130
 6583WAT     H219992   0.385   3.076   2.118
 6584WAT      O19993   8.148   9.082   0.998
 6584WAT     H119994   8.244   9.066   0.974
 6584WAT     H219995   8.119   9.171   0.964
 6585WAT      O19996   4.345   0.418   9.851
 6585WAT     H119997   4.418   0.466   9.900
 6585WAT     H219998   4.275   0.483   9.824
 6586WAT      O19999   8.328   0.372   4.146
 6586WAT     H120000   8.406   0.313   4.166
 6586WAT     H220001   8.252   0.317   4.113
 6587WAT      O20002   9.173   9.246   2.598
 6587WAT     H120003   9.170   9.153   2.563
 6587WAT     H220004   9.142   9.310   2.528
 6588WAT      O20005   5.541   2.020   5.636
 6588WAT     H120006   5.617   2.021   5.570
 6588WAT     H220007   5.454   2.025   5.587
 6589WAT      O20008   6.207   6.527   2.478
 6589WAT     H120009   6.170   6.521   2.570
 6589WAT     H220010   6.246   6.439   2.452
 6590WAT      O20011   3.193   3.209   5.277
 6590WAT     H120012   3.228   3.189   5.368
 6590WAT     H220013   3.110   3.264   5.285
 6591WAT      O20014   0.415   6.205   0.695
 6591WAT     H120015   0.338   6.172   0.639
 6591WAT     H220016   0.496   6.149   0.676
 6592WAT      O20017   0.428   9.540   0.915
 6592WAT     H120018   0.498   9.473   0.941
 6592WAT     H220019   0.338   9.496   0.915
 6593WAT      O20020   7.464   2.740   3.911
 6593WAT     H120021   7.404   2.670   3.949
 6593WAT     H220022   7.416   2.828   3.909
 6594WAT      O20023   5.280   0.628   3.611
 6594WAT     H120024   5.362   0.582   3.577
 6594WAT     H220025   5.262   0.600   3.705
 6595WAT      O20026   5.286   7.658   4.772
 6595WAT     H120027   5.202   7.624   4.815
 6595WAT     H220028   5.359   7.661   4.841
 6596WAT      O20029   0.355   7.728   1.789
 6596WAT     H120030   0.289   7.746   1.716
 6596WAT     H220031   0.415   7.652   1.762
 6597WAT      O20032   8.864   4.717   2.543
 6597WAT     H120033   8.959   4.722   2.574
 6597WAT     H220034   8.829   4.810   2.528
 6598WAT      O20035   6.868   3.035   0.762
 6598WAT     H120036   6.952   3.036   0.708
 6598WAT     H220037   6.869   3.111   0.826
 6599WAT      O20038   6.796   7.413   7.258
 6599WAT     H120039   6.702   7.447   7.264
 6599WAT     H220040   6.836   7.444   7.172
 6600WAT      O20041   1.647   4.178   8.121
 6600WAT     H120042   1.685   4.240   8.053
 6600WAT     H220043   1.570   4.127   8.082
 6601WAT      O20044   0.600   5.054   6.020
 6601WAT     H120045   0.512   5.055   6.067
 6601WAT     H220046   0.585   5.056   5.921
 6602WAT      O20047   0.187   8.163   5.951
 6602WAT     H120048   0.282   8.153   5.922
 6602WAT     H220049   0.132   8.192   5.873
 6603WAT      O20050   4.972   1.721   3.539
 6603WAT     H120051   4.929   1.796   3.488
 6603WAT     H220052   5.009   1.654   3.475
 6604WAT      O20053   1.971   4.669   1.574
 6604WAT     H120054   2.016   4.587   1.537
 6604WAT     H220055   2.032   4.748   1.562
 6605WAT      O20056   6.618   4.815   4.118
 6605WAT     H120057   6.671   4.870   4.053
 6605WAT     H220058   6.587   4.731   4.073
 6606WAT      O20059   4.382   3.659   4.051
 6606WAT     H120060   4.384   3.673   3.952
 6606WAT     H220061   4.437   3.730   4.096
 6607WAT      O20062   5.250   2.217   6.962
 6607WAT     H120063   5.271   2.216   6.864
 6607WAT     H220064   5.319   2.271   7.010
 6608WAT      O20065   3.939   0.320   8.900
 6608WAT     H120066   3.848   0.361   8.903
 6608WAT     H220067   3.992   0.362   8.826
 6609WAT      O20068   7.627  -0.000   1.887
 6609WAT     H120069   7.643   0.091   1.851
 6609WAT     H220070   7.715  -0.043   1.908
 6610WAT      O20071   0.368   2.594   0.287
 6610WAT     H120072   0.391   2.555   0.377
 6610WAT     H220073   0.299   2.665   0.299
 6611WAT      O20074   3.928   5.652   8.060
 6611WAT     H120075   3.855   5.717   8.078
 6611WAT     H220076   3.993   5.652   8.136
 6612WAT      O20077   3.014   6.757   3.482
 6612WAT     H120078   3.023   6.836   3.421
 6612WAT     H220079   3.105   6.728   3.512
 6613WAT      O20080   6.158   7.073   7.525
 6613WAT     H120081   6.131   7.102   7.616
 6613WAT     H220082   6.169   6.973   7.523
 6614WAT      O20083   9.450   3.602   2.438
 6614WAT     H120084   9.469   3.504   2.447
 6614WAT     H220085   9.476   3.649   2.523
 6615WAT      O20086   6.879   7.344   9.097
 6615WAT     H120087   6.886   7.256   9.049
 6615WAT     H220088   6.968   7.390   9.094
 6616WAT      O20089   6.711   1.384   7.424
 6616WAT     H120090   6.762   1.373   7.339
 6616WAT     H220091   6.773   1.374   7.502
 6617WAT      O20092   0.593   6.119   2.812
 6617WAT     H120093   0.611   6.030   2.770
 6617WAT     H220094   0.515   6.112   2.874
 6618WAT      O20095   8.653   8.021   4.165
 6618WAT     H120096   8.614   7.939   4.124
 6618WAT     H220097   8.584   8.066   4.222
 6619WAT      O20098   1.573   7.408   8.176
 6619WAT     H120099   1.574   7.475   8.251
 6619WAT     H220100   1.660   7.412   8.127
 6620WAT      O20101   2.205   9.759   8.800
 6620WAT     H120102   2.265   9.825   8.845
 6620WAT     H220103   2.159   9.704   8.870
 6621WAT      O20104   5.968   3.388   1.957
 6621WAT     H120105   5.999   3.301   1.920
 6621WAT     H220106   5.975   3.459   1.887
 6622WAT      O20107   7.050   3.517   8.817
 6622WAT     H120108   6.981   3.475   8.757
 6622WAT     H220109   7.058   3.614   8.796
 6623WAT      O20110   7.686   1.569   9.534
 6623WAT     H120111   7.606   1.513   9.553
 6623WAT     H220112   7.661   1.641   9.469
 6624WAT      O20113   8.344   9.843   9.188
 6624WAT     H120114   8.263   9.853   9.246
 6624WAT     H220115   8.374   9.748   9.190
 6625WAT      O20116   5.980   4.012   6.591
 6625WAT     H120117   5.953   3.948   6.662
 6625WAT     H220118   6.065   4.057   6.616
 6626WAT      O20119   9.591   1.223   1.603
 6626WAT     H120120   9.546   1.284   1.537
 6626WAT     H220121   9.598   1.268   1.692
 6627WAT      O20122   2.898   2.675   8.236
 6627WAT     H120123   2.931   2.583   8.216
 6627WAT     H220124   2.958   2.743   8.193
 6628WAT      O20125   3.293   6.928   5.682
 6628WAT     H120126   3.386   6.907   5.710
 6628WAT     H220127   3.293   6.962   5.588
 6629WAT      O20128   8.972   7.375   3.105
 6629WAT     H120129   8.934   7.464   3.078
 6629WAT     H220130   8.899   7.308   3.113
 6630WAT      O20131   4.026   0.051   9.355
 6630WAT     H120132   4.046   0.019   9.447
 6630WAT     H220133   3.939   0.102   9.356
 6631WAT      O20134   8.473   7.408   3.123
 6631WAT     H120135   8.515   7.369   3.041
 6631WAT     H220136   8.516   7.370   3.204
 6632WAT      O20137   7.033   9.062   2.378
 6632WAT     H120138   6.934   9.055   2.392
 6632WAT     H220139   7.052   9.073   2.280
 6633WAT      O20140   8.414   8.744   2.208
 6633WAT     H120141   8.454   8.815   2.149
 6633WAT     H220142   8.323   8.773   2.237
 6634WAT      O20143   3.164   2.296   0.886
 6634WAT     H120144   3.087   2.243   0.921
 6634WAT     H220145   3.183   2.372   0.949
 6635WAT      O20146   1.470   1.195   7.492
 6635WAT     H120147   1.570   1.198   7.490
 6635WAT     H220148   1.435   1.185   7.398
 6636WAT      O20149   4.720   7.455   4.452
 6636WAT     H120150   4.776   7.378   4.424
 6636WAT     H220151   4.695   7.510   4.372
 6637WAT      O20152   1.397   6.309   7.256
 6637WAT     H120153   1.470   6.268   7.311
 6637WAT     H220154   1.437   6.377   7.195
 6638WAT      O20155   1.028   8.713   2.247
 6638WAT     H120156   1.091   8.704   2.170
 6638WAT     H220157   0.947   8.763   2.217
 6639WAT      O20158   2.186   5.089   3.270
 6639WAT     H120159   2.109   5.026   3.271
 6639WAT     H220160   2.152   5.183   3.282
 6640WAT      O20161   1.750   0.666   0.385
 6640WAT     H120162   1.836   0.696   0.345
 6640WAT     H220163   1.680   0.657   0.314
 6641WAT      O20164   3.815   1.066   6.768
 6641WAT     H120165   3.758   1.147   6.780
 6641WAT     H220166   3.876   1.080   6.690
 6642WAT      O20167   8.786   9.035   8.342
 6642WAT     H120168   8.759   9.129   8.363
 6642WAT     H220169   8.883   9.023   8.364
 6643WAT      O20170   3.683   2.126   6.505
 6643WAT     H120171   3.674   2.071   6.422
 6643WAT     H220172   3.657   2.070   6.584
 6644WAT      O20173   7.099   4.868   7.492
 6644WAT     H120174   7.109   4.794   7.425
 6644WAT     H220175   7.054   4.946   7.448
 6645WAT      O20176   1.425   7.194   8.558
 6645WAT     H120177   1.351   7.167   8.497
 6645WAT     H220178   1.452   7.115   8.614
 6646WAT      O20179   2.941   0.836   9.697
 6646WAT     H120180   2.931   0.813   9.600
 6646WAT     H220181   2.851   0.838   9.740
 6647WAT      O20182   7.364   7.766   5.094
 6647WAT     H120183   7.455   7.749   5.131
 6647WAT     H220184   7.364   7.850   5.039
 6648WAT      O20185   3.661   3.395   7.515
 6648WAT     H120186   3.675   3.427   7.609
 6648WAT     H220187   3.743   3.346   7.485
 6649WAT      O20188   1.282   3.456   6.718
 6649WAT     H120189   1.374   3.418   6.717
 6649WAT     H220190   1.237   3.437   6.630
 6650WAT      O20191   7.193   6.625   3.569
 6650WAT     H120192   7.116   6.679   3.534
 6650WAT     H220193   7.174   6.599   3.664
 6651WAT      O20194   6.026   3.443   9.212
 6651WAT     H120195   5.950   3.460   9.149
 6651WAT     H220196   6.047   3.528   9.261
 6652WAT      O20197   3.184   6.095   8.582
 6652WAT     H120198   3.281   6.114   8.567
 6652WAT     H220199   3.131   6.178   8.564
 6653WAT      O20200   7.815   0.286   0.017
 6653WAT     H120201   7.722   0.310   0.045
 6653WAT     H220202   7.824   0.187   0.012
 6654WAT      O20203   6.596   1.531   2.825
 6654WAT     H120204   6.543   1.515   2.742
 6654WAT     H220205   6.535   1.555   2.900
 6655WAT      O20206   9.643   7.461   4.508
 6655WAT     H120207   9.632   7.370   4.548
 6655WAT     H220208   9.663   7.451   4.410
 6656WAT      O20209   7.011   7.822   7.117
 6656WAT     H120210   7.072   7.788   7.045
 6656WAT     H220211   6.949   7.890   7.078
 6657WAT      O20212   5.739   2.943   2.969
 6657WAT     H120213   5.785   2.971   2.885
 6657WAT     H220214   5.658   2.999   2.983
 6658WAT      O20215   5.838   9.180   3.854
 6658WAT     H120216   5.765   9.113   3.840
 6658WAT     H220217   5.890   9.191   3.770
 6659WAT      O20218   8.338   2.734   1.028
 6659WAT     H120219   8.310   2.806   1.091
 6659WAT     H220220   8.380   2.659   1.080
 6660WAT      O20221   0.982   9.154   1.543
 6660WAT     H120222   1.005   9.117   1.453
 6660WAT     H220223   0.901   9.107   1.579
 6661WAT      O20224   2.064   9.452   1.473
 6661WAT     H120225   2.063   9.385   1.399
 6661WAT     H220226   1.979   9.446   1.525
 6662WAT      O20227   8.875   8.327   4.544
 6662WAT     H120228   8.950   8.347   4.481
 6662WAT     H220229   8.791   8.312   4.493
 6663WAT      O20230   6.585   1.892   4.889
 6663WAT     H120231   6.536   1.941   4.961
 6663WAT     H220232   6.549   1.799   4.880
 6664WAT      O20233   2.597   2.666   9.523
 6664WAT     H120234   2.506   2.624   9.528
 6664WAT     H220235   2.664   2.606   9.565
 6665WAT      O20236   1.061   3.601   9.524
 6665WAT     H120237   1.055   3.691   9.481
 6665WAT     H220238   0.969   3.568   9.546
 6666WAT      O20239   1.999   5.490   2.894
 6666WAT     H120240   2.072   5.502   2.827
 6666WAT     H220241   2.010   5.402   2.939
 6667WAT      O20242   2.834   3.814   5.963
 6667WAT     H120243   2.852   3.837   6.058
 6667WAT     H220244   2.738   3.787   5.953
 6668WAT      O20245   7.751   3.618   7.090
 6668WAT     H120246   7.845   3.644   7.110
 6668WAT     H220247   7.745   3.519   7.077
 6669WAT      O20248   5.939   8.376   4.134
 6669WAT     H120249   5.932   8.454   4.196
 6669WAT     H220250   5.939   8.408   4.040
 6670WAT      O20251   3.666   1.318   7.517
 6670WAT     H120252   3.653   1.417   7.511
 6670WAT     H220253   3.727   1.298   7.594
 6671WAT      O20254   1.440   5.137   9.732
 6671WAT     H120255   1.414   5.058   9.676
 6671WAT     H220256   1.465   5.214   9.674
 6672WAT      O20257   2.317   8.088   5.290
 6672WAT     H120258   2.267   8.097   5.377
 6672WAT     H220259   2.317   7.993   5.261
 6673WAT      O20260   6.135   1.794   9.032
 6673WAT     H120261   6.231   1.791   9.004
 6673WAT     H220262   6.082   1.730   8.978
 6674WAT      O20263   8.707   4.923   1.502
 6674WAT     H120264   8.711   4.824   1.490
 6674WAT     H220265   8.775   4.967   1.444
 6675WAT      O20266   5.319   9.674   6.759
 6675WAT     H120267   5.225   9.644   6.751
 6675WAT     H220268   5.334   9.715   6.849
 6676WAT      O20269   2.829   6.907   5.629
 6676WAT     H120270   2.764   6.862   5.568
 6676WAT     H220271   2.846   7.000   5.597
 6677WAT      O20272   3.059   8.580   6.642
 6677WAT     H120273   3.048   8.581   6.542
 6677WAT     H220274   3.033   8.490   6.677
 6678WAT      O20275   3.621   8.910   1.990
 6678WAT     H120276   3.544   8.850   2.009
 6678WAT     H220277   3.589   9.005   1.983
 6679WAT      O20278   0.821   8.487   2.299
 6679WAT     H120279   0.747   8.501   2.234
 6679WAT     H220280   0.865   8.574   2.319
 6680WAT      O20281   7.203   4.423   9.161
 6680WAT     H120282   7.199   4.416   9.062
 6680WAT     H220283   7.216   4.333   9.201
 6681WAT      O20284   2.896   8.116   6.081
 6681WAT     H120285   2.968   8.175   6.045
 6681WAT     H220286   2.856   8.062   6.006
 6682WAT      O20287   0.570   3.645   5.703
 6682WAT     H120288   0.655   3.613   5.661
 6682WAT     H220289   0.590   3.715   5.771
 6683WAT      O20290   2.715   7.880   6.227
 6683WAT     H120291   2.766   7.940   6.288
 6683WAT     H220292   2.762   7.792   6.218
 6684WAT      O20293   6.641   0.427   7.880
 6684WAT     H120294   6.704   0.504   7.873
 6684WAT     H220295   6.680   0.348   7.832
 6685WAT      O20296   8.721   1.019   6.780
 6685WAT     H120297   8.812   0.985   6.803
 6685WAT     H220298   8.729   1.097   6.718
 6686WAT      O20299   0.380   0.966   0.277
 6686WAT     H120300   0.312   1.034   0.248
 6686WAT     H220301   0.468   1.012   0.293
 6687WAT      O20302   0.062   2.080   5.062
 6687WAT     H120303   0.116   2.152   5.019
 6687WAT     H220304  -0.034   2.109   5.067
 6688WAT      O20305   3.093   8.279   8.696
 6688WAT     H120306   3.156   8.321   8.761
 6688WAT     H220307   3.113   8.311   8.603
 6689WAT      O20308   3.130   6.497   1.789
 6689WAT     H120309   3.163   6.588   1.812
 6689WAT     H220310   3.201   6.429   1.811
 6690WAT      O20311   3.289   7.456   8.984
 6690WAT     H120312   3.383   7.486   8.968
 6690WAT     H220313   3.284   7.406   9.070
 6691WAT      O20314   7.204   3.008   2.621
 6691WAT     H120315   7.297   2.989   2.651
 6691WAT     H220316   7.205   3.036   2.525
 6692WAT      O20317   9.675   3.614   5.339
 6692WAT     H120318   9.753   3.626   5.277
 6692WAT     H220319   9.609   3.550   5.298
 6693WAT      O20320   7.481   7.556   3.809
 6693WAT     H120321   7.479   7.649   3.774
 6693WAT     H220322   7.562   7.509   3.775
 6694WAT      O20323   5.726   3.466   1.637
 6694WAT     H120324   5.765   3.383   1.677
 6694WAT     H220325   5.725   3.458   1.538
 6695WAT      O20326   8.237   7.573   3.716
 6695WAT     H120327   8.223   7.506   3.643
 6695WAT     H220328   8.239   7.665   3.676
 6696WAT      O20329   5.962   4.560   2.249
 6696WAT     H120330   5.974   4.613   2.334
 6696WAT     H220331   6.051   4.540   2.209
 6697WAT      O20332   8.643   2.679   9.233
 6697WAT     H120333   8.684   2.697   9.323
 6697WAT     H220334   8.614   2.765   9.192
 6698WAT      O20335   6.641   7.247   4.943
 6698WAT     H120336   6.677   7.154   4.952
 6698WAT     H220337   6.635   7.271   4.846
 6699WAT      O20338   5.680   2.838   7.710
 6699WAT     H120339   5.628   2.815   7.628
 6699WAT     H220340   5.672   2.936   7.728
 6700WAT      O20341   7.910   4.616   7.622
 6700WAT     H120342   7.989   4.668   7.653
 6700WAT     H220343   7.906   4.529   7.672
 6701WAT      O20344   5.277   0.945   2.103
 6701WAT     H120345   5.291   0.886   2.024
 6701WAT     H220346   5.179   0.950   2.124
 6702WAT      O20347   5.628   1.916   9.391
 6702WAT     H120348   5.695   1.943   9.460
 6702WAT     H220349   5.565   1.992   9.374
 6703WAT      O20350   0.377   3.155   1.579
 6703WAT     H120351   0.375   3.144   1.678
 6703WAT     H220352   0.374   3.253   1.556
 6704WAT      O20353   8.624   1.830   4.337
 6704WAT     H120354   8.610   1.926   4.364
 6704WAT     H220355   8.708   1.823   4.283
 6705WAT      O20356   6.455   8.903   6.284
 6705WAT     H120357   6.461   8.971   6.356
 6705WAT     H220358   6.363   8.904   6.244
 6706WAT      O20359   4.941   3.693   2.865
 6706WAT     H120360   4.871   3.653   2.924
 6706WAT     H220361   4.931   3.658   2.772
 6707WAT      O20362   9.250   2.217   1.079
 6707WAT     H120363   9.224   2.259   0.992
 6707WAT     H220364   9.279   2.289   1.143
 6708WAT      O20365   3.511   1.096   4.179
 6708WAT     H120366   3.453   1.174   4.156
 6708WAT     H220367   3.454   1.022   4.216
 6709WAT      O20368   9.099   5.895   6.587
 6709WAT     H120369   9.164   5.960   6.627
 6709WAT     H220370   9.026   5.946   6.540
 6710WAT      O20371   7.011   0.082   9.653
 6710WAT     H120372   7.086   0.106   9.714
 6710WAT     H220373   7.018  -0.015   9.629
 6711WAT      O20374   6.238   3.416   4.044
 6711WAT     H120375   6.164   3.481   4.060
 6711WAT     H220376   6.248   3.402   3.945
 6712WAT      O20377   1.959   4.502   5.234
 6712WAT     H120378   1.909   4.446   5.168
 6712WAT     H220379   2.037   4.450   5.269
 6713WAT      O20380   7.526   8.950   2.319
 6713WAT     H120381   7.456   9.021   2.310
 6713WAT     H220382   7.527   8.893   2.237
 6714WAT      O20383   5.702   8.406   8.974
 6714WAT     H120384   5.700   8.343   9.051
 6714WAT     H220385   5.786   8.393   8.922
 6715WAT      O20386   2.076   8.384   3.028
 6715WAT     H120387   2.138   8.445   3.078
 6715WAT     H220388   2.122   8.297   3.011
 6716WAT      O20389   1.286   1.140   4.339
 6716WAT     H120390   1.286   1.061   4.277
 6716WAT     H220391   1.376   1.183   4.336
 6717WAT      O20392   7.129   8.247   8.117
 6717WAT     H120393   7.090   8.174   8.061
 6717WAT     H220394   7.112   8.227   8.213
 6718WAT      O20395   3.280   1.709   1.299
 6718WAT     H120396   3.344   1.687   1.373
 6718WAT     H220397   3.188   1.721   1.337
 6719WAT      O20398   1.916   7.548   1.172
 6719WAT     H120399   1.902   7.471   1.234
 6719WAT     H220400   1.995   7.528   1.113
 6720WAT      O20401   3.411   6.473   2.647
 6720WAT     H120402   3.421   6.569   2.623
 6720WAT     H220403   3.418   6.462   2.746
 6721WAT      O20404   1.569   7.767   0.983
 6721WAT     H120405   1.633   7.742   1.055
 6721WAT     H220406   1.556   7.866   0.981
 6722WAT      O20407   2.138   8.241   0.848
 6722WAT     H120408   2.181   8.325   0.881
 6722WAT     H220409   2.045   8.262   0.816
 6723WAT      O20410   6.341   6.692   2.812
 6723WAT     H120411   6.373   6.667   2.720
 6723WAT     H220412   6.385   6.777   2.840
 6724WAT      O20413   9.467   5.732   1.118
 6724WAT     H120414   9.552   5.701   1.160
 6724WAT     H220415   9.405   5.655   1.106
 6725WAT      O20416   0.801   1.719   0.391
 6725WAT     H120417   0.892   1.735   0.354
 6725WAT     H220418   0.773   1.796   0.448
 6726WAT      O20419   6.893   2.351   6.425
 6726WAT     H120420   6.991   2.359   6.440
 6726WAT     H220421   6.870   2.257   6.399
 6727WAT      O20422   8.134   3.201   4.540
 6727WAT     H120423   8.114   3.147   4.458
 6727WAT     H220424   8.134   3.298   4.518
 6728WAT      O20425   4.545   9.006   6.347
 6728WAT     H120426   4.626   9.063   6.362
 6728WAT     H220427   4.551   8.923   6.402
 6729WAT      O20428   3.130   7.057   5.850
 6729WAT     H120429   3.186   6.986   5.806
 6729WAT     H220430   3.176   7.089   5.933
 6730WAT      O20431   9.103   1.441   6.545
 6730WAT     H120432   9.140   1.526   6.509
 6730WAT     H220433   9.153   1.416   6.628
 6731WAT      O20434   9.789   3.781   0.791
 6731WAT     H120435   9.710   3.786   0.729
 6731WAT     H220436   9.848   3.860   0.775
 6732WAT      O20437   5.108   2.570   0.282
 6732WAT     H120438   5.086   2.633   0.356
 6732WAT     H220439   5.207   2.567   0.269
 6733WAT      O20440   4.132   0.024   9.094
 6733WAT     H120441   4.067   0.040   9.020
 6733WAT     H220442   4.094   0.056   9.180
 6734WAT      O20443   0.137   2.112   0.796
 6734WAT     H120444   0.208   2.105   0.725
 6734WAT     H220445   0.180   2.124   0.885
 6735WAT      O20446   6.910   6.782   2.531
 6735WAT     H120447   6.952   6.728   2.603
 6735WAT     H220448   6.935   6.744   2.442
 6736WAT      O20449   0.063   0.043   5.262
 6736WAT     H120450   0.023   0.024   5.172
 6736WAT     H220451   0.155   0.004   5.266
 6737WAT      O20452   2.969   2.375   0.312
 6737WAT     H120453   2.970   2.468   0.275
 6737WAT     H220454   2.936   2.377   0.406
 6738WAT      O20455   8.419   8.229   7.226
 6738WAT     H120456   8.432   8.238   7.127
 6738WAT     H220457   8.361   8.304   7.259
 6739WAT      O20458   0.987   0.420   0.787
 6739WAT     H120459   0.910   0.433   0.725
 6739WAT     H220460   0.982   0.329   0.829
 6740WAT      O20461   2.070   3.623   9.756
 6740WAT     H120462   1.971   3.611   9.765
 6740WAT     H220463   2.095   3.714   9.787
 6741WAT      O20464   9.718   7.624   0.925
 6741WAT     H120465   9.706   7.723   0.937
 6741WAT     H220466   9.629   7.580   0.916
 6742WAT      O20467   5.945   2.327   7.491
 6742WAT     H120468   6.013   2.353   7.560
 6742WAT     H220469   5.916   2.232   7.507
 6743WAT      O20470   1.192   6.191   7.481
 6743WAT     H120471   1.118   6.137   7.442
 6743WAT     H220472   1.179   6.287   7.457
 6744WAT      O20473   4.619   8.056   8.998
 6744WAT     H120474   4.555   8.067   9.074
 6744WAT     H220475   4.662   7.966   9.003
 6745WAT      O20476   4.902   4.837   4.890
 6745WAT     H120477   4.977   4.803   4.832
 6745WAT     H220478   4.855   4.759   4.932
 6746WAT      O20479   1.450   7.611   0.568
 6746WAT     H120480   1.432   7.516   0.545
 6746WAT     H220481   1.363   7.660   0.577
 6747WAT      O20482   2.348   3.994   4.427
 6747WAT     H120483   2.423   3.939   4.465
 6747WAT     H220484   2.306   4.048   4.500
 6748WAT      O20485   9.015   8.925   9.778
 6748WAT     H120486   8.923   8.895   9.752
 6748WAT     H220487   9.042   9.002   9.721
 6749WAT      O20488   1.392   2.270   6.937
 6749WAT     H120489   1.424   2.212   6.863
 6749WAT     H220490   1.463   2.337   6.960
 6750WAT      O20491   0.946   7.300   6.914
 6750WAT     H120492   1.044   7.314   6.924
 6750WAT     H220493   0.901   7.310   7.004
 6751WAT      O20494   2.947   7.427   0.616
 6751WAT     H120495   2.980   7.367   0.543
 6751WAT     H220496   2.922   7.372   0.696
 6752WAT      O20497   3.210   2.345   9.563
 6752WAT     H120498   3.309   2.353   9.547
 6752WAT     H220499   3.160   2.383   9.486
 6753WAT      O20500   0.210   9.049   0.463
 6753WAT     H120501   0.183   9.034   0.368
 6753WAT     H220502   0.209   8.961   0.512
 6754WAT      O20503   6.768   5.479   2.811
 6754WAT     H120504   6.718   5.393   2.800
 6754WAT     H220505   6.727   5.532   2.885
 6755WAT      O20506   3.818   3.021   1.186
 6755WAT     H120507   3.786   3.113   1.206
 6755WAT     H220508   3.912   3.009   1.218
 6756WAT      O20509   9.054   3.082   0.800
 6756WAT     H120510   8.983   3.151   0.785
 6756WAT     H220511   9.035   3.032   0.884
 6757WAT      O20512   3.916   1.792   0.189
 6757WAT     H120513   3.871   1.792   0.278
 6757WAT     H220514   3.958   1.881   0.172
 6758WAT      O20515   8.851   7.562   4.636
 6758WAT     H120516   8.904   7.490   4.592
 6758WAT     H220517   8.805   7.617   4.566
 6759WAT      O20518   8.980   5.728   2.290
 6759WAT     H120519   8.975   5.687   2.381
 6759WAT     H220520   8.894   5.775   2.269
 6760WAT      O20521   6.394   1.551   5.218
 6760WAT     H120522   6.482   1.598   5.218
 6760WAT     H220523   6.403   1.465   5.167
 6761WAT      O20524   7.245   4.959   5.817
 6761WAT     H120525   7.159   4.914   5.843
 6761WAT     H220526   7.226   5.053   5.791
 6762WAT      O20527   7.061   1.210   0.517
 6762WAT     H120528   7.088   1.297   0.475
 6762WAT     H220529   7.126   1.188   0.591
 6763WAT      O20530   0.300   8.685   3.398
 6763WAT     H120531   0.395   8.655   3.404
 6763WAT     H220532   0.252   8.663   3.483
 6764WAT      O20533   1.622   4.934   4.204
 6764WAT     H120534   1.716   4.926   4.235
 6764WAT     H220535   1.559   4.914   4.279
 6765WAT      O20536   7.604   0.581   1.435
 6765WAT     H120537   7.542   0.627   1.499
 6765WAT     H220538   7.692   0.628   1.434
 6766WAT      O20539   7.280   0.120   0.985
 6766WAT     H120540   7.195   0.157   0.947
 6766WAT     H220541   7.341   0.195   1.009
 6767WAT      O20542   2.568   0.445   4.571
 6767WAT     H120543   2.593   0.536   4.603
 6767WAT     H220544   2.646   0.383   4.582
 6768WAT      O20545   4.540   9.727   5.090
 6768WAT     H120546   4.477   9.704   5.016
 6768WAT     H220547   4.498   9.707   5.178
 6769WAT      O20548   0.153   3.573   7.742
 6769WAT     H120549   0.150   3.473   7.755
 6769WAT     H220550   0.102   3.618   7.815
 6770WAT      O20551   4.657   0.675   3.670
 6770WAT     H120552   4.753   0.700   3.657
 6770WAT     H220553   4.651   0.582   3.705
 6771WAT      O20554   0.423   5.598   9.060
 6771WAT     H120555   0.385   5.508   9.078
 6771WAT     H220556   0.487   5.622   9.133
 6772WAT      O20557   9.793   9.680   0.063
 6772WAT     H120558   9.754   9.651   0.150
 6772WAT     H220559   9.812   9.601   0.005
 6773WAT      O20560   5.136   4.325   6.903
 6773WAT     H120561   5.086   4.406   6.934
 6773WAT     H220562   5.114   4.248   6.963
 6774WAT      O20563   8.956   9.675   4.909
 6774WAT     H120564   8.959   9.755   4.970
 6774WAT     H220565   8.934   9.706   4.816
 6775WAT      O20566   6.631   0.208   6.077
 6775WAT     H120567   6.628   0.307   6.086
 6775WAT     H220568   6.588   0.181   5.991
 6776WAT      O20569   3.457   8.245   6.768
 6776WAT     H120570   3.425   8.330   6.811
 6776WAT     H220571   3.552   8.229   6.792
 6777WAT      O20572   1.494   7.179   1.797
 6777WAT     H120573   1.560   7.247   1.766
 6777WAT     H220574   1.405   7.221   1.809
 6778WAT      O20575   8.306   8.153   6.543
 6778WAT     H120576   8.291   8.061   6.578
 6778WAT     H220577   8.352   8.149   6.454
 6779WAT      O20578   3.659   6.514   5.390
 6779WAT     H120579   3.578   6.465   5.358
 6779WAT     H220580   3.692   6.471   5.474
 6780WAT      O20581   8.999   4.350   4.621
 6780WAT     H120582   8.928   4.381   4.684
 6780WAT     H220583   8.992   4.400   4.535
 6781WAT      O20584   8.632   8.090   8.691
 6781WAT     H120585   8.573   8.148   8.634
 6781WAT     H220586   8.727   8.105   8.665
 6782WAT      O20587   0.295   4.177   0.447
 6782WAT     H120588   0.365   4.162   0.517
 6782WAT     H220589   0.218   4.115   0.463
 6783WAT      O20590   8.898   1.151   3.747
 6783WAT     H120591   8.966   1.139   3.675
 6783WAT     H220592   8.828   1.215   3.716
 6784WAT      O20593   7.744   6.184   3.507
 6784WAT     H120594   7.730   6.181   3.606
 6784WAT     H220595   7.737   6.092   3.469
 6785WAT      O20596   4.965   9.043   1.448
 6785WAT     H120597   4.948   8.987   1.367
 6785WAT     H220598   4.880   9.056   1.498
 6786WAT      O20599   1.717   4.711   2.995
 6786WAT     H120600   1.791   4.747   2.938
 6786WAT     H220601   1.635   4.697   2.939
 6787WAT      O20602   1.809   6.956   0.581
 6787WAT     H120603   1.855   7.010   0.652
 6787WAT     H220604   1.822   7.000   0.492
 6788WAT      O20605   8.603   2.206   0.133
 6788WAT     H120606   8.649   2.250   0.211
 6788WAT     H220607   8.651   2.228   0.049
 6789WAT      O20608   9.562   9.818   0.091
 6789WAT     H120609   9.643   9.762   0.071
 6789WAT     H220610   9.534   9.868   0.009
 6790WAT      O20611   7.898   3.254   3.320
 6790WAT     H120612   7.846   3.311   3.257
 6790WAT     H220613   7.847   3.245   3.406
 6791WAT      O20614   3.306   7.426   2.189
 6791WAT     H120615   3.394   7.454   2.151
 6791WAT     H220616   3.288   7.478   2.272
 6792WAT      O20617   9.825   9.487   9.785
 6792WAT     H120618   9.827   9.519   9.690
 6792WAT     H220619   9.770   9.404   9.791
 6793WAT      O20620   6.561   6.573   7.069
 6793WAT     H120621   6.552   6.648   7.134
 6793WAT     H220622   6.578   6.609   6.978
 6794WAT      O20623   7.114   2.720   6.876
 6794WAT     H120624   7.165   2.796   6.836
 6794WAT     H220625   7.134   2.714   6.974
 6795WAT      O20626   3.887   7.284   3.627
 6795WAT     H120627   3.906   7.203   3.682
 6795WAT     H220628   3.923   7.271   3.534
 6796WAT      O20629   1.037   0.679   9.182
 6796WAT     H120630   0.951   0.628   9.180
 6796WAT     H220631   1.091   0.656   9.101
 6797WAT      O20632   8.555   8.372   9.344
 6797WAT     H120633   8.561   8.457   9.395
 6797WAT     H220634   8.626   8.370   9.273
 6798WAT      O20635   3.861   2.161   8.995
 6798WAT     H120636   3.784   2.164   9.058
 6798WAT     H220637   3.851   2.083   8.933
 6799WAT      O20638   7.217   3.842   5.603
 6799WAT     H120639   7.239   3.771   5.669
 6799WAT     H220640   7.286   3.915   5.609
 6800WAT      O20641   5.445   8.001   5.074
 6800WAT     H120642   5.423   7.920   5.129
 6800WAT     H220643   5.507   8.060   5.125
 6801WAT      O20644   8.979   8.824   6.385
 6801WAT     H120645   8.899   8.795   6.332
 6801WAT     H220646   9.061   8.780   6.347
 6802WAT      O20647   8.091   1.652   7.848
 6802WAT     H120648   8.098   1.566   7.900
 6802WAT     H220649   8.118   1.636   7.754
 6803WAT      O20650   3.867   1.749   2.817
 6803WAT     H120651   3.796   1.709   2.874
 6803WAT     H220652   3.896   1.836   2.856
 6804WAT      O20653   8.792   8.198   2.142
 6804WAT     H120654   8.744   8.282   2.166
 6804WAT     H220655   8.800   8.192   2.042
 6805WAT      O20656   3.643   0.722   6.221
 6805WAT     H120657   3.693   0.671   6.152
 6805WAT     H220658   3.708   0.773   6.278
 6806WAT      O20659   3.181   9.128   7.787
 6806WAT     H120660   3.231   9.214   7.773
 6806WAT     H220661   3.194   9.097   7.881
 6807WAT      O20662   0.236   3.932   8.365
 6807WAT     H120663   0.260   4.026   8.388
 6807WAT     H220664   0.214   3.882   8.448
 6808WAT      O20665   4.175   5.264   4.433
 6808WAT     H120666   4.151   5.350   4.478
 6808WAT     H220667   4.273   5.261   4.417
 6809WAT      O20668   7.356   0.310   9.632
 6809WAT     H120669   7.307   0.251   9.697
 6809WAT     H220670   7.326   0.290   9.539
 6810WAT      O20671   8.826   4.631   5.631
 6810WAT     H120672   8.757   4.702   5.613
 6810WAT     H220673   8.816   4.599   5.725
 6811WAT      O20674   5.101   2.058   9.637
 6811WAT     H120675   5.044   1.984   9.673
 6811WAT     H220676   5.118   2.125   9.709
 6812WAT      O20677   9.392   3.689   1.744
 6812WAT     H120678   9.299   3.677   1.777
 6812WAT     H220679   9.393   3.754   1.669
 6813WAT      O20680   4.317   3.962   4.280
 6813WAT     H120681   4.329   3.891   4.350
 6813WAT     H220682   4.387   3.953   4.210
 6814WAT      O20683   3.562   5.759   5.114
 6814WAT     H120684   3.578   5.850   5.151
 6814WAT     H220685   3.527   5.766   5.020
 6815WAT      O20686   9.119   9.282   6.456
 6815WAT     H120687   9.154   9.194   6.424
 6815WAT     H220688   9.020   9.276   6.469
 6816WAT      O20689   1.865   3.122   8.148
 6816WAT     H120690   1.833   3.033   8.180
 6816WAT     H220691   1.943   3.152   8.203
 6817WAT      O20692   8.873   4.331   2.138
 6817WAT     H120693   8.888   4.377   2.051
 6817WAT     H220694   8.781   4.291   2.139
 6818WAT      O20695   5.964   9.106   7.831
 6818WAT     H120696   6.055   9.143   7.811
 6818WAT     H220697   5.897   9.145   7.767
 6819WAT      O20698   4.407   9.344   3.776
 6819WAT     H120699   4.401   9.396   3.691
 6819WAT     H220700   4.399   9.246   3.756
 6820WAT      O20701   2.346   5.131   1.182
 6820WAT     H120702   2.393   5.097   1.264
 6820WAT     H220703   2.401   5.203   1.140
 6821WAT      O20704   1.684   0.627   3.169
 6821WAT     H120705   1.762   0.675   3.128
 6821WAT     H220706   1.716   0.571   3.246
 6822WAT      O20707   0.263   7.640   4.694
 6822WAT     H120708   0.326   7.620   4.769
 6822WAT     H220709   0.169   7.642   4.729
 6823WAT      O20710   0.218   3.925   5.767
 6823WAT     H120711   0.184   3.852   5.708
 6823WAT     H220712   0.296   3.970   5.724
 6824WAT      O20713   0.969   9.203   8.909
 6824WAT     H120714   0.956   9.138   8.834
 6824WAT     H220715   0.941   9.294   8.879
 6825WAT      O20716   5.473   4.197   1.247
 6825WAT     H120717   5.509   4.231   1.334
 6825WAT     H220718   5.504   4.255   1.172
 6826WAT      O20719   3.782   8.532   1.020
 6826WAT     H120720   3.861   8.552   1.079
 6826WAT     H220721   3.744   8.618   0.985
 6827WAT      O20722   6.112   8.206   1.663
 6827WAT     H120723   6.167   8.223   1.581
 6827WAT     H220724   6.153   8.252   1.741
 6828WAT      O20725   2.005   7.696   1.511
 6828WAT     H120726   1.964   7.770   1.564
 6828WAT     H220727   2.031   7.730   1.421
 6829WAT      O20728   4.593   3.251   2.777
 6829WAT     H120729   4.535   3.216   2.704
 6829WAT     H220730   4.647   3.328   2.743
 6830WAT      O20731   5.180   9.239   1.469
 6830WAT     H120732   5.228   9.241   1.381
 6830WAT     H220733   5.120   9.158   1.471
 6831WAT      O20734   1.850   9.098   5.749
 6831WAT     H120735   1.831   9.001   5.765
 6831WAT     H220736   1.904   9.108   5.665
 6832WAT      O20737   2.189   0.466   4.415
 6832WAT     H120738   2.281   0.437   4.391
 6832WAT     H220739   2.193   0.546   4.475
 6833WAT      O20740   4.119   6.047   0.748
 6833WAT     H120741   4.047   6.109   0.715
 6833WAT     H220742   4.181   6.025   0.673
 6834WAT      O20743   5.608   8.771   9.595
 6834WAT     H120744   5.528   8.742   9.646
 6834WAT     H220745   5.605   8.870   9.582
 6835WAT      O20746   7.635   8.111   1.531
 6835WAT     H120747   7.726   8.074   1.549
 6835WAT     H220748   7.642   8.192   1.474
 6836WAT      O20749   4.570   0.010   8.460
 6836WAT     H120750   4.657  -0.004   8.411
 6836WAT     H220751   4.503  -0.056   8.428
 6837WAT      O20752   1.397   5.848   2.518
 6837WAT     H120753   1.351   5.935   2.503
 6837WAT     H220754   1.334   5.785   2.564
 6838WAT      O20755   2.352   7.132   5.605
 6838WAT     H120756   2.327   7.154   5.510
 6838WAT     H220757   2.450   7.111   5.610
 6839WAT      O20758   8.272   4.970   2.865
 6839WAT     H120759   8.242   5.065   2.865
 6839WAT     H220760   8.264   4.932   2.773
 6840WAT      O20761   6.184   6.136   7.059
 6840WAT     H120762   6.260   6.071   7.061
 6840WAT     H220763   6.156   6.151   6.964
 6841WAT      O20764   5.086   4.005   8.169
 6841WAT     H120765   5.040   4.017   8.081
 6841WAT     H220766   5.095   3.908   8.190
 6842WAT      O20767   4.341   6.097   1.400
 6842WAT     H120768   4.327   6.194   1.417
 6842WAT     H220769   4.378   6.084   1.308
 6843WAT      O20770   3.376   1.337   3.165
 6843WAT     H120771   3.382   1.270   3.238
 6843WAT     H220772   3.283   1.372   3.159
 6844WAT      O20773   0.501   3.803   0.657
 6844WAT     H120774   0.434   3.815   0.584
 6844WAT     H220775   0.512   3.705   0.677
 6845WAT      O20776   4.429   5.298   5.201
 6845WAT     H120777   4.419   5.202   5.230
 6845WAT     H220778   4.465   5.352   5.277
 6846WAT      O20779   9.364   9.170   9.331
 6846WAT     H120780   9.376   9.178   9.232
 6846WAT     H220781   9.283   9.221   9.359
 6847WAT      O20782   3.613   2.454   8.121
 6847WAT     H120783   3.532   2.508   8.147
 6847WAT     H220784   3.682   2.515   8.081
 6848WAT      O20785   1.433   1.515   6.075
 6848WAT     H120786   1.427   1.491   5.978
 6848WAT     H220787   1.510   1.577   6.090
 6849WAT      O20788   0.613   2.963   3.755
 6849WAT     H120789   0.567   2.880   3.787
 6849WAT     H220790   0.701   2.939   3.714
 6850WAT      O20791   3.647   1.674   4.446
 6850WAT     H120792   3.737   1.692   4.405
 6850WAT     H220793   3.590   1.755   4.437
 6851WAT      O20794   7.221   9.703   6.580
 6851WAT     H120795   7.188   9.666   6.666
 6851WAT     H220796   7.231   9.629   6.513
 6852WAT      O20797   4.851   2.116   7.282
 6852WAT     H120798   4.764   2.116   7.233
 6852WAT     H220799   4.881   2.210   7.297
 6853WAT      O20800   5.869   7.936   7.592
 6853WAT     H120801   5.897   8.002   7.522
 6853WAT     H220802   5.942   7.869   7.605
 6854WAT      O20803   3.314   7.056   0.310
 6854WAT     H120804   3.377   7.089   0.239
 6854WAT     H220805   3.231   7.021   0.267
 6855WAT      O20806   0.789   3.531   9.569
 6855WAT     H120807   0.693   3.558   9.563
 6855WAT     H220808   0.796   3.440   9.610
 6856WAT      O20809   0.187   4.387   1.164
 6856WAT     H120810   0.095   4.377   1.125
 6856WAT     H220811   0.194   4.333   1.247
 6857WAT      O20812   6.195   6.808   0.929
 6857WAT     H120813   6.290   6.784   0.907
 6857WAT     H220814   6.135   6.732   0.902
 6858WAT      O20815   5.213   3.223   8.397
 6858WAT     H120816   5.284   3.159   8.368
 6858WAT     H220817   5.130   3.173   8.419
 6859WAT      O20818   7.300   4.406   7.046
 6859WAT     H120819   7.231   4.374   6.980
 6859WAT     H220820   7.377   4.447   6.997
 6860WAT      O20821   4.661   5.804   9.208
 6860WAT     H120822   4.728   5.742   9.169
 6860WAT     H220823   4.628   5.767   9.295
 6861WAT      O20824   2.642   8.956   3.498
 6861WAT     H120825   2.642   9.004   3.410
 6861WAT     H220826   2.583   9.006   3.562
 6862WAT      O20827   3.089   5.744   8.567
 6862WAT     H120828   3.161   5.777   8.506
 6862WAT     H220829   3.020   5.695   8.514
 6863WAT      O20830   0.436   5.501   2.447
 6863WAT     H120831   0.374   5.570   2.482
 6863WAT     H220832   0.468   5.528   2.356
 6864WAT      O20833   4.144   1.729   8.876
 6864WAT     H120834   4.072   1.705   8.941
 6864WAT     H220835   4.122   1.816   8.832
 6865WAT      O20836   7.981   7.098   1.625
 6865WAT     H120837   7.969   7.055   1.535
 6865WAT     H220838   7.920   7.054   1.691
 6866WAT      O20839   9.806   3.705   0.307
 6866WAT     H120840   9.723   3.745   0.268
 6866WAT     H220841   9.850   3.647   0.239
 6867WAT      O20842   3.884   0.958   4.382
 6867WAT     H120843   3.885   1.035   4.318
 6867WAT     H220844   3.798   0.909   4.374
 6868WAT      O20845   2.310   3.717   5.749
 6868WAT     H120846   2.240   3.712   5.821
 6868WAT     H220847   2.265   3.713   5.659
 6869WAT      O20848   2.937   4.521   8.601
 6869WAT     H120849   2.859   4.465   8.574
 6869WAT     H220850   2.983   4.557   8.520
 6870WAT      O20851   5.271   0.344   5.017
 6870WAT     H120852   5.358   0.304   5.045
 6870WAT     H220853   5.197   0.300   5.067
 6871WAT      O20854   2.354   8.828   7.910
 6871WAT     H120855   2.293   8.754   7.936
 6871WAT     H220856   2.307   8.916   7.921
 6872WAT      O20857   2.582   8.828   1.355
 6872WAT     H120858   2.678   8.802   1.342
 6872WAT     H220859   2.525   8.746   1.347
 6873WAT      O20860   4.543   1.238   1.923
 6873WAT     H120861   4.450   1.202   1.928
 6873WAT     H220862   4.547   1.325   1.973
 6874WAT      O20863   0.836   3.691   3.704
 6874WAT     H120864   0.828   3.782   3.664
 6874WAT     H220865   0.763   3.633   3.669
 6875WAT      O20866   8.357   5.721   4.927
 6875WAT     H120867   8.392   5.685   5.014
 6875WAT     H220868   8.364   5.820   4.927
 6876WAT      O20869   0.394   4.809   8.187
 6876WAT     H120870   0.443   4.726   8.211
 6876WAT     H220871   0.429   4.844   8.100
 6877WAT      O20872   3.849   0.917   0.371
 6877WAT     H120873   3.855   0.889   0.467
 6877WAT     H220874   3.892   0.849   0.313
 6878WAT      O20875   3.975   8.111   3.427
 6878WAT     H120876   3.995   8.070   3.515
 6878WAT     H220877   3.979   8.042   3.355
 6879WAT      O20878   2.217   1.418   7.289
 6879WAT     H120879   2.216   1.412   7.189
 6879WAT     H220880   2.279   1.350   7.326
 6880WAT      O20881   8.576   7.255   9.477
 6880WAT     H120882   8.642   7.189   9.442
 6880WAT     H220883   8.621   7.313   9.546
 6881WAT      O20884   9.592   6.587   5.725
 6881WAT     H120885   9.563   6.640   5.646
 6881WAT     H220886   9.603   6.491   5.698
 6882WAT      O20887   4.529   4.846   0.321
 6882WAT     H120888   4.548   4.860   0.418
 6882WAT     H220889   4.606   4.801   0.277
 6883WAT      O20890   0.306   5.709   2.591
 6883WAT     H120891   0.324   5.750   2.681
 6883WAT     H220892   0.310   5.781   2.521
 6884WAT      O20893   8.245   0.839   3.456
 6884WAT     H120894   8.332   0.885   3.438
 6884WAT     H220895   8.262   0.745   3.487
 6885WAT      O20896   2.080   5.940   8.277
 6885WAT     H120897   2.090   5.853   8.229
 6885WAT     H220898   2.163   5.994   8.264
 6886WAT      O20899   4.663   8.801   6.088
 6886WAT     H120900   4.601   8.749   6.030
 6886WAT     H220901   4.639   8.786   6.184
 6887WAT      O20902   3.988   0.222   3.502
 6887WAT     H120903   3.936   0.270   3.431
 6887WAT     H220904   4.007   0.129   3.471
 6888WAT      O20905   2.450   6.868   6.865
 6888WAT     H120906   2.380   6.832   6.926
 6888WAT     H220907   2.471   6.963   6.891
 6889WAT      O20908   9.117   5.391   7.367
 6889WAT     H120909   9.110   5.354   7.275
 6889WAT     H220910   9.025   5.415   7.400
 6890WAT      O20911   8.861   0.129   3.859
 6890WAT     H120912   8.799   0.206   3.839
 6890WAT     H220913   8.818   0.068   3.924
 6891WAT      O20914   6.310   8.778   0.753
 6891WAT     H120915   6.343   8.709   0.690
 6891WAT     H220916   6.387   8.831   0.788
 6892WAT      O20917   7.784   5.822   1.266
 6892WAT     H120918   7.699   5.866   1.298
 6892WAT     H220919   7.767   5.777   1.179
 6893WAT      O20920   5.616   2.586   2.705
 6893WAT     H120921   5.640   2.512   2.642
 6893WAT     H220922   5.594   2.548   2.795
 6894WAT      O20923   0.514   6.819   8.095
 6894WAT     H120924   0.479   6.906   8.059
 6894WAT     H220925   0.613   6.814   8.080
 6895WAT      O20926   6.960   8.099   4.684
 6895WAT     H120927   6.983   8.027   4.749
 6895WAT     H220928   6.964   8.188   4.729
 6896WAT      O20929   5.001   2.318   5.835
 6896WAT     H120930   4.966   2.224   5.836
 6896WAT     H220931   5.014   2.350   5.929
 6897WAT      O20932   9.305   0.598   9.199
 6897WAT     H120933   9.305   0.680   9.257
 6897WAT     H220934   9.211   0.580   9.167
 6898WAT      O20935   2.085   6.853   7.109
 6898WAT     H120936   2.010   6.853   7.043
 6898WAT     H220937   2.074   6.929   7.172
 6899WAT      O20938   3.851   5.813   6.844
 6899WAT     H120939   3.762   5.774   6.866
 6899WAT     H220940   3.867   5.894   6.899
 6900WAT      O20941   3.182   4.270   8.597
 6900WAT     H120942   3.201   4.365   8.570
 6900WAT     H220943   3.253   4.239   8.661
 6901WAT      O20944   4.727   2.036   5.345
 6901WAT     H120945   4.758   2.039   5.440
 6901WAT     H220946   4.672   2.117   5.326
 6902WAT      O20947   8.549   1.239   0.694
 6902WAT     H120948   8.596   1.203   0.774
 6902WAT     H220949   8.452   1.251   0.715
 6903WAT      O20950   8.116   9.471   5.407
 6903WAT     H120951   8.116   9.518   5.496
 6903WAT     H220952   8.022   9.467   5.372
 6904WAT      O20953   4.202   6.617   8.758
 6904WAT     H120954   4.115   6.666   8.756
 6904WAT     H220955   4.210   6.568   8.845
 6905WAT      O20956   3.950   6.461   9.289
 6905WAT     H120957   3.904   6.478   9.202
 6905WAT     H220958   3.900   6.391   9.340
 6906WAT      O20959   9.410   0.299   4.414
 6906WAT     H120960   9.375   0.362   4.482
 6906WAT     H220961   9.510   0.298   4.417
 6907WAT      O20962   5.790   6.483   1.737
 6907WAT     H120963   5.818   6.510   1.829
 6907WAT     H220964   5.691   6.471   1.733
 6908WAT      O20965   4.054   4.774   1.380
 6908WAT     H120966   4.069   4.834   1.301
 6908WAT     H220967   4.061   4.828   1.464
 6909WAT      O20968   0.741   0.598   7.268
 6909WAT     H120969   0.686   0.538   7.325
 6909WAT     H220970   0.683   0.637   7.196
 6910WAT      O20971   5.259   3.513   8.948
 6910WAT     H120972   5.309   3.455   8.883
 6910WAT     H220973   5.238   3.461   9.030
 6911WAT      O20974   5.066   8.618   8.458
 6911WAT     H120975   5.012   8.698   8.432
 6911WAT     H220976   5.161   8.646   8.473
 6912WAT      O20977   6.742   0.613   9.722
 6912WAT     H120978   6.825   0.558   9.724
 6912WAT     H220979   6.743   0.679   9.798
 6913WAT      O20980   6.888   9.839   3.964
 6913WAT     H120981   6.927   9.903   3.899
 6913WAT     H220982   6.950   9.828   4.042
 6914WAT      O20983   6.773   5.265   4.407
 6914WAT     H120984   6.781   5.361   4.382
 6914WAT     H220985   6.733   5.257   4.499
 6915WAT      O20986   2.695   1.318   7.961
 6915WAT     H120987   2.620   1.379   7.987
 6915WAT     H220988   2.772   1.372   7.927
 6916WAT      O20989   4.117   7.266   5.727
 6916WAT     H120990   4.148   7.338   5.789
 6916WAT     H220991   4.192   7.202   5.710
 6917WAT      O20992   7.494   0.308   1.905
 6917WAT     H120993   7.462   0.230   1.851
 6917WAT     H220994   7.422   0.337   1.968
 6918WAT      O20995   2.771   5.845   3.529
 6918WAT     H120996   2.682   5.809   3.556
 6918WAT     H220997   2.771   5.945   3.539
 6919WAT      O20998   5.909   4.870   5.101
 6919WAT     H120999   5.974   4.940   5.071
 6919WAT     H221000   5.818   4.909   5.109
 6920WAT      O21001   1.799   9.319   9.389
 6920WAT     H121002   1.751   9.352   9.471
 6920WAT     H221003   1.895   9.347   9.393
 6921WAT      O21004   3.053   7.682   5.457
 6921WAT     H121005   3.097   7.697   5.369
 6921WAT     H221006   3.042   7.769   5.505
 6922WAT      O21007   0.509   5.803   4.758
 6922WAT     H121008   0.446   5.735   4.719
 6922WAT     H221009   0.486   5.817   4.854
 6923WAT      O21010   6.783   0.175   0.237
 6923WAT     H121011   6.873   0.134   0.225
 6923WAT     H221012   6.768   0.196   0.334
 6924WAT      O21013   0.259   9.086   5.876
 6924WAT     H121014   0.282   9.055   5.784
 6924WAT     H221015   0.178   9.145   5.872
 6925WAT      O21016   2.076   9.138   4.110
 6925WAT     H121017   2.088   9.039   4.102
 6925WAT     H221018   2.157   9.184   4.076
 6926WAT      O21019   9.288   0.648   5.322
 6926WAT     H121020   9.220   0.603   5.264
 6926WAT     H221021   9.310   0.589   5.399
 6927WAT      O21022   8.587   4.586   3.321
 6927WAT     H121023   8.548   4.521   3.386
 6927WAT     H221024   8.555   4.679   3.343
 6928WAT      O21025   0.151   2.196   3.705
 6928WAT     H121026   0.063   2.149   3.699
 6928WAT     H221027   0.141   2.277   3.763
 6929WAT      O21028   2.486   0.369   1.037
 6929WAT     H121029   2.484   0.467   1.053
 6929WAT     H221030   2.441   0.321   1.113
 6930WAT      O21031   5.900   0.697   7.547
 6930WAT     H121032   5.894   0.732   7.641
 6930WAT     H221033   5.823   0.732   7.493
 6931WAT      O21034   8.812   5.587   1.346
 6931WAT     H121035   8.768   5.533   1.418
 6931WAT     H221036   8.746   5.607   1.274
 6932WAT      O21037   8.604   9.191   9.225
 6932WAT     H121038   8.651   9.106   9.252
 6932WAT     H221039   8.661   9.240   9.160
 6933WAT      O21040   3.396   1.638   3.776
 6933WAT     H121041   3.319   1.582   3.746
 6933WAT     H221042   3.481   1.584   3.770
 6934WAT      O21043   6.091   7.616   4.575
 6934WAT     H121044   6.165   7.578   4.520
 6934WAT     H221045   6.077   7.712   4.551
 6935WAT      O21046   0.724   7.651   4.748
 6935WAT     H121047   0.739   7.602   4.662
 6935WAT     H221048   0.640   7.618   4.791
 6936WAT      O21049   0.740   3.793   7.391
 6936WAT     H121050   0.737   3.699   7.357
 6936WAT     H221051   0.646   3.827   7.403
 6937WAT      O21052   2.087   2.643   9.140
 6937WAT     H121053   2.171   2.691   9.115
 6937WAT     H221054   2.110   2.556   9.183
 6938WAT      O21055   9.371   6.245   6.271
 6938WAT     H121056   9.432   6.176   6.231
 6938WAT     H221057   9.282   6.203   6.291
 6939WAT      O21058   3.205   0.293   2.526
 6939WAT     H121059   3.243   0.202   2.544
 6939WAT     H221060   3.270   0.363   2.556
 6940WAT      O21061   2.146   8.202   2.464
 6940WAT     H121062   2.048   8.217   2.450
 6940WAT     H221063   2.163   8.104   2.478
 6941WAT      O21064   4.448   3.264   7.418
 6941WAT     H121065   4.409   3.207   7.490
 6941WAT     H221066   4.533   3.306   7.450
 6942WAT      O21067   0.580   8.725   9.179
 6942WAT     H121068   0.543   8.801   9.126
 6942WAT     H221069   0.557   8.639   9.134
 6943WAT      O21070   2.934   1.433   5.794
 6943WAT     H121071   2.916   1.350   5.741
 6943WAT     H221072   3.010   1.484   5.753
 6944WAT      O21073   9.511   5.263   6.329
 6944WAT     H121074   9.417   5.272   6.362
 6944WAT     H221075   9.519   5.304   6.238
 6945WAT      O21076   4.355   8.571   8.547
 6945WAT     H121077   4.325   8.509   8.619
 6945WAT     H221078   4.319   8.540   8.459
 6946WAT      O21079   3.663   9.604   3.435
 6946WAT     H121080   3.638   9.627   3.341
 6946WAT     H221081   3.580   9.596   3.491
 6947WAT      O21082   5.043   7.912   1.606
 6947WAT     H121083   5.089   7.961   1.680
 6947WAT     H221084   5.044   7.968   1.523
 6948WAT      O21085   9.773   1.286   3.476
 6948WAT     H121086   9.855   1.344   3.474
 6948WAT     H221087   9.799   1.193   3.503
 6949WAT      O21088   2.113   0.517   1.065
 6949WAT     H121089   2.115   0.425   1.103
 6949WAT     H221090   2.143   0.514   0.970
 6950WAT      O21091   0.083   7.304   6.897
 6950WAT     H121092   0.097   7.298   6.996
 6950WAT     H221093   0.018   7.234   6.868
 6951WAT      O21094   2.221   8.249   7.638
 6951WAT     H121095   2.193   8.308   7.713
 6951WAT     H221096   2.277   8.174   7.673
 6952WAT      O21097   1.484   3.998   0.200
 6952WAT     H121098   1.431   3.947   0.131
 6952WAT     H221099   1.484   4.095   0.177
 6953WAT      O21100   6.496   6.109   4.007
 6953WAT     H121101   6.493   6.009   4.015
 6953WAT     H221102   6.467   6.136   3.916
 6954WAT      O21103   1.292   2.597   7.803
 6954WAT     H121104   1.335   2.507   7.802
 6954WAT     H221105   1.206   2.594   7.752
 6955WAT      O21106   4.503   8.577   9.320
 6955WAT     H121107   4.501   8.596   9.418
 6955WAT     H221108   4.513   8.478   9.306
 6956WAT      O21109   7.934   5.923   5.588
 6956WAT     H121110   7.916   5.848   5.651
 6956WAT     H221111   8.017   5.904   5.536
 6957WAT      O21112   7.595   0.855   3.417
 6957WAT     H121113   7.550   0.819   3.335
 6957WAT     H221114   7.674   0.797   3.439
 6958WAT      O21115   8.708   0.329   6.391
 6958WAT     H121116   8.694   0.354   6.295
 6958WAT     H221117   8.746   0.237   6.396
 6959WAT      O21118   7.160   5.805   2.602
 6959WAT     H121119   7.244   5.788   2.653
 6959WAT     H221120   7.098   5.728   2.615
 6960WAT      O21121   8.881   5.088   8.934
 6960WAT     H121122   8.953   5.069   8.867
 6960WAT     H221123   8.803   5.130   8.889
 6961WAT      O21124   2.479   8.887   8.264
 6961WAT     H121125   2.527   8.918   8.182
 6961WAT     H221126   2.464   8.789   8.260
 6962WAT      O21127   2.282   5.999   2.293
 6962WAT     H121128   2.209   5.990   2.361
 6962WAT     H221129   2.291   5.914   2.242
 6963WAT      O21130   4.781   6.280   0.262
 6963WAT     H121131   4.807   6.184   0.258
 6963WAT     H221132   4.790   6.321   0.171
 6964WAT      O21133   0.299   7.134   1.347
 6964WAT     H121134   0.399   7.133   1.343
 6964WAT     H221135   0.268   7.229   1.357
 6965WAT      O21136   6.177   5.512   6.785
 6965WAT     H121137   6.231   5.430   6.800
 6965WAT     H221138   6.221   5.569   6.716
 6966WAT      O21139   0.194   8.700   3.664
 6966WAT     H121140   0.193   8.795   3.695
 6966WAT     H221141   0.100   8.664   3.665
 6967WAT      O21142   1.108   1.754   4.493
 6967WAT     H121143   1.115   1.655   4.501
 6967WAT     H221144   1.145   1.797   4.575
 6968WAT      O21145   5.898   0.758   4.303
 6968WAT     H121146   5.938   0.830   4.247
 6968WAT     H221147   5.919   0.774   4.400
 6969WAT      O21148   8.606   7.168   6.641
 6969WAT     H121149   8.543   7.090   6.650
 6969WAT     H221150   8.660   7.157   6.558
 6970WAT      O21151   3.783   5.089   2.120
 6970WAT     H121152   3.783   5.188   2.108
 6970WAT     H221153   3.777   5.067   2.218
 6971WAT      O21154   6.155   2.997   5.414
 6971WAT     H121155   6.236   2.998   5.472
 6971WAT     H221156   6.135   3.090   5.383
 6972WAT      O21157   1.107   8.005   8.800
 6972WAT     H121158   1.165   8.084   8.782
 6972WAT     H221159   1.046   8.025   8.876
 6973WAT      O21160   4.847   9.431   5.244
 6973WAT     H121161   4.943   9.417   5.268
 6973WAT     H221162   4.836   9.521   5.202
 6974WAT      O21163   5.863   7.045   5.702
 6974WAT     H121164   5.785   7.086   5.654
 6974WAT     H221165   5.830   6.979   5.770
 6975WAT      O21166   3.771   6.697   6.134
 6975WAT     H121167   3.744   6.790   6.159
 6975WAT     H221168   3.717   6.667   6.056
 6976WAT      O21169   8.211   5.660   0.152
 6976WAT     H121170   8.307   5.672   0.130
 6976WAT     H221171   8.156   5.674   0.070
 6977WAT      O21172   6.545   0.001   8.875
 6977WAT     H121173   6.455   0.043   8.859
 6977WAT     H221174   6.612   0.045   8.816
 6978WAT      O21175   7.339   2.687   9.895
 6978WAT     H121176   7.255   2.741   9.884
 6978WAT     H221177   7.357   2.636   9.812
 6979WAT      O21178   5.668   5.065   3.119
 6979WAT     H121179   5.675   5.160   3.091
 6979WAT     H221180   5.750   5.039   3.170
 6980WAT      O21181   0.426   6.423   4.847
 6980WAT     H121182   0.520   6.433   4.880
 6980WAT     H221183   0.362   6.451   4.919
 6981WAT      O21184   3.016   3.631   0.175
 6981WAT     H121185   3.027   3.693   0.098
 6981WAT     H221186   2.952   3.670   0.241
 6982WAT      O21187   1.558   8.570   1.398
 6982WAT     H121188   1.607   8.653   1.424
 6982WAT     H221189   1.556   8.562   1.299
 6983WAT      O21190   6.458   5.338   0.690
 6983WAT     H121191   6.524   5.340   0.764
 6983WAT     H221192   6.368   5.313   0.726
 6984WAT      O21193   2.638   8.217   2.057
 6984WAT     H121194   2.583   8.230   2.139
 6984WAT     H221195   2.697   8.137   2.069
 6985WAT      O21196   4.868   7.917   4.539
 6985WAT     H121197   4.849   7.854   4.614
 6985WAT     H221198   4.785   7.966   4.515
 6986WAT      O21199   5.060   8.338   4.912
 6986WAT     H121200   5.149   8.306   4.880
 6986WAT     H221201   5.069   8.431   4.949
 6987WAT      O21202   7.937   9.597   1.692
 6987WAT     H121203   7.878   9.540   1.748
 6987WAT     H221204   7.897   9.607   1.601
 6988WAT      O21205   2.906   1.547   4.545
 6988WAT     H121206   2.930   1.593   4.460
 6988WAT     H221207   2.988   1.537   4.601
 6989WAT      O21208   0.628   5.557   3.038
 6989WAT     H121209   0.530   5.553   3.018
 6989WAT     H221210   0.641   5.570   3.137
 6990WAT      O21211   2.296   7.218   1.073
 6990WAT     H121212   2.320   7.123   1.093
 6990WAT     H221213   2.351   7.279   1.130
 6991WAT      O21214   1.562   2.438   5.867
 6991WAT     H121215   1.475   2.488   5.868
 6991WAT     H221216   1.638   2.501   5.880
 6992WAT      O21217   9.715   8.121   3.379
 6992WAT     H121218   9.786   8.061   3.343
 6992WAT     H221219   9.709   8.203   3.322
 6993WAT      O21220   5.696   0.244   8.560
 6993WAT     H121221   5.738   0.201   8.481
 6993WAT     H221222   5.761   0.246   8.636
 6994WAT      O21223   5.510   9.251   6.033
 6994WAT     H121224   5.582   9.313   6.064
 6994WAT     H221225   5.535   9.212   5.944
 6995WAT      O21226   4.377   3.421   1.551
 6995WAT     H121227   4.449   3.354   1.572
 6995WAT     H221228   4.419   3.509   1.528
 6996WAT      O21229   8.067   4.077   1.081
 6996WAT     H121230   7.986   4.131   1.102
 6996WAT     H221231   8.041   3.981   1.072
 6997WAT      O21232   3.799   7.680   0.459
 6997WAT     H121233   3.782   7.674   0.361
 6997WAT     H221234   3.893   7.650   0.478
 6998WAT      O21235   9.205   4.195   7.920
 6998WAT     H121236   9.139   4.238   7.982
 6998WAT     H221237   9.209   4.097   7.936
 6999WAT      O21238   4.014   4.370   2.494
 6999WAT     H121239   3.949   4.295   2.483
 6999WAT     H221240   4.087   4.342   2.557
 7000WAT      O21241   7.470   5.586   8.932
 7000WAT     H121242   7.423   5.498   8.940
 7000WAT     H221243   7.406   5.660   8.950
 7001WAT      O21244   8.420   2.918   7.454
 7001WAT     H121245   8.366   2.861   7.392
 7001WAT     H221246   8.474   2.983   7.401
 7002WAT      O21247   6.483   3.666   7.746
 7002WAT     H121248   6.567   3.612   7.744
 7002WAT     H221249   6.432   3.651   7.661
 7003WAT      O21250   2.642   7.103   4.508
 7003WAT     H121251   2.578   7.155   4.451
 7003WAT     H221252   2.644   7.142   4.600
 7004WAT      O21253   1.189   1.601   9.391
 7004WAT     H121254   1.202   1.699   9.404
 7004WAT     H221255   1.151   1.561   9.474
 7005WAT      O21256   0.863   2.906   3.722
 7005WAT     H121257   0.926   2.837   3.759
 7005WAT     H221258   0.903   2.946   3.640
 7006WAT      O21259   7.795   7.293   7.121
 7006WAT     H121260   7.836   7.328   7.204
 7006WAT     H221261   7.704   7.332   7.109
 7007WAT      O21262   7.749   7.772   4.313
 7007WAT     H121263   7.649   7.770   4.308
 7007WAT     H221264   7.787   7.702   4.253
 7008WAT      O21265   7.775   7.703   0.400
 7008WAT     H121266   7.691   7.752   0.375
 7008WAT     H221267   7.752   7.632   0.466
 7009WAT      O21268   8.630   9.093   6.111
 7009WAT     H121269   8.596   9.008   6.069
 7009WAT     H221270   8.619   9.088   6.210
 7010WAT      O21271   7.990   9.610   2.658
 7010WAT     H121272   7.932   9.690   2.644
 7010WAT     H221273   7.955   9.557   2.735
 7011WAT      O21274   5.763   1.241   3.895
 7011WAT     H121275   5.734   1.287   3.811
 7011WAT     H221276   5.732   1.146   3.893
 7012WAT      O21277   5.607   1.604   8.784
 7012WAT     H121278   5.649   1.585   8.695
 7012WAT     H221279   5.598   1.518   8.835
 7013WAT      O21280   9.317   7.737   4.059
 7013WAT     H121281   9.371   7.774   4.134
 7013WAT     H221282   9.287   7.811   3.999
 7014WAT      O21283   5.085   4.804   7.354
 7014WAT     H121284   4.985   4.795   7.353
 7014WAT     H221285   5.113   4.872   7.286
 7015WAT      O21286   7.656   4.929   2.038
 7015WAT     H121287   7.560   4.943   2.015
 7015WAT     H221288   7.672   4.833   2.059
 7016WAT      O21289   5.542   0.377   2.764
 7016WAT     H121290   5.460   0.389   2.819
 7016WAT     H221291   5.590   0.294   2.793
 7017WAT      O21292   2.031   9.771   0.731
 7017WAT     H121293   1.968   9.710   0.780
 7017WAT     H221294   2.048   9.852   0.787
 7018WAT      O21295   5.851   0.637   2.204
 7018WAT     H121296   5.755   0.639   2.176
 7018WAT     H221297   5.906   0.600   2.130
 7019WAT      O21298   0.507   4.617   9.413
 7019WAT     H121299   0.575   4.682   9.378
 7019WAT     H221300   0.453   4.660   9.485
 7020WAT      O21301   0.933   6.902   7.202
 7020WAT     H121302   1.000   6.883   7.131
 7020WAT     H221303   0.843   6.915   7.160
 7021WAT      O21304   6.081   8.721   6.333
 7021WAT     H121305   6.138   8.753   6.408
 7021WAT     H221306   6.119   8.635   6.297
 7022WAT      O21307   3.723   4.690   9.866
 7022WAT     H121308   3.822   4.673   9.868
 7022WAT     H221309   3.675   4.605   9.847
 7023WAT      O21310   7.686   5.163   8.291
 7023WAT     H121311   7.774   5.168   8.339
 7023WAT     H221312   7.643   5.254   8.290
 7024WAT      O21313   5.714   3.099   0.174
 7024WAT     H121314   5.678   3.179   0.127
 7024WAT     H221315   5.663   3.085   0.259
 7025WAT      O21316   5.527   5.572   3.079
 7025WAT     H121317   5.453   5.529   3.131
 7025WAT     H221318   5.506   5.669   3.066
 7026WAT      O21319   3.088   5.984   5.020
 7026WAT     H121320   3.140   6.003   5.103
 7026WAT     H221321   3.081   5.885   5.007
 7027WAT      O21322   4.316   8.610   6.241
 7027WAT     H121323   4.248   8.537   6.251
 7027WAT     H221324   4.342   8.618   6.145
 7028WAT      O21325   7.730   9.616   3.994
 7028WAT     H121326   7.785   9.697   4.015
 7028WAT     H221327   7.753   9.583   3.903
 7029WAT      O21328   8.605   6.364   8.062
 7029WAT     H121329   8.518   6.341   8.019
 7029WAT     H221330   8.592   6.379   8.160
 7030WAT      O21331   9.586   1.987   4.020
 7030WAT     H121332   9.577   1.982   3.921
 7030WAT     H221333   9.621   2.077   4.046
 7031WAT      O21334   5.322   9.609   0.694
 7031WAT     H121335   5.225   9.592   0.711
 7031WAT     H221336   5.333   9.652   0.604
 7032WAT      O21337   5.750   7.361   4.509
 7032WAT     H121338   5.717   7.395   4.421
 7032WAT     H221339   5.693   7.284   4.539
 7033WAT      O21340   7.559   5.932   3.223
 7033WAT     H121341   7.474   5.885   3.246
 7033WAT     H221342   7.615   5.942   3.305
 7034WAT      O21343   5.495   8.550   6.083
 7034WAT     H121344   5.482   8.623   6.151
 7034WAT     H221345   5.416   8.549   6.021
 7035WAT      O21346   1.135   4.860   7.521
 7035WAT     H121347   1.185   4.776   7.501
 7035WAT     H221348   1.186   4.916   7.586
 7036WAT      O21349   9.248   3.800   5.170
 7036WAT     H121350   9.175   3.748   5.126
 7036WAT     H221351   9.211   3.849   5.248
 7037WAT      O21352   4.917   1.619   8.605
 7037WAT     H121353   4.826   1.661   8.605
 7037WAT     H221354   4.984   1.686   8.639
 7038WAT      O21355   3.032   4.009   8.620
 7038WAT     H121356   3.040   3.963   8.708
 7038WAT     H221357   3.024   4.108   8.635
 7039WAT      O21358   9.757   9.423   8.323
 7039WAT     H121359   9.850   9.412   8.358
 7039WAT     H221360   9.756   9.404   8.225
 7040WAT      O21361   1.239   4.385   0.236
 7040WAT     H121362   1.223   4.394   0.137
 7040WAT     H221363   1.266   4.473   0.273
 7041WAT      O21364   7.627   3.851   5.839
 7041WAT     H121365   7.589   3.934   5.800
 7041WAT     H221366   7.600   3.772   5.783
 7042WAT      O21367   8.372   5.823   6.202
 7042WAT     H121368   8.434   5.860   6.133
 7042WAT     H221369   8.396   5.860   6.292
 7043WAT      O21370   0.817   9.493   2.904
 7043WAT     H121371   0.897   9.453   2.949
 7043WAT     H221372   0.789   9.435   2.828
 7044WAT      O21373   6.501   0.851   4.162
 7044WAT     H121374   6.401   0.847   4.175
 7044WAT     H221375   6.531   0.946   4.164
 7045WAT      O21376   6.609   2.505   9.050
 7045WAT     H121377   6.647   2.572   8.986
 7045WAT     H221378   6.509   2.503   9.042
 7046WAT      O21379   5.532   5.966   2.611
 7046WAT     H121380   5.526   5.888   2.674
 7046WAT     H221381   5.619   5.963   2.562
 7047WAT      O21382   6.282   0.343   8.227
 7047WAT     H121383   6.289   0.441   8.209
 7047WAT     H221384   6.303   0.325   8.323
 7048WAT      O21385   5.580   0.755   8.083
 7048WAT     H121386   5.586   0.773   7.985
 7048WAT     H221387   5.615   0.663   8.103
 7049WAT      O21388   1.051   4.239   8.111
 7049WAT     H121389   1.090   4.234   8.203
 7049WAT     H221390   0.991   4.318   8.104
 7050WAT      O21391   6.481   5.400   2.215
 7050WAT     H121392   6.522   5.488   2.189
 7050WAT     H221393   6.446   5.406   2.309
 7051WAT      O21394   8.645   3.140   1.121
 7051WAT     H121395   8.634   3.239   1.112
 7051WAT     H221396   8.596   3.094   1.047
 7052WAT      O21397   3.740   3.490   4.904
 7052WAT     H121398   3.818   3.538   4.865
 7052WAT     H221399   3.731   3.515   5.000
 7053WAT      O21400   3.534   6.452   8.280
 7053WAT     H121401   3.601   6.383   8.307
 7053WAT     H221402   3.461   6.457   8.349
 7054WAT      O21403   3.592   9.769   5.981
 7054WAT     H121404   3.542   9.682   5.986
 7054WAT     H221405   3.652   9.778   6.061
 7055WAT      O21406   7.451   1.876   4.978
 7055WAT     H121407   7.371   1.825   5.011
 7055WAT     H221408   7.441   1.894   4.881
 7056WAT      O21409   0.461   6.034   6.478
 7056WAT     H121410   0.459   5.948   6.427
 7056WAT     H221411   0.525   6.025   6.555
 7057WAT      O21412   0.519   9.464   2.083
 7057WAT     H121413   0.457   9.499   2.013
 7057WAT     H221414   0.467   9.424   2.158
 7058WAT      O21415   7.559   8.635   8.914
 7058WAT     H121416   7.559   8.678   8.824
 7058WAT     H221417   7.634   8.568   8.919
 7059WAT      O21418   4.002   7.230   3.057
 7059WAT     H121419   4.049   7.303   3.105
 7059WAT     H221420   3.905   7.252   3.050
 7060WAT      O21421   3.791   5.963   3.285
 7060WAT     H121422   3.889   5.946   3.294
 7060WAT     H221423   3.744   5.932   3.367
 7061WAT      O21424   2.524   6.718   2.846
 7061WAT     H121425   2.578   6.672   2.775
 7061WAT     H221426   2.455   6.777   2.803
 7062WAT      O21427   6.358   0.029   4.985
 7062WAT     H121428   6.409  -0.052   5.012
 7062WAT     H221429   6.392   0.063   4.897
 7063WAT      O21430   7.267   4.710   4.048
 7063WAT     H121431   7.294   4.778   3.979
 7063WAT     H221432   7.174   4.680   4.029
 7064WAT      O21433   4.029   4.673   4.873
 7064WAT     H121434   3.980   4.753   4.907
 7064WAT     H221435   4.088   4.700   4.797
 7065WAT      O21436   9.061   6.064   9.169
 7065WAT     H121437   9.097   6.125   9.099
 7065WAT     H221438   9.133   6.042   9.235
 7066WAT      O21439   3.863   7.644   6.549
 7066WAT     H121440   3.940   7.690   6.505
 7066WAT     H221441   3.870   7.655   6.648
 7067WAT      O21442   3.762   4.788   7.910
 7067WAT     H121443   3.778   4.699   7.867
 7067WAT     H221444   3.732   4.774   8.005
 7068WAT      O21445   9.491   2.435   1.863
 7068WAT     H121446   9.487   2.360   1.797
 7068WAT     H221447   9.443   2.409   1.947
 7069WAT      O21448   1.200   2.437   6.411
 7069WAT     H121449   1.187   2.403   6.318
 7069WAT     H221450   1.296   2.461   6.424
 7070WAT      O21451   1.462   7.181   9.519
 7070WAT     H121452   1.491   7.221   9.606
 7070WAT     H221453   1.473   7.082   9.522
 7071WAT      O21454   6.305   0.410   2.489
 7071WAT     H121455   6.276   0.489   2.436
 7071WAT     H221456   6.368   0.354   2.436
 7072WAT      O21457   9.316   8.438   5.458
 7072WAT     H121458   9.227   8.428   5.413
 7072WAT     H221459   9.307   8.420   5.556
 7073WAT      O21460   2.422   5.153   0.302
 7073WAT     H121461   2.496   5.205   0.260
 7073WAT     H221462   2.447   5.056   0.303
 7074WAT      O21463   1.334   9.619   7.988
 7074WAT     H121464   1.323   9.541   7.927
 7074WAT     H221465   1.295   9.597   8.077
 7075WAT      O21466   3.981   2.498   7.201
 7075WAT     H121467   4.035   2.427   7.246
 7075WAT     H221468   4.023   2.587   7.219
 7076WAT      O21469   8.132   5.378   9.027
 7076WAT     H121470   8.131   5.310   8.954
 7076WAT     H221471   8.042   5.384   9.069
 7077WAT      O21472   1.134   7.545   6.398
 7077WAT     H121473   1.190   7.545   6.315
 7077WAT     H221474   1.051   7.599   6.382
 7078WAT      O21475   5.421   7.849   7.621
 7078WAT     H121476   5.399   7.866   7.525
 7078WAT     H221477   5.349   7.793   7.663
 7079WAT      O21478   0.129   5.220   1.994
 7079WAT     H121479   0.189   5.155   1.949
 7079WAT     H221480   0.049   5.172   2.031
 7080WAT      O21481   8.270   5.569   2.593
 7080WAT     H121482   8.279   5.475   2.559
 7080WAT     H221483   8.301   5.633   2.522
 7081WAT      O21484   0.086   6.422   8.150
 7081WAT     H121485   0.034   6.496   8.192
 7081WAT     H221486   0.146   6.458   8.079
 7082WAT      O21487   2.535   2.092   1.976
 7082WAT     H121488   2.497   2.000   1.977
 7082WAT     H221489   2.518   2.137   2.064
 7083WAT      O21490   6.150   3.935   2.405
 7083WAT     H121491   6.082   3.864   2.388
 7083WAT     H221492   6.201   3.913   2.488
 7084WAT      O21493   7.781   0.006   5.119
 7084WAT     H121494   7.859   0.065   5.138
 7084WAT     H221495   7.747  -0.033   5.205
 7085WAT      O21496   8.035   4.190   0.229
 7085WAT     H121497   8.076   4.263   0.174
 7085WAT     H221498   7.953   4.156   0.183
 7086WAT      O21499   1.573   8.120   8.700
 7086WAT     H121500   1.591   8.025   8.673
 7086WAT     H221501   1.659   8.170   8.705
 7087WAT      O21502   1.192   7.211   3.363
 7087WAT     H121503   1.214   7.178   3.271
 7087WAT     H221504   1.263   7.182   3.427
 7088WAT      O21505   6.039   2.044   9.421
 7088WAT     H121506   6.048   1.952   9.381
 7088WAT     H221507   6.052   2.113   9.350
 7089WAT      O21508   2.298   7.930   2.500
 7089WAT     H121509   2.261   7.880   2.422
 7089WAT     H221510   2.398   7.932   2.493
 7090WAT      O21511   1.987   1.798   7.436
 7090WAT     H121512   2.027   1.874   7.487
 7090WAT     H221513   2.026   1.711   7.468
 7091WAT      O21514   2.415   4.929   5.271
 7091WAT     H121515   2.493   4.902   5.328
 7091WAT     H221516   2.448   4.978   5.191
 7092WAT      O21517   6.058   0.005   4.175
 7092WAT     H121518   6.134  -0.038   4.223
 7092WAT     H221519   6.090   0.088   4.129
 7093WAT      O21520   6.633   5.641   7.074
 7093WAT     H121521   6.603   5.685   7.159
 7093WAT     H221522   6.700   5.570   7.096
 7094WAT      O21523   6.588   7.426   1.312
 7094WAT     H121524   6.555   7.461   1.400
 7094WAT     H221525   6.549   7.336   1.295
 7095WAT      O21526   5.152   9.799   9.539
 7095WAT     H121527   5.135   9.877   9.599
 7095WAT     H221528   5.075   9.735   9.545
 7096WAT      O21529   0.469   5.077   5.142
 7096WAT     H121530   0.488   4.987   5.103
 7096WAT     H221531   0.373   5.084   5.166
 7097WAT      O21532   9.701   1.388   5.423
 7097WAT     H121533   9.705   1.486   5.444
 7097WAT     H221534   9.617   1.349   5.460
 7098WAT      O21535   4.131   4.668   0.787
 7098WAT     H121536   4.085   4.648   0.700
 7098WAT     H221537   4.062   4.682   0.858
 7099WAT      O21538   4.614   0.937   7.049
 7099WAT     H121539   4.694   0.937   6.989
 7099WAT     H221540   4.531   0.947   6.994
 7100WAT      O21541   0.527   4.182   0.651
 7100WAT     H121542   0.542   4.279   0.631
 7100WAT     H221543   0.614   4.133   0.650
 7101WAT      O21544   5.696   0.672   0.008
 7101WAT     H121545   5.712   0.680  -0.091
 7101WAT     H221546   5.751   0.597   0.044
 7102WAT      O21547   1.031   8.784   2.790
 7102WAT     H121548   1.073   8.778   2.699
 7102WAT     H221549   1.036   8.694   2.834
 7103WAT      O21550   7.066   1.546   3.929
 7103WAT     H121551   7.120   1.584   3.855
 7103WAT     H221552   7.013   1.618   3.973
 7104WAT      O21553   1.353   7.016   1.637
 7104WAT     H121554   1.260   7.042   1.614
 7104WAT     H221555   1.403   7.096   1.671
 7105WAT      O21556   7.777   1.960   1.725
 7105WAT     H121557   7.774   1.899   1.804
 7105WAT     H221558   7.756   1.908   1.642
 7106WAT      O21559   9.104   3.131   2.998
 7106WAT     H121560   9.006   3.116   3.006
 7106WAT     H221561   9.129   3.217   3.043
 7107WAT      O21562   2.212   2.429   9.256
 7107WAT     H121563   2.266   2.485   9.318
 7107WAT     H221564   2.251   2.337   9.251
 7108WAT      O21565   8.750   4.414   4.747
 7108WAT     H121566   8.733   4.492   4.687
 7108WAT     H221567   8.737   4.442   4.842
 7109WAT      O21568   4.948   7.320   5.817
 7109WAT     H121569   4.879   7.317   5.744
 7109WAT     H221570   4.970   7.227   5.846
 7110WAT      O21571   4.010   9.707   4.563
 7110WAT     H121572   4.059   9.792   4.578
 7110WAT     H221573   4.069   9.642   4.516
 7111WAT      O21574   6.232   2.711   1.265
 7111WAT     H121575   6.177   2.637   1.303
 7111WAT     H221576   6.326   2.703   1.299
 7112WAT      O21577   4.999   2.493   8.925
 7112WAT     H121578   4.911   2.515   8.968
 7112WAT     H221579   5.062   2.457   8.994
 7113WAT      O21580   8.300   8.760   9.343
 7113WAT     H121581   8.275   8.669   9.375
 7113WAT     H221582   8.234   8.789   9.273
 7114WAT      O21583   5.451   3.544   8.716
 7114WAT     H121584   5.541   3.549   8.760
 7114WAT     H221585   5.443   3.618   8.650
 7115WAT      O21586   1.170   9.775   7.393
 7115WAT     H121587   1.122   9.689   7.404
 7115WAT     H221588   1.162   9.830   7.477
 7116WAT      O21589   7.012   6.712   9.566
 7116WAT     H121590   6.953   6.744   9.640
 7116WAT     H221591   6.957   6.697   9.484
 7117WAT      O21592   9.204   3.824   1.021
 7117WAT     H121593   9.285   3.881   1.006
 7117WAT     H221594   9.232   3.728   1.028
 7118WAT      O21595   9.043   1.265   2.514
 7118WAT     H121596   9.039   1.214   2.428
 7118WAT     H221597   9.124   1.324   2.514
 7119WAT      O21598   9.499   5.086   8.329
 7119WAT     H121599   9.446   5.170   8.340
 7119WAT     H221600   9.589   5.099   8.371
 7120WAT      O21601   1.152   2.410   0.969
 7120WAT     H121602   1.079   2.452   1.023
 7120WAT     H221603   1.237   2.411   1.022
 7121WAT      O21604   9.748   3.101   4.964
 7121WAT     H121605   9.783   3.153   4.886
 7121WAT     H221606   9.825   3.065   5.017
 7122WAT      O21607   6.186   8.225   3.015
 7122WAT     H121608   6.169   8.218   2.917
 7122WAT     H221609   6.253   8.296   3.033
 7123WAT      O21610   6.860   6.154   8.333
 7123WAT     H121611   6.836   6.114   8.245
 7123WAT     H221612   6.936   6.103   8.373
 7124WAT      O21613   7.167   2.263   3.193
 7124WAT     H121614   7.121   2.283   3.279
 7124WAT     H221615   7.262   2.292   3.198
 7125WAT      O21616   7.502   6.551   4.678
 7125WAT     H121617   7.595   6.574   4.652
 7125WAT     H221618   7.500   6.459   4.716
 7126WAT      O21619   0.515   9.394   4.356
 7126WAT     H121620   0.510   9.421   4.260
 7126WAT     H221621   0.424   9.371   4.389
 7127WAT      O21622   0.206   0.010   5.932
 7127WAT     H121623   0.187   0.079   5.862
 7127WAT     H221624   0.151   0.029   6.014
 7128WAT      O21625   7.690   7.822   5.431
 7128WAT     H121626   7.710   7.912   5.468
 7128WAT     H221627   7.727   7.752   5.493
 7129WAT      O21628   7.162   4.812   8.519
 7129WAT     H121629   7.094   4.867   8.472
 7129WAT     H221630   7.133   4.716   8.521
 7130WAT      O21631   7.577   4.030   1.114
 7130WAT     H121632   7.614   4.011   1.205
 7130WAT     H221633   7.477   4.040   1.120
 7131WAT      O21634   6.065   8.194   1.134
 7131WAT     H121635   6.011   8.277   1.144
 7131WAT     H221636   6.035   8.126   1.200
 7132WAT      O21637   1.634   8.402   8.762
 7132WAT     H121638   1.665   8.464   8.835
 7132WAT     H221639   1.583   8.455   8.694
 7133WAT      O21640   5.787   4.608   7.055
 7133WAT     H121641   5.758   4.622   7.149
 7133WAT     H221642   5.709   4.581   6.999
 7134WAT      O21643   0.341   4.181   8.390
 7134WAT     H121644   0.407   4.218   8.325
 7134WAT     H221645   0.343   4.235   8.473
 7135WAT      O21646   3.070   5.447   9.539
 7135WAT     H121647   3.112   5.370   9.586
 7135WAT     H221648   3.056   5.424   9.442
 7136WAT      O21649   8.726   5.415   3.943
 7136WAT     H121650   8.728   5.467   3.859
 7136WAT     H221651   8.811   5.429   3.994
 7137WAT      O21652   9.782   9.045   3.458
 7137WAT     H121653   9.697   9.093   3.437
 7137WAT     H221654   9.774   8.949   3.431
 7138WAT      O21655   1.099   0.307   9.102
 7138WAT     H121656   1.051   0.280   9.186
 7138WAT     H221657   1.088   0.405   9.088
 7139WAT      O21658   5.380   6.141   0.752
 7139WAT     H121659   5.301   6.126   0.692
 7139WAT     H221660   5.463   6.109   0.707
 7140WAT      O21661   0.828   5.697   1.839
 7140WAT     H121662   0.820   5.649   1.752
 7140WAT     H221663   0.825   5.631   1.914
 7141WAT      O21664   1.844   6.995   4.162
 7141WAT     H121665   1.927   6.940   4.158
 7141WAT     H221666   1.769   6.940   4.199
 7142WAT      O21667   3.768   2.712   9.594
 7142WAT     H121668   3.820   2.796   9.607
 7142WAT     H221669   3.776   2.655   9.676
 7143WAT      O21670   1.931   9.111   0.251
 7143WAT     H121671   1.912   9.173   0.175
 7143WAT     H221672   1.865   9.127   0.324
 7144WAT      O21673   2.682   8.707   0.019
 7144WAT     H121674   2.723   8.761  -0.055
 7144WAT     H221675   2.613   8.646  -0.019
 7145WAT      O21676   3.770   8.582   4.339
 7145WAT     H121677   3.747   8.587   4.241
 7145WAT     H221678   3.757   8.672   4.381
 7146WAT      O21679   7.204   6.603   8.266
 7146WAT     H121680   7.233   6.689   8.309
 7146WAT     H221681   7.228   6.527   8.326
 7147WAT      O21682   4.576   0.751   3.414
 7147WAT     H121683   4.600   0.721   3.506
 7147WAT     H221684   4.480   0.729   3.396
 7148WAT      O21685   1.749   5.144   9.446
 7148WAT     H121686   1.664   5.181   9.408
 7148WAT     H221687   1.763   5.179   9.538
 7149WAT      O21688   6.299   1.123   4.133
 7149WAT     H121689   6.398   1.133   4.146
 7149WAT     H221690   6.278   1.129   4.036
 7150WAT      O21691   6.944   6.305   6.706
 7150WAT     H121692   6.914   6.221   6.752
 7150WAT     H221693   6.877   6.377   6.722
 7151WAT      O21694   4.008   7.471   5.169
 7151WAT     H121695   4.083   7.505   5.111
 7151WAT     H221696   4.042   7.451   5.260
 7152WAT      O21697   1.704   0.077   9.500
 7152WAT     H121698   1.714   0.148   9.430
 7152WAT     H221699   1.795   0.045   9.527
 7153WAT      O21700   7.338   4.188   2.356
 7153WAT     H121701   7.327   4.276   2.311
 7153WAT     H221702   7.352   4.201   2.454
 7154WAT      O21703   0.577   7.487   5.655
 7154WAT     H121704   0.650   7.501   5.722
 7154WAT     H221705   0.488   7.486   5.702
 7155WAT      O21706   0.059   0.749   1.520
 7155WAT     H121707   0.136   0.751   1.455
 7155WAT     H221708   0.036   0.654   1.542
 7156WAT      O21709   2.082   3.560   9.499
 7156WAT     H121710   2.080   3.598   9.592
 7156WAT     H221711   2.049   3.628   9.434
 7157WAT      O21712   2.354   0.509   3.501
 7157WAT     H121713   2.374   0.542   3.408
 7157WAT     H221714   2.350   0.409   3.500
 7158WAT      O21715   1.209   2.973   1.351
 7158WAT     H121716   1.123   2.979   1.400
 7158WAT     H221717   1.269   3.048   1.378
 7159WAT      O21718   5.189   1.743   1.635
 7159WAT     H121719   5.098   1.746   1.675
 7159WAT     H221720   5.247   1.812   1.679
 7160WAT      O21721   7.915   0.917   6.715
 7160WAT     H121722   7.915   0.999   6.772
 7160WAT     H221723   7.906   0.943   6.619
 7161WAT      O21724   3.299   4.088   3.568
 7161WAT     H121725   3.279   3.995   3.599
 7161WAT     H221726   3.389   4.090   3.525
 7162WAT      O21727   8.083   7.706   8.878
 7162WAT     H121728   8.099   7.660   8.966
 7162WAT     H221729   8.171   7.721   8.833
 7163WAT      O21730   4.825   9.202   6.819
 7163WAT     H121731   4.880   9.162   6.746
 7163WAT     H221732   4.776   9.130   6.868
 7164WAT      O21733   5.794   6.412   6.477
 7164WAT     H121734   5.886   6.451   6.482
 7164WAT     H221735   5.728   6.475   6.518
 7165WAT      O21736   3.630   0.107   2.078
 7165WAT     H121737   3.569   0.147   2.146
 7165WAT     H221738   3.581   0.038   2.025
 7166WAT      O21739   5.710   4.248   6.534
 7166WAT     H121740   5.758   4.215   6.615
 7166WAT     H221741   5.611   4.249   6.551
 7167WAT      O21742   8.316   7.946   9.163
 7167WAT     H121743   8.348   7.996   9.244
 7167WAT     H221744   8.347   7.851   9.168
 7168WAT      O21745   7.209   5.941   8.703
 7168WAT     H121746   7.239   5.866   8.644
 7168WAT     H221747   7.285   6.005   8.717
 7169WAT      O21748   7.844   4.612   6.934
 7169WAT     H121749   7.836   4.520   6.895
 7169WAT     H221750   7.768   4.627   6.998
 7170WAT      O21751   0.683   4.187   4.860
 7170WAT     H121752   0.747   4.143   4.797
 7170WAT     H221753   0.659   4.122   4.934
 7171WAT      O21754   3.790   9.556   4.078
 7171WAT     H121755   3.817   9.603   3.994
 7171WAT     H221756   3.841   9.471   4.087
 7172WAT      O21757   0.787   8.400   7.384
 7172WAT     H121758   0.768   8.498   7.384
 7172WAT     H221759   0.827   8.373   7.297
 7173WAT      O21760   6.573   2.362   7.634
 7173WAT     H121761   6.661   2.335   7.595
 7173WAT     H221762   6.588   2.400   7.726
 7174WAT      O21763   6.197   9.842   1.416
 7174WAT     H121764   6.102   9.814   1.421
 7174WAT     H221765   6.223   9.853   1.320
 7175WAT      O21766   7.217   4.814   7.007
 7175WAT     H121767   7.171   4.736   6.965
 7175WAT     H221768   7.233   4.885   6.938
 7176WAT      O21769   2.597   6.979   7.394
 7176WAT     H121770   2.505   6.942   7.409
 7176WAT     H221771   2.661   6.903   7.384
 7177WAT      O21772   6.134   7.832   1.791
 7177WAT     H121773   6.163   7.875   1.876
 7177WAT     H221774   6.211   7.786   1.748
 7178WAT      O21775   7.070   5.066   2.550
 7178WAT     H121776   7.072   5.011   2.633
 7178WAT     H221777   7.162   5.101   2.531
 7179WAT      O21778   5.765   9.837   3.236
 7179WAT     H121779   5.708   9.918   3.222
 7179WAT     H221780   5.862   9.863   3.226
 7180WAT      O21781   1.285   1.523   4.529
 7180WAT     H121782   1.219   1.448   4.529
 7180WAT     H221783   1.373   1.491   4.562
 7181WAT      O21784   2.567   1.088   4.985
 7181WAT     H121785   2.578   1.169   5.043
 7181WAT     H221786   2.654   1.039   4.978
 7182WAT      O21787   0.117   2.562   3.567
 7182WAT     H121788   0.182   2.488   3.550
 7182WAT     H221789   0.024   2.529   3.548
 7183WAT      O21790   2.550   2.711   6.108
 7183WAT     H121791   2.502   2.798   6.092
 7183WAT     H221792   2.615   2.723   6.183
 7184WAT      O21793   8.666   9.443   9.331
 7184WAT     H121794   8.633   9.358   9.289
 7184WAT     H221795   8.646   9.442   9.429
 7185WAT      O21796   9.453   5.214   2.348
 7185WAT     H121797   9.507   5.243   2.427
 7185WAT     H221798   9.505   5.148   2.294
 7186WAT      O21799   4.830   1.934   6.120
 7186WAT     H121800   4.775   1.871   6.065
 7186WAT     H221801   4.771   2.006   6.157
 7187WAT      O21802   4.002   8.874   5.923
 7187WAT     H121803   4.013   8.777   5.904
 7187WAT     H221804   4.018   8.927   5.840
 7188WAT      O21805   1.784   7.754   6.813
 7188WAT     H121806   1.870   7.706   6.800
 7188WAT     H221807   1.797   7.852   6.800
 7189WAT      O21808   3.287   1.908   0.812
 7189WAT     H121809   3.343   1.825   0.808
 7189WAT     H221810   3.196   1.889   0.774
 7190WAT      O21811   4.308   2.762   9.498
 7190WAT     H121812   4.255   2.847   9.494
 7190WAT     H221813   4.337   2.745   9.592
 7191WAT      O21814   7.254   3.223   5.119
 7191WAT     H121815   7.241   3.124   5.119
 7191WAT     H221816   7.343   3.245   5.079
 7192WAT      O21817   1.694   1.025   7.278
 7192WAT     H121818   1.714   1.098   7.344
 7192WAT     H221819   1.770   1.017   7.213
 7193WAT      O21820   5.915   6.365   5.826
 7193WAT     H121821   5.913   6.382   5.727
 7193WAT     H221822   5.852   6.428   5.871
 7194WAT      O21823   3.622   1.947   4.963
 7194WAT     H121824   3.660   1.954   5.056
 7194WAT     H221825   3.695   1.960   4.896
 7195WAT      O21826   2.215   5.155   9.526
 7195WAT     H121827   2.288   5.088   9.538
 7195WAT     H221828   2.192   5.196   9.614
 7196WAT      O21829   5.041   5.528   4.056
 7196WAT     H121830   5.129   5.575   4.049
 7196WAT     H221831   5.010   5.530   4.151
 7197WAT      O21832   8.915   1.189   9.101
 7197WAT     H121833   8.858   1.127   9.155
 7197WAT     H221834   8.931   1.274   9.152
 7198WAT      O21835   3.654   2.515   6.920
 7198WAT     H121836   3.645   2.552   6.828
 7198WAT     H221837   3.637   2.588   6.987
 7199WAT      O21838   7.980   9.251   9.859
 7199WAT     H121839   7.935   9.166   9.834
 7199WAT     H221840   8.001   9.250   9.957
 7200WAT      O21841   4.993   3.875   6.394
 7200WAT     H121842   4.981   3.869   6.493
 7200WAT     H221843   5.029   3.965   6.370
 7201WAT      O21844   8.739   6.175   1.942
 7201WAT     H121845   8.658   6.218   1.983
 7201WAT     H221846   8.821   6.206   1.989
 7202WAT      O21847   5.262   1.882   5.170
 7202WAT     H121848   5.174   1.845   5.199
 7202WAT     H221849   5.251   1.929   5.083
 7203WAT      O21850   2.913   9.754   7.791
 7203WAT     H121851   3.000   9.743   7.743
 7203WAT     H221852   2.876   9.665   7.815
 7204WAT      O21853   2.733   1.423   4.747
 7204WAT     H121854   2.644   1.385   4.721
 7204WAT     H221855   2.765   1.485   4.676
 7205WAT      O21856   4.424   6.326   9.627
 7205WAT     H121857   4.435   6.398   9.558
 7205WAT     H221858   4.435   6.237   9.585
 7206WAT      O21859   0.410   3.047   5.642
 7206WAT     H121860   0.450   3.094   5.720
 7206WAT     H221861   0.474   3.049   5.565
 7207WAT      O21862   5.486   9.101   2.811
 7207WAT     H121863   5.459   9.157   2.889
 7207WAT     H221864   5.508   9.161   2.734
 7208WAT      O21865   3.609   9.081   4.486
 7208WAT     H121866   3.665   8.999   4.497
 7208WAT     H221867   3.666   9.162   4.493
 7209WAT      O21868   2.852   3.199   7.448
 7209WAT     H121869   2.899   3.234   7.367
 7209WAT     H221870   2.903   3.123   7.486
 7210WAT      O21871   8.930   5.665   3.359
 7210WAT     H121872   8.962   5.688   3.267
 7210WAT     H221873   8.836   5.698   3.370
 7211WAT      O21874   9.813   1.275   5.835
 7211WAT     H121875   9.816   1.374   5.848
 7211WAT     H221876   9.837   1.229   5.921
 7212WAT      O21877   4.004   3.365   8.225
 7212WAT     H121878   4.077   3.433   8.227
 7212WAT     H221879   3.999   3.318   8.313
 7213WAT      O21880   3.958   2.812   5.470
 7213WAT     H121881   3.924   2.872   5.542
 7213WAT     H221882   4.047   2.845   5.439
 7214WAT      O21883   9.173   9.833   8.779
 7214WAT     H121884   9.208   9.755   8.831
 7214WAT     H221885   9.116   9.800   8.703
 7215WAT      O21886   4.572   7.653   2.299
 7215WAT     H121887   4.588   7.557   2.320
 7215WAT     H221888   4.580   7.707   2.383
 7216WAT      O21889   3.130   1.313   4.278
 7216WAT     H121890   3.206   1.263   4.320
 7216WAT     H221891   3.088   1.256   4.208
 7217WAT      O21892   5.324   0.382   6.312
 7217WAT     H121893   5.263   0.392   6.233
 7217WAT     H221894   5.300   0.299   6.363
 7218WAT      O21895   9.680   5.314   4.565
 7218WAT     H121896   9.689   5.412   4.584
 7218WAT     H221897   9.718   5.262   4.641
 7219WAT      O21898   6.009   7.249   3.770
 7219WAT     H121899   6.065   7.169   3.789
 7219WAT     H221900   6.061   7.314   3.715
 7220WAT      O21901   3.231   5.272   3.923
 7220WAT     H121902   3.285   5.263   3.840
 7220WAT     H221903   3.288   5.309   3.997
 7221WAT      O21904   5.219   9.199   1.875
 7221WAT     H121905   5.290   9.129   1.869
 7221WAT     H221906   5.141   9.171   1.819
 7222WAT      O21907   2.009   3.410   8.672
 7222WAT     H121908   2.064   3.491   8.690
 7222WAT     H221909   2.065   3.328   8.684
 7223WAT      O21910   5.573   8.727   1.515
 7223WAT     H121911   5.492   8.781   1.492
 7223WAT     H221912   5.564   8.634   1.479
 7224WAT      O21913   9.245   2.531   9.649
 7224WAT     H121914   9.211   2.486   9.731
 7224WAT     H221915   9.345   2.537   9.654
 7225WAT      O21916   6.536   6.081   4.422
 7225WAT     H121917   6.474   6.021   4.472
 7225WAT     H221918   6.628   6.074   4.461
 7226WAT      O21919   7.109   9.021   5.355
 7226WAT     H121920   7.023   9.034   5.404
 7226WAT     H221921   7.161   9.106   5.355
 7227WAT      O21922   0.749   8.600   1.415
 7227WAT     H121923   0.751   8.505   1.384
 7227WAT     H221924   0.746   8.604   1.514
 7228WAT      O21925   2.388   8.776   7.514
 7228WAT     H121926   2.458   8.726   7.564
 7228WAT     H221927   2.410   8.775   7.416
 7229WAT      O21928   7.198   0.365   5.161
 7229WAT     H121929   7.181   0.418   5.079
 7229WAT     H221930   7.294   0.377   5.189
 7230WAT      O21931   8.904   3.482   8.931
 7230WAT     H121932   8.928   3.550   8.861
 7230WAT     H221933   8.970   3.407   8.928
 7231WAT      O21934   6.491   8.215   7.358
 7231WAT     H121935   6.407   8.242   7.312
 7231WAT     H221936   6.470   8.181   7.450
 7232WAT      O21937   8.361   6.862   7.810
 7232WAT     H121938   8.376   6.789   7.878
 7232WAT     H221939   8.285   6.837   7.751
 7233WAT      O21940   7.385   1.303   5.551
 7233WAT     H121941   7.325   1.279   5.475
 7233WAT     H221942   7.403   1.401   5.550
 7234WAT      O21943   7.593   3.512   8.657
 7234WAT     H121944   7.637   3.554   8.578
 7234WAT     H221945   7.555   3.583   8.716
 7235WAT      O21946   5.539   8.958   6.886
 7235WAT     H121947   5.624   8.948   6.937
 7235WAT     H221948   5.485   8.874   6.894
 7236WAT      O21949   0.975   9.344   4.816
 7236WAT     H121950   0.891   9.329   4.764
 7236WAT     H221951   1.045   9.383   4.755
 7237WAT      O21952   4.832   7.298   5.040
 7237WAT     H121953   4.775   7.216   5.028
 7237WAT     H221954   4.923   7.281   5.000
 7238WAT      O21955   9.755   1.829   2.588
 7238WAT     H121956   9.827   1.896   2.571
 7238WAT     H221957   9.787   1.762   2.654
 7239WAT      O21958   0.755   5.319   2.747
 7239WAT     H121959   0.834   5.358   2.794
 7239WAT     H221960   0.687   5.289   2.814
 7240WAT      O21961   7.194   4.767   1.913
 7240WAT     H121962   7.159   4.755   2.006
 7240WAT     H221963   7.124   4.738   1.847
 7241WAT      O21964   3.096   7.996   1.622
 7241WAT     H121965   3.143   8.063   1.680
 7241WAT     H221966   3.158   7.919   1.605
 7242WAT      O21967   2.025   5.741   2.704
 7242WAT     H121968   2.086   5.813   2.671
 7242WAT     H221969   2.014   5.672   2.632
 7243WAT      O21970   7.391   6.933   5.790
 7243WAT     H121971   7.389   6.889   5.880
 7243WAT     H221972   7.316   7.000   5.785
 7244WAT      O21973   5.658   4.378   3.837
 7244WAT     H121974   5.617   4.322   3.909
 7244WAT     H221975   5.755   4.356   3.827
 7245WAT      O21976   6.486   3.376   2.616
 7245WAT     H121977   6.556   3.408   2.680
 7245WAT     H221978   6.427   3.452   2.590
 7246WAT      O21979   9.632   9.302   9.808
 7246WAT     H121980   9.647   9.219   9.756
 7246WAT     H221981   9.579   9.367   9.753
 7247WAT      O21982   9.121   0.761   9.429
 7247WAT     H121983   9.132   0.672   9.473
 7247WAT     H221984   9.208   0.791   9.389
 7248WAT      O21985   1.542   0.770   8.358
 7248WAT     H121986   1.586   0.681   8.354
 7248WAT     H221987   1.501   0.784   8.448
 7249WAT      O21988   9.487   3.975   6.788
 7249WAT     H121989   9.400   3.973   6.739
 7249WAT     H221990   9.558   4.010   6.727
 7250WAT      O21991   3.956   0.489   7.668
 7250WAT     H121992   3.955   0.411   7.606
 7250WAT     H221993   3.987   0.459   7.758
 7251WAT      O21994   3.637   4.269   8.167
 7251WAT     H121995   3.668   4.175   8.181
 7251WAT     H221996   3.695   4.331   8.219
 7252WAT      O21997   3.914   9.453   9.757
 7252WAT     H121998   4.002   9.438   9.712
 7252WAT     H221999   3.928   9.453   9.856
 7253WAT      O22000   3.619   0.948   5.865
 7253WAT     H122001   3.533   0.905   5.839
 7253WAT     H222002   3.647   0.916   5.955
 7254WAT      O22003   9.476   3.881   9.132
 7254WAT     H122004   9.383   3.860   9.101
 7254WAT     H222005   9.531   3.797   9.131
 7255WAT      O22006   4.820   1.440   2.051
 7255WAT     H122007   4.846   1.523   2.002
 7255WAT     H222008   4.726   1.448   2.083
 7256WAT      O22009   0.926   2.873   6.186
 7256WAT     H122010   0.960   2.892   6.093
 7256WAT     H222011   0.995   2.822   6.237
 7257WAT      O22012   7.889   8.884   4.677
 7257WAT     H122013   7.858   8.961   4.621
 7257WAT     H222014   7.989   8.885   4.681
 7258WAT      O22015   0.181   4.447   0.526
 7258WAT     H122016   0.222   4.366   0.486
 7258WAT     H222017   0.122   4.492   0.459
 7259WAT      O22018   8.075   0.964   5.624
 7259WAT     H122019   8.046   0.943   5.717
 7259WAT     H222020   8.003   0.937   5.560
 7260WAT      O22021   2.319   4.033   2.670
 7260WAT     H122022   2.237   3.982   2.641
 7260WAT     H222023   2.311   4.056   2.767
 7261WAT      O22024   9.091   5.890   5.725
 7261WAT     H122025   9.088   5.878   5.626
 7261WAT     H222026   9.141   5.974   5.746
 7262WAT      O22027   5.360   2.316   4.084
 7262WAT     H122028   5.277   2.266   4.057
 7262WAT     H222029   5.419   2.256   4.137
 7263WAT      O22030   8.673   0.897   4.059
 7263WAT     H122031   8.593   0.956   4.068
 7263WAT     H222032   8.645   0.801   4.064
 7264WAT      O22033   4.283   1.554   4.439
 7264WAT     H122034   4.190   1.587   4.455
 7264WAT     H222035   4.296   1.538   4.341
 7265WAT      O22036   7.442   6.302   4.750
 7265WAT     H122037   7.346   6.330   4.744
 7265WAT     H222038   7.448   6.202   4.744
 7266WAT      O22039   4.019   9.483   7.014
 7266WAT     H122040   4.054   9.573   7.039
 7266WAT     H222041   4.066   9.412   7.066
 7267WAT      O22042   5.445   8.797   6.202
 7267WAT     H122043   5.399   8.833   6.120
 7267WAT     H222044   5.408   8.841   6.283
 7268WAT      O22045   2.183   8.975   3.466
 7268WAT     H122046   2.227   9.053   3.511
 7268WAT     H222047   2.139   8.917   3.535
 7269WAT      O22048   5.255   4.973   3.380
 7269WAT     H122049   5.281   4.877   3.375
 7269WAT     H222050   5.321   5.023   3.436
 7270WAT      O22051   1.227   0.315   1.031
 7270WAT     H122052   1.277   0.234   1.060
 7270WAT     H222053   1.146   0.286   0.979
 7271WAT      O22054   3.022   8.258   3.622
 7271WAT     H122055   3.066   8.317   3.554
 7271WAT     H222056   2.926   8.245   3.598
 7272WAT      O22057   0.929   9.214   5.050
 7272WAT     H122058   1.018   9.208   5.095
 7272WAT     H222059   0.939   9.259   4.962
 7273WAT      O22060   5.385   0.440   9.097
 7273WAT     H122061   5.347   0.531   9.113
 7273WAT     H222062   5.401   0.394   9.184
 7274WAT      O22063   6.856   8.131   2.034
 7274WAT     H122064   6.765   8.111   1.997
 7274WAT     H222065   6.922   8.068   1.995
 7275WAT      O22066   4.645   9.466   5.419
 7275WAT     H122067   4.711   9.460   5.344
 7275WAT     H222068   4.643   9.379   5.469
 7276WAT      O22069   6.481   6.816   0.853
 7276WAT     H122070   6.553   6.777   0.910
 7276WAT     H222071   6.470   6.913   0.875
 7277WAT      O22072   8.705   3.852   0.323
 7277WAT     H122073   8.646   3.793   0.378
 7277WAT     H222074   8.663   3.868   0.234
 7278WAT      O22075   8.800   6.649   3.681
 7278WAT     H122076   8.898   6.661   3.662
 7278WAT     H222077   8.755   6.614   3.599
 7279WAT      O22078   4.435   0.347   7.413
 7279WAT     H122079   4.532   0.328   7.428
 7279WAT     H222080   4.383   0.323   7.495
 7280WAT      O22081   8.603   1.180   2.043
 7280WAT     H122082   8.650   1.129   2.115
 7280WAT     H222083   8.671   1.226   1.985
 7281WAT      O22084   6.645   4.847   7.359
 7281WAT     H122085   6.711   4.777   7.334
 7281WAT     H222086   6.638   4.914   7.285
 7282WAT      O22087   9.351   5.756   4.383
 7282WAT     H122088   9.432   5.809   4.360
 7282WAT     H222089   9.352   5.670   4.333
 7283WAT      O22090   1.675   7.257   6.886
 7283WAT     H122091   1.595   7.252   6.945
 7283WAT     H222092   1.740   7.323   6.924
 7284WAT      O22093   4.667   1.731   7.028
 7284WAT     H122094   4.643   1.803   7.093
 7284WAT     H222095   4.766   1.715   7.031
 7285WAT      O22096   6.559   8.403   0.271
 7285WAT     H122097   6.555   8.360   0.181
 7285WAT     H222098   6.516   8.494   0.266
 7286WAT      O22099   2.832   9.646   2.394
 7286WAT     H122100   2.817   9.702   2.475
 7286WAT     H222101   2.746   9.603   2.366
 7287WAT      O22102   9.197   2.191   9.416
 7287WAT     H122103   9.232   2.098   9.408
 7287WAT     H222104   9.138   2.197   9.497
 7288WAT      O22105   1.813   1.266   3.317
 7288WAT     H122106   1.828   1.273   3.416
 7288WAT     H222107   1.805   1.358   3.278
 7289WAT      O22108   2.781   6.755   7.398
 7289WAT     H122109   2.774   6.666   7.353
 7289WAT     H222110   2.783   6.742   7.497
 7290WAT      O22111   6.993   4.972   7.770
 7290WAT     H122112   6.899   4.940   7.770
 7290WAT     H222113   7.042   4.933   7.692
 7291WAT      O22114   0.382   0.640   8.940
 7291WAT     H122115   0.348   0.709   8.876
 7291WAT     H222116   0.307   0.610   8.999
 7292WAT      O22117   6.886   7.325   9.556
 7292WAT     H122118   6.825   7.363   9.485
 7292WAT     H222119   6.957   7.392   9.577
 7293WAT      O22120   1.537   6.790   4.460
 7293WAT     H122121   1.560   6.802   4.364
 7293WAT     H222122   1.615   6.753   4.509
 7294WAT      O22123   0.399   9.229   0.032
 7294WAT     H122124   0.366   9.146   0.077
 7294WAT     H222125   0.346   9.307   0.064
 7295WAT      O22126   5.472   4.318   1.491
 7295WAT     H122127   5.390   4.363   1.525
 7295WAT     H222128   5.542   4.387   1.472
 7296WAT      O22129   9.772   3.628   2.599
 7296WAT     H122130   9.777   3.660   2.504
 7296WAT     H222131   9.850   3.665   2.651
 7297WAT      O22132   0.571   9.089   2.719
 7297WAT     H122133   0.569   9.147   2.800
 7297WAT     H222134   0.486   9.100   2.668
 7298WAT      O22135   4.450   6.661   0.851
 7298WAT     H122136   4.527   6.615   0.895
 7298WAT     H222137   4.395   6.594   0.802
 7299WAT      O22138   0.450   5.033   1.204
 7299WAT     H122139   0.364   4.984   1.211
 7299WAT     H222140   0.523   4.980   1.248
 7300WAT      O22141   7.195   6.195   1.849
 7300WAT     H122142   7.115   6.231   1.801
 7300WAT     H222143   7.169   6.171   1.942
 7301WAT      O22144   2.906   7.993   3.023
 7301WAT     H122145   2.957   7.908   3.014
 7301WAT     H222146   2.829   7.993   2.959
 7302WAT      O22147   9.669   6.536   6.649
 7302WAT     H122148   9.654   6.599   6.573
 7302WAT     H222149   9.675   6.442   6.616
 7303WAT      O22150   0.762   7.234   0.557
 7303WAT     H122151   0.768   7.241   0.458
 7303WAT     H222152   0.666   7.242   0.586
 7304WAT      O22153   0.027   6.894   9.695
 7304WAT     H122154   0.032   6.909   9.794
 7304WAT     H222155  -0.064   6.859   9.672
 7305WAT      O22156   8.321   1.280   1.288
 7305WAT     H122157   8.407   1.233   1.308
 7305WAT     H222158   8.334   1.379   1.297
 7306WAT      O22159   2.479   4.600   0.408
 7306WAT     H122160   2.525   4.577   0.323
 7306WAT     H222161   2.545   4.640   0.472
 7307WAT      O22162   9.581   2.665   7.941
 7307WAT     H122163   9.539   2.714   8.018
 7307WAT     H222164   9.662   2.716   7.910
 7308WAT      O22165   4.618   1.340   2.681
 7308WAT     H122166   4.553   1.363   2.754
 7308WAT     H222167   4.677   1.265   2.711
 7309WAT      O22168   9.102   6.214   6.345
 7309WAT     H122169   9.098   6.250   6.439
 7309WAT     H222170   9.015   6.231   6.300
 7310WAT      O22171   2.642   5.466   2.748
 7310WAT     H122172   2.738   5.464   2.776
 7310WAT     H222173   2.615   5.378   2.710
 7311WAT      O22174   1.824   1.392   9.879
 7311WAT     H122175   1.763   1.471   9.890
 7311WAT     H222176   1.773   1.308   9.894
 7312WAT      O22177   9.074   8.278   8.729
 7312WAT     H122178   9.131   8.259   8.649
 7312WAT     H222179   9.109   8.227   8.807
 7313WAT      O22180   3.519   2.444   5.956
 7313WAT     H122181   3.522   2.345   5.973
 7313WAT     H222182   3.601   2.487   5.994
 7314WAT      O22183   1.342   0.176   8.094
 7314WAT     H122184   1.306   0.119   8.167
 7314WAT     H222185   1.300   0.267   8.098
 7315WAT      O22186   1.260   3.452   8.510
 7315WAT     H122187   1.313   3.491   8.585
 7315WAT     H222188   1.191   3.389   8.546
 7316WAT      O22189   6.416   3.616   3.224
 7316WAT     H122190   6.351   3.635   3.298
 7316WAT     H222191   6.457   3.701   3.193
 7317WAT      O22192   7.189   2.107   9.589
 7317WAT     H122193   7.104   2.110   9.535
 7317WAT     H222194   7.188   2.026   9.647
 7318WAT      O22195   5.264   8.924   0.051
 7318WAT     H122196   5.188   8.931   0.115
 7318WAT     H222197   5.265   9.004  -0.008
 7319WAT      O22198   2.929   0.498   5.640
 7319WAT     H122199   2.938   0.458   5.731
 7319WAT     H222200   2.893   0.591   5.648
 7320WAT      O22201   5.672   7.155   0.006
 7320WAT     H122202   5.767   7.181  -0.014
 7320WAT     H222203   5.650   7.071  -0.042
 7321WAT      O22204   7.951   1.116   3.201
 7321WAT     H122205   7.988   1.025   3.219
 7321WAT     H222206   8.021   1.171   3.155
 7322WAT      O22207   3.677   1.592   1.212
 7322WAT     H122208   3.759   1.650   1.217
 7322WAT     H222209   3.634   1.602   1.122
 7323WAT      O22210   1.553   7.877   3.612
 7323WAT     H122211   1.630   7.817   3.591
 7323WAT     H222212   1.538   7.880   3.711
 7324WAT      O22213   0.556   8.302   9.667
 7324WAT     H122214   0.526   8.305   9.571
 7324WAT     H222215   0.656   8.302   9.670
 7325WAT      O22216   5.750   7.060   3.665
 7325WAT     H122217   5.758   6.999   3.744
 7325WAT     H222218   5.839   7.102   3.646
 7326WAT      O22219   9.846   7.138   3.200
 7326WAT     H122220   9.913   7.065   3.210
 7326WAT     H222221   9.807   7.160   3.290
 7327WAT      O22222   5.957   0.071   7.632
 7327WAT     H122223   6.050   0.034   7.638
 7327WAT     H222224   5.956   0.145   7.564
 7328WAT      O22225   0.575   5.521   3.776
 7328WAT     H122226   0.491   5.575   3.763
 7328WAT     H222227   0.559   5.450   3.844
 7329WAT      O22228   3.864   4.744   6.511
 7329WAT     H122229   3.842   4.838   6.537
 7329WAT     H222230   3.790   4.706   6.456
 7330WAT      O22231   1.764   9.263   1.200
 7330WAT     H122232   1.818   9.301   1.274
 7330WAT     H222233   1.801   9.174   1.173
 7331WAT      O22234   1.372   4.258   4.976
 7331WAT     H122235   1.460   4.241   4.930
 7331WAT     H222236   1.373   4.350   5.016
 7332WAT      O22237   8.705   1.312   3.679
 7332WAT     H122238   8.643   1.303   3.601
 7332WAT     H222239   8.753   1.400   3.674
 7333WAT      O22240   3.304   1.533   8.840
 7333WAT     H122241   3.348   1.471   8.774
 7333WAT     H222242   3.310   1.627   8.806
 7334WAT      O22243   3.384   6.452   0.184
 7334WAT     H122244   3.406   6.549   0.193
 7334WAT     H222245   3.286   6.441   0.173
 7335WAT      O22246   4.104   2.331   5.835
 7335WAT     H122247   4.110   2.234   5.814
 7335WAT     H222248   4.126   2.385   5.754
 7336WAT      O22249   1.399   2.513   3.781
 7336WAT     H122250   1.462   2.557   3.716
 7336WAT     H222251   1.362   2.582   3.843
 7337WAT      O22252   9.203   1.146   9.387
 7337WAT     H122253   9.251   1.233   9.398
 7337WAT     H222254   9.148   1.128   9.468
 7338WAT      O22255   8.000   6.284   8.426
 7338WAT     H122256   8.024   6.360   8.487
 7338WAT     H222257   8.036   6.198   8.463
 7339WAT      O22258   6.516   7.201   7.693
 7339WAT     H122259   6.444   7.240   7.635
 7339WAT     H222260   6.480   7.122   7.742
 7340WAT      O22261   6.805   8.740   1.861
 7340WAT     H122262   6.752   8.657   1.841
 7340WAT     H222263   6.828   8.787   1.776
 7341WAT      O22264   8.055   6.066   4.110
 7341WAT     H122265   8.057   5.966   4.104
 7341WAT     H222266   8.124   6.104   4.049
 7342WAT      O22267   5.581   2.336   0.754
 7342WAT     H122268   5.592   2.411   0.689
 7342WAT     H222269   5.487   2.333   0.787
 7343WAT      O22270   0.522   8.758   2.903
 7343WAT     H122271   0.611   8.796   2.928
 7343WAT     H222272   0.451   8.800   2.959
 7344WAT      O22273   8.561   0.106   2.973
 7344WAT     H122274   8.536   0.112   3.070
 7344WAT     H222275   8.499   0.042   2.927
 7345WAT      O22276   7.935   6.003   0.383
 7345WAT     H122277   7.984   5.929   0.337
 7345WAT     H222278   7.837   5.994   0.364
 7346WAT      O22279   1.198   5.672   6.660
 7346WAT     H122280   1.158   5.629   6.579
 7346WAT     H222281   1.149   5.642   6.742
 7347WAT      O22282   6.200   0.744   3.150
 7347WAT     H122283   6.294   0.777   3.157
 7347WAT     H222284   6.184   0.675   3.221
 7348WAT      O22285   4.140   6.458   7.837
 7348WAT     H122286   4.213   6.417   7.891
 7348WAT     H222287   4.073   6.501   7.897
 7349WAT      O22288   4.764   5.172   7.279
 7349WAT     H122289   4.687   5.203   7.335
 7349WAT     H222290   4.809   5.251   7.238
 7350WAT      O22291   0.390   7.283   9.638
 7350WAT     H122292   0.395   7.287   9.738
 7350WAT     H222293   0.303   7.321   9.607
 7351WAT      O22294   4.322   8.976   0.251
 7351WAT     H122295   4.376   8.916   0.192
 7351WAT     H222296   4.353   8.967   0.345
 7352WAT      O22297   7.464   6.244   4.379
 7352WAT     H122298   7.384   6.302   4.365
 7352WAT     H222299   7.457   6.163   4.320
 7353WAT      O22300   4.213   4.258   1.636
 7353WAT     H122301   4.220   4.328   1.707
 7353WAT     H222302   4.302   4.213   1.625
 7354WAT      O22303   6.919   0.871   4.047
 7354WAT     H122304   6.909   0.896   4.143
 7354WAT     H222305   6.849   0.803   4.024
 7355WAT      O22306   0.326   3.983   4.023
 7355WAT     H122307   0.321   3.988   3.924
 7355WAT     H222308   0.416   3.950   4.051
 7356WAT      O22309   8.779   4.575   6.850
 7356WAT     H122310   8.850   4.531   6.905
 7356WAT     H222311   8.742   4.509   6.784
 7357WAT      O22312   3.774   2.267   5.167
 7357WAT     H122313   3.743   2.362   5.171
 7357WAT     H222314   3.834   2.255   5.088
 7358WAT      O22315   5.668   3.343   1.405
 7358WAT     H122316   5.618   3.375   1.324
 7358WAT     H222317   5.603   3.305   1.471
 7359WAT      O22318   9.464   5.703   1.832
 7359WAT     H122319   9.423   5.738   1.747
 7359WAT     H222320   9.425   5.614   1.853
 7360WAT      O22321   2.176   2.712   8.501
 7360WAT     H122322   2.221   2.799   8.477
 7360WAT     H222323   2.125   2.678   8.422
 7361WAT      O22324   8.220   0.417   0.046
 7361WAT     H122325   8.222   0.503   0.098
 7361WAT     H222326   8.130   0.406   0.004
 7362WAT      O22327   9.229   3.261   1.403
 7362WAT     H122328   9.316   3.252   1.452
 7362WAT     H222329   9.198   3.171   1.374
 7363WAT      O22330   0.980   8.607   4.985
 7363WAT     H122331   1.058   8.631   4.927
 7363WAT     H222332   0.915   8.684   4.986
 7364WAT      O22333   4.772   4.913   6.247
 7364WAT     H122334   4.816   4.999   6.222
 7364WAT     H222335   4.770   4.905   6.347
 7365WAT      O22336   3.169   0.279   5.705
 7365WAT     H122337   3.125   0.324   5.783
 7365WAT     H222338   3.103   0.218   5.661
 7366WAT      O22339   5.999   7.732   6.508
 7366WAT     H122340   6.005   7.829   6.485
 7366WAT     H222341   5.903   7.704   6.509
 7367WAT      O22342   5.592   6.944   9.770
 7367WAT     H122343   5.516   6.889   9.804
 7367WAT     H222344   5.581   6.959   9.672
 7368WAT      O22345   4.814   0.219   0.658
 7368WAT     H122346   4.868   0.180   0.584
 7368WAT     H222347   4.771   0.146   0.711
 7369WAT      O22348   0.947   3.304   1.134
 7369WAT     H122349   1.026   3.246   1.152
 7369WAT     H222350   0.908   3.282   1.045
 7370WAT      O22351   4.042   0.945   1.064
 7370WAT     H122352   4.117   0.994   1.018
 7370WAT     H222353   4.070   0.850   1.080
 7371WAT      O22354   2.767   0.589   0.728
 7371WAT     H122355   2.814   0.522   0.785
 7371WAT     H222356   2.802   0.585   0.635
 7372WAT      O22357   3.569   4.676   5.304
 7372WAT     H122358   3.618   4.702   5.388
 7372WAT     H222359   3.635   4.649   5.234
 7373WAT      O22360   7.544   1.466   9.885
 7373WAT     H122361   7.549   1.369   9.909
 7373WAT     H222362   7.478   1.512   9.945
 7374WAT      O22363   6.320   5.228   6.387
 7374WAT     H122364   6.237   5.275   6.417
 7374WAT     H222365   6.326   5.231   6.287
 7375WAT      O22366   4.344   1.606   9.004
 7375WAT     H122367   4.388   1.667   9.070
 7375WAT     H222368   4.277   1.658   8.950
 7376WAT      O22369   8.523   2.462   3.019
 7376WAT     H122370   8.473   2.512   3.090
 7376WAT     H222371   8.589   2.401   3.063
 7377WAT      O22372   7.572   4.197   0.122
 7377WAT     H122373   7.493   4.153   0.165
 7377WAT     H222374   7.567   4.296   0.138
 7378WAT      O22375   3.161   9.523   1.376
 7378WAT     H122376   3.105   9.604   1.360
 7378WAT     H222377   3.102   9.444   1.396
 7379WAT      O22378   3.573   7.241   4.104
 7379WAT     H122379   3.672   7.232   4.093
 7379WAT     H222380   3.534   7.288   4.025
 7380WAT      O22381   1.524   7.496   2.427
 7380WAT     H122382   1.600   7.482   2.363
 7380WAT     H222383   1.502   7.410   2.473
 7381WAT      O22384   7.508   1.845   6.130
 7381WAT     H122385   7.454   1.766   6.100
 7381WAT     H222386   7.544   1.828   6.221
 7382WAT      O22387   3.524   6.251   7.370
 7382WAT     H122388   3.513   6.319   7.298
 7382WAT     H222389   3.588   6.181   7.339
 7383WAT      O22390   0.118   3.936   5.012
 7383WAT     H122391   0.142   3.883   4.931
 7383WAT     H222392   0.166   4.024   5.009
 7384WAT      O22393   9.495   1.081   9.555
 7384WAT     H122394   9.529   0.999   9.602
 7384WAT     H222395   9.398   1.092   9.576
 7385WAT      O22396   8.633   7.594   6.615
 7385WAT     H122397   8.627   7.495   6.627
 7385WAT     H222398   8.621   7.639   6.704
 7386WAT      O22399   4.302   5.817   6.790
 7386WAT     H122400   4.318   5.737   6.847
 7386WAT     H222401   4.348   5.897   6.831
 7387WAT      O22402   5.277   8.578   5.931
 7387WAT     H122403   5.283   8.517   5.851
 7387WAT     H222404   5.204   8.644   5.917
 7388WAT      O22405   2.229   6.555   6.044
 7388WAT     H122406   2.240   6.470   5.992
 7388WAT     H222407   2.307   6.566   6.105
 7389WAT      O22408   3.829   5.005   1.307
 7389WAT     H122409   3.850   5.063   1.386
 7389WAT     H222410   3.746   4.952   1.326
 7390WAT      O22411   2.836   2.820   6.766
 7390WAT     H122412   2.766   2.880   6.728
 7390WAT     H222413   2.798   2.728   6.778
 7391WAT      O22414   5.691   7.261   6.594
 7391WAT     H122415   5.747   7.227   6.669
 7391WAT     H222416   5.651   7.349   6.618
 7392WAT      O22417   1.787   2.437   9.875
 7392WAT     H122418   1.760   2.493   9.953
 7392WAT     H222419   1.726   2.456   9.798
 7393WAT      O22420   0.978   5.096   1.788
 7393WAT     H122421   1.015   5.095   1.881
 7393WAT     H222422   1.050   5.119   1.723
 7394WAT      O22423   4.562   7.347   4.669
 7394WAT     H122424   4.481   7.337   4.613
 7394WAT     H222425   4.639   7.376   4.612
 7395WAT      O22426   5.717   6.237   4.059
 7395WAT     H122427   5.641   6.229   3.995
 7395WAT     H222428   5.684   6.225   4.152
 7396WAT      O22429   7.316   6.241   3.408
 7396WAT     H122430   7.254   6.317   3.424
 7396WAT     H222431   7.351   6.207   3.496
 7397WAT      O22432   0.194   1.607   6.472
 7397WAT     H122433   0.194   1.526   6.530
 7397WAT     H222434   0.266   1.600   6.404
 7398WAT      O22435   1.603   1.079   3.187
 7398WAT     H122436   1.622   1.049   3.094
 7398WAT     H222437   1.654   1.163   3.206
 7399WAT      O22438   5.799   2.347   1.582
 7399WAT     H122439   5.812   2.290   1.501
 7399WAT     H222440   5.716   2.318   1.631
 7400WAT      O22441   4.606   3.185   3.638
 7400WAT     H122442   4.632   3.142   3.724
 7400WAT     H222443   4.547   3.124   3.586
 7401WAT      O22444   7.832   1.124   2.061
 7401WAT     H122445   7.851   1.051   2.127
 7401WAT     H222446   7.752   1.175   2.089
 7402WAT      O22447   0.729   2.306   4.004
 7402WAT     H122448   0.794   2.285   4.077
 7402WAT     H222449   0.756   2.391   3.959
 7403WAT      O22450   6.992   9.358   8.675
 7403WAT     H122451   7.005   9.435   8.612
 7403WAT     H222452   7.074   9.349   8.732
 7404WAT      O22453   7.417   0.686   1.627
 7404WAT     H122454   7.378   0.613   1.571
 7404WAT     H222455   7.385   0.676   1.721
 7405WAT      O22456   2.807   2.292   7.982
 7405WAT     H122457   2.756   2.286   8.068
 7405WAT     H222458   2.835   2.200   7.954
 7406WAT      O22459   6.962   6.376   7.896
 7406WAT     H122460   6.868   6.408   7.908
 7406WAT     H222461   7.014   6.445   7.845
 7407WAT      O22462   6.339   1.935   2.669
 7407WAT     H122463   6.398   1.855   2.664
 7407WAT     H222464   6.377   2.008   2.613
 7408WAT      O22465   3.292   9.001   4.916
 7408WAT     H122466   3.325   8.984   4.823
 7408WAT     H222467   3.274   8.914   4.962
 7409WAT      O22468   3.759   4.114   4.276
 7409WAT     H122469   3.781   4.128   4.373
 7409WAT     H222470   3.827   4.160   4.219
 7410WAT      O22471   2.387   0.732   4.058
 7410WAT     H122472   2.452   0.807   4.068
 7410WAT     H222473   2.334   0.746   3.974
 7411WAT      O22474   4.366   4.729   5.479
 7411WAT     H122475   4.310   4.808   5.456
 7411WAT     H222476   4.309   4.647   5.485
 7412WAT      O22477   0.308   0.657   1.681
 7412WAT     H122478   0.281   0.751   1.660
 7412WAT     H222479   0.228   0.598   1.683
 7413WAT      O22480   7.863   0.655   9.660
 7413WAT     H122481   7.833   0.678   9.568
 7413WAT     H222482   7.928   0.725   9.692
 7414WAT      O22483   6.202   7.535   8.327
 7414WAT     H122484   6.140   7.461   8.300
 7414WAT     H222485   6.229   7.523   8.422
 7415WAT      O22486   0.162   2.085   1.093
 7415WAT     H122487   0.140   1.987   1.096
 7415WAT     H222488   0.107   2.134   1.160
 7416WAT      O22489   2.422   7.621   2.133
 7416WAT     H122490   2.411   7.586   2.226
 7416WAT     H222491   2.356   7.578   2.072
 7417WAT      O22492   0.548   6.061   9.243
 7417WAT     H122493   0.508   5.991   9.183
 7417WAT     H222494   0.526   6.039   9.338
 7418WAT      O22495   3.536   1.108   7.456
 7418WAT     H122496   3.595   1.186   7.478
 7418WAT     H222497   3.478   1.087   7.534
 7419WAT      O22498   0.406   7.857   1.386
 7419WAT     H122499   0.488   7.830   1.436
 7419WAT     H222500   0.418   7.837   1.288
 7420WAT      O22501   5.531   2.954   6.565
 7420WAT     H122502   5.448   3.005   6.543
 7420WAT     H222503   5.508   2.857   6.577
 7421WAT      O22504   7.913   8.984   9.827
 7421WAT     H122505   7.853   8.946   9.755
 7421WAT     H222506   7.998   8.932   9.830
 7422WAT      O22507   9.491   6.900   4.374
 7422WAT     H122508   9.566   6.841   4.345
 7422WAT     H222509   9.515   6.996   4.357
 7423WAT      O22510   1.035   9.332   9.279
 7423WAT     H122511   1.061   9.312   9.374
 7423WAT     H222512   1.005   9.248   9.235
 7424WAT      O22513   1.080   6.337   0.306
 7424WAT     H122514   1.120   6.391   0.380
 7424WAT     H222515   1.153   6.301   0.248
 7425WAT      O22516   0.993   8.959   4.922
 7425WAT     H122517   0.996   8.966   4.822
 7425WAT     H222518   0.946   9.038   4.960
 7426WAT      O22519   6.063   7.404   1.520
 7426WAT     H122520   6.018   7.488   1.551
 7426WAT     H222521   6.049   7.332   1.588
 7427WAT      O22522   1.295   7.493   9.172
 7427WAT     H122523   1.352   7.471   9.252
 7427WAT     H222524   1.217   7.548   9.201
 7428WAT      O22525   3.093   8.316   1.382
 7428WAT     H122526   3.172   8.263   1.352
 7428WAT     H222527   3.119   8.412   1.391
 7429WAT      O22528   6.962   6.572   7.020
 7429WAT     H122529   6.910   6.545   6.939
 7429WAT     H222530   6.914   6.647   7.067
 7430WAT      O22531   9.104   8.994   2.443
 7430WAT     H122532   9.010   8.972   2.469
 7430WAT     H222533   9.167   8.935   2.494
 7431WAT      O22534   9.473   0.308   4.821
 7431WAT     H122535   9.520   0.221   4.805
 7431WAT     H222536   9.530   0.383   4.786
 7432WAT      O22537   8.415   0.910   3.832
 7432WAT     H122538   8.413   0.943   3.926
 7432WAT     H222539   8.404   0.987   3.769
 7433WAT      O22540   2.848   3.489   6.720
 7433WAT     H122541   2.773   3.484   6.786
 7433WAT     H222542   2.858   3.583   6.688
 7434WAT      O22543   5.073   1.862   8.061
 7434WAT     H122544   5.170   1.879   8.076
 7434WAT     H222545   5.061   1.771   8.019
 7435WAT      O22546   4.051   0.462   7.934
 7435WAT     H122547   4.012   0.374   7.964
 7435WAT     H222548   4.023   0.533   7.998
 7436WAT      O22549   7.515   1.924   0.736
 7436WAT     H122550   7.498   2.007   0.682
 7436WAT     H222551   7.597   1.937   0.792
 7437WAT      O22552   9.384   9.490   9.136
 7437WAT     H122553   9.477   9.527   9.136
 7437WAT     H222554   9.382   9.405   9.082
 7438WAT      O22555   6.974   5.957   1.796
 7438WAT     H122556   6.924   5.955   1.882
 7438WAT     H222557   7.022   6.044   1.787
 7439WAT      O22558   2.872   9.048   7.477
 7439WAT     H122559   2.879   9.012   7.571
 7439WAT     H222560   2.776   9.044   7.447
 7440WAT      O22561   1.838   7.434   9.327
 7440WAT     H122562   1.787   7.393   9.252
 7440WAT     H222563   1.823   7.533   9.328
 7441WAT      O22564   7.032   6.628   1.911
 7441WAT     H122565   6.993   6.539   1.937
 7441WAT     H222566   7.031   6.689   1.990
 7442WAT      O22567   8.253   0.466   6.356
 7442WAT     H122568   8.256   0.547   6.415
 7442WAT     H222569   8.328   0.470   6.291
 7443WAT      O22570   1.356   0.432   6.543
 7443WAT     H122571   1.265   0.395   6.524
 7443WAT     H222572   1.423   0.387   6.484
 7444WAT      O22573   2.983   6.816   9.794
 7444WAT     H122574   2.892   6.783   9.770
 7444WAT     H222575   3.042   6.737   9.814
 7445WAT      O22576   5.964   9.256   8.071
 7445WAT     H122577   6.052   9.302   8.080
 7445WAT     H222578   5.960   9.206   7.985
 7446WAT      O22579   7.687   0.831   7.112
 7446WAT     H122580   7.686   0.742   7.066
 7446WAT     H222581   7.615   0.835   7.180
 7447WAT      O22582   7.693   4.949   4.018
 7447WAT     H122583   7.601   4.913   4.033
 7447WAT     H222584   7.749   4.881   3.970
 7448WAT      O22585   7.973   8.988   9.274
 7448WAT     H122586   8.011   9.057   9.337
 7448WAT     H222587   7.919   9.034   9.203
 7449WAT      O22588   4.798   4.005   6.183
 7449WAT     H122589   4.813   3.949   6.264
 7449WAT     H222590   4.866   3.982   6.113
 7450WAT      O22591   2.161   9.083   6.338
 7450WAT     H122592   2.123   9.140   6.410
 7450WAT     H222593   2.190   8.995   6.376
 7451WAT      O22594   2.006   1.088   5.718
 7451WAT     H122595   1.968   1.161   5.661
 7451WAT     H222596   1.962   1.001   5.694
 7452WAT      O22597   6.333   6.942   3.387
 7452WAT     H122598   6.392   6.865   3.362
 7452WAT     H222599   6.279   6.970   3.307
 7453WAT      O22600   7.372   9.203   7.570
 7453WAT     H122601   7.365   9.272   7.641
 7453WAT     H222602   7.334   9.117   7.604
 7454WAT      O22603   8.133   8.699   6.395
 7454WAT     H122604   8.210   8.639   6.417
 7454WAT     H222605   8.088   8.727   6.480
 7455WAT      O22606   0.459   2.738   1.502
 7455WAT     H122607   0.548   2.722   1.459
 7455WAT     H222608   0.472   2.772   1.595
 7456WAT      O22609   6.149   2.105   3.344
 7456WAT     H122610   6.115   2.187   3.389
 7456WAT     H222611   6.242   2.120   3.312
 7457WAT      O22612   7.708   8.526   2.956
 7457WAT     H122613   7.749   8.442   2.993
 7457WAT     H222614   7.617   8.505   2.920
 7458WAT      O22615   8.330   4.401   7.061
 7458WAT     H122616   8.310   4.320   7.005
 7458WAT     H222617   8.282   4.395   7.148
 7459WAT      O22618   6.958   8.427   5.145
 7459WAT     H122619   6.951   8.327   5.145
 7459WAT     H222620   7.054   8.454   5.147
 7460WAT      O22621   3.701   4.262   7.146
 7460WAT     H122622   3.772   4.313   7.098
 7460WAT     H222623   3.721   4.262   7.244
 7461WAT      O22624   9.115   8.939   6.739
 7461WAT     H122625   9.152   8.979   6.655
 7461WAT     H222626   9.027   8.896   6.721
 7462WAT      O22627   7.344   7.864   2.942
 7462WAT     H122628   7.409   7.901   3.009
 7462WAT     H222629   7.275   7.933   2.923
 7463WAT      O22630   2.490   2.693   6.781
 7463WAT     H122631   2.460   2.669   6.689
 7463WAT     H222632   2.571   2.640   6.805
 7464WAT      O22633   3.987   1.555   6.700
 7464WAT     H122634   3.985   1.458   6.725
 7464WAT     H222635   3.952   1.565   6.607
 7465WAT      O22636   1.843   0.806   6.278
 7465WAT     H122637   1.821   0.729   6.218
 7465WAT     H222638   1.903   0.870   6.230
 7466WAT      O22639   3.361   1.528   0.518
 7466WAT     H122640   3.284   1.581   0.552
 7466WAT     H222641   3.333   1.432   0.508
 7467WAT      O22642   8.522   1.620   8.199
 7467WAT     H122643   8.618   1.632   8.172
 7467WAT     H222644   8.479   1.710   8.209
 7468WAT      O22645   3.021   4.607   1.827
 7468WAT     H122646   3.049   4.561   1.911
 7468WAT     H222647   3.047   4.551   1.748
 7469WAT      O22648   0.989   2.529   1.339
 7469WAT     H122649   0.994   2.430   1.349
 7469WAT     H222650   1.079   2.569   1.354
 7470WAT      O22651   7.468   9.836   6.558
 7470WAT     H122652   7.477   9.848   6.459
 7470WAT     H222653   7.385   9.786   6.579
 7471WAT      O22654   4.656   5.257   1.532
 7471WAT     H122655   4.745   5.294   1.505
 7471WAT     H222656   4.585   5.290   1.469
 7472WAT      O22657   0.568   3.300   9.447
 7472WAT     H122658   0.478   3.313   9.488
 7472WAT     H222659   0.601   3.387   9.411
 7473WAT      O22660   5.686   6.370   3.782
 7473WAT     H122661   5.755   6.437   3.755
 7473WAT     H222662   5.600   6.390   3.736
 7474WAT      O22663   2.296   1.695   7.168
 7474WAT     H122664   2.279   1.635   7.089
 7474WAT     H222665   2.245   1.662   7.247
 7475WAT      O22666   2.807   2.840   9.539
 7475WAT     H122667   2.729   2.779   9.527
 7475WAT     H222668   2.793   2.924   9.487
 7476WAT      O22669   1.493   4.508   3.448
 7476WAT     H122670   1.494   4.418   3.405
 7476WAT     H222671   1.549   4.572   3.395
 7477WAT      O22672   2.498   3.932   0.513
 7477WAT     H122673   2.545   3.902   0.596
 7477WAT     H222674   2.412   3.976   0.537
 7478WAT      O22675   5.827   7.662   0.420
 7478WAT     H122676   5.889   7.737   0.444
 7478WAT     H222677   5.880   7.577   0.413
 7479WAT      O22678   8.829   3.875   9.634
 7479WAT     H122679   8.891   3.946   9.667
 7479WAT     H222680   8.877   3.818   9.567
 7480WAT      O22681   0.592   1.424   2.513
 7480WAT     H122682   0.555   1.341   2.555
 7480WAT     H222683   0.647   1.400   2.433
 7481WAT      O22684   7.740   6.939   1.483
 7481WAT     H122685   7.746   6.951   1.583
 7481WAT     H222686   7.739   6.841   1.462
 7482WAT      O22687   9.633   0.001   9.511
 7482WAT     H122688   9.648   0.092   9.471
 7482WAT     H222689   9.595   0.010   9.602
 7483WAT      O22690   9.115   0.259   2.684
 7483WAT     H122691   9.137   0.289   2.592
 7483WAT     H222692   9.198   0.226   2.730
 7484WAT      O22693   3.953   4.880   8.281
 7484WAT     H122694   4.032   4.835   8.323
 7484WAT     H222695   3.968   4.979   8.278
 7485WAT      O22696   3.988   4.405   4.887
 7485WAT     H122697   4.079   4.366   4.874
 7485WAT     H222698   3.989   4.501   4.862
 7486WAT      O22699   2.989   6.562   2.003
 7486WAT     H122700   3.042   6.538   1.922
 7486WAT     H222701   2.916   6.627   1.978
 7487WAT      O22702   3.238   0.273   9.774
 7487WAT     H122703   3.325   0.228   9.754
 7487WAT     H222704   3.195   0.303   9.689
 7488WAT      O22705   9.492   0.053   8.743
 7488WAT     H122706   9.522  -0.025   8.798
 7488WAT     H222707   9.419   0.101   8.792
 7489WAT      O22708   1.665   1.164   0.076
 7489WAT     H122709   1.713   1.092   0.027
 7489WAT     H222710   1.573   1.175   0.038
 7490WAT      O22711   2.082   3.084   4.277
 7490WAT     H122712   1.984   3.093   4.262
 7490WAT     H222713   2.112   3.153   4.343
 7491WAT      O22714   2.314   7.647   3.585
 7491WAT     H122715   2.250   7.699   3.529
 7491WAT     H222716   2.266   7.569   3.627
 7492WAT      O22717   0.310   8.653   4.206
 7492WAT     H122718   0.348   8.740   4.174
 7492WAT     H222719   0.384   8.596   4.242
 7493WAT      O22720   5.072   5.323   9.108
 7493WAT     H122721   5.020   5.283   9.183
 7493WAT     H222722   5.170   5.317   9.128
 7494WAT      O22723   6.003   5.394   1.469
 7494WAT     H122724   5.992   5.492   1.488
 7494WAT     H222725   6.099   5.369   1.476
 7495WAT      O22726   1.112   1.495   6.912
 7495WAT     H122727   1.115   1.565   6.841
 7495WAT     H222728   1.177   1.422   6.890
 7496WAT      O22729   1.860   8.296   7.802
 7496WAT     H122730   1.865   8.366   7.874
 7496WAT     H222731   1.782   8.236   7.818
 7497WAT      O22732   7.418   9.848   7.462
 7497WAT     H122733   7.321   9.857   7.440
 7497WAT     H222734   7.446   9.753   7.451
 7498WAT      O22735   9.410   1.696   1.133
 7498WAT     H122736   9.348   1.752   1.078
 7498WAT     H222737   9.452   1.753   1.204
 7499WAT      O22738   1.021   1.052   6.232
 7499WAT     H122739   1.065   1.121   6.290
 7499WAT     H222740   1.079   0.971   6.227
 7500WAT      O22741   0.994   9.192   0.289
 7500WAT     H122742   1.039   9.112   0.331
 7500WAT     H222743   0.986   9.176   0.190
 7501WAT      O22744   6.303   9.165   6.070
 7501WAT     H122745   6.362   9.153   5.990
 7501WAT     H222746   6.284   9.077   6.112
 7502WAT      O22747   8.737   1.537   1.965
 7502WAT     H122748   8.694   1.515   2.052
 7502WAT     H222749   8.824   1.488   1.958
 7503WAT      O22750   4.456   7.004   1.151
 7503WAT     H122751   4.501   7.057   1.079
 7503WAT     H222752   4.394   6.937   1.109
 7504WAT      O22753   9.702   2.400   1.362
 7504WAT     H122754   9.692   2.342   1.443
 7504WAT     H222755   9.744   2.487   1.388
 7505WAT      O22756   5.017   7.430   0.950
 7505WAT     H122757   5.082   7.463   1.019
 7505WAT     H222758   5.027   7.332   0.939
 7506WAT      O22759   8.158   0.629   0.253
 7506WAT     H122760   8.189   0.645   0.346
 7506WAT     H222761   8.111   0.711   0.219
 7507WAT      O22762   7.202   5.301   3.623
 7507WAT     H122763   7.228   5.205   3.635
 7507WAT     H222764   7.149   5.312   3.540
 7508WAT      O22765   3.593   4.154   7.872
 7508WAT     H122766   3.573   4.059   7.895
 7508WAT     H222767   3.518   4.212   7.904
 7509WAT      O22768   8.868   5.446   1.994
 7509WAT     H122769   8.864   5.463   2.093
 7509WAT     H222770   8.872   5.348   1.977
 7510WAT      O22771   8.283   3.517   8.545
 7510WAT     H122772   8.375   3.555   8.553
 7510WAT     H222773   8.244   3.541   8.457
 7511WAT      O22774   7.531   1.856   5.340
 7511WAT     H122775   7.573   1.885   5.426
 7511WAT     H222776   7.516   1.936   5.282
 7512WAT      O22777   5.969   7.915   2.116
 7512WAT     H122778   5.927   8.002   2.090
 7512WAT     H222779   5.945   7.845   2.048
 7513WAT      O22780   1.592   4.307   2.410
 7513WAT     H122781   1.647   4.331   2.330
 7513WAT     H222782   1.558   4.214   2.400
 7514WAT      O22783   3.284   7.182   8.855
 7514WAT     H122784   3.294   7.192   8.756
 7514WAT     H222785   3.265   7.271   8.896
 7515WAT      O22786   8.305   8.356   5.858
 7515WAT     H122787   8.392   8.400   5.882
 7515WAT     H222788   8.283   8.286   5.926
 7516WAT      O22789   4.456   0.846   6.627
 7516WAT     H122790   4.452   0.752   6.593
 7516WAT     H222791   4.418   0.908   6.558
 7517WAT      O22792   5.537   9.663   0.848
 7517WAT     H122793   5.448   9.658   0.803
 7517WAT     H222794   5.546   9.752   0.893
 7518WAT      O22795   6.849   5.868   1.299
 7518WAT     H122796   6.899   5.914   1.226
 7518WAT     H222797   6.901   5.873   1.384
 7519WAT      O22798   2.830   3.855   5.054
 7519WAT     H122799   2.899   3.880   5.122
 7519WAT     H222800   2.739   3.858   5.096
 7520WAT      O22801   1.567   2.167   2.955
 7520WAT     H122802   1.530   2.207   2.871
 7520WAT     H222803   1.638   2.226   2.992
 7521WAT      O22804   6.773   4.725   4.840
 7521WAT     H122805   6.856   4.671   4.857
 7521WAT     H222806   6.713   4.720   4.920
 7522WAT      O22807   2.378   6.445   5.477
 7522WAT     H122808   2.412   6.390   5.554
 7522WAT     H222809   2.361   6.538   5.508
 7523WAT      O22810   1.109   0.424   5.196
 7523WAT     H122811   1.205   0.397   5.189
 7523WAT     H222812   1.085   0.436   5.292
 7524WAT      O22813   9.369   7.535   5.372
 7524WAT     H122814   9.416   7.458   5.414
 7524WAT     H222815   9.374   7.615   5.432
 7525WAT      O22816   2.321   5.760   9.200
 7525WAT     H122817   2.254   5.691   9.172
 7525WAT     H222818   2.409   5.740   9.158
 7526WAT      O22819   7.250   1.246   7.572
 7526WAT     H122820   7.312   1.202   7.637
 7526WAT     H222821   7.155   1.221   7.594
 7527WAT      O22822   8.259   8.150   2.436
 7527WAT     H122823   8.332   8.137   2.370
 7527WAT     H222824   8.171   8.131   2.393
 7528WAT      O22825   3.303   3.226   3.468
 7528WAT     H122826   3.207   3.228   3.440
 7528WAT     H222827   3.338   3.320   3.472
 7529WAT      O22828   4.508   2.062   8.885
 7529WAT     H122829   4.598   2.018   8.897
 7529WAT     H222830   4.509   2.151   8.930
 7530WAT      O22831   3.578   0.547   6.673
 7530WAT     H122832   3.534   0.598   6.598
 7530WAT     H222833   3.580   0.604   6.755
 7531WAT      O22834   8.428   5.306   1.482
 7531WAT     H122835   8.412   5.219   1.436
 7531WAT     H222836   8.500   5.295   1.550
 7532WAT      O22837   1.629   6.828   4.965
 7532WAT     H122838   1.707   6.777   4.929
 7532WAT     H222839   1.581   6.873   4.890
 7533WAT      O22840   2.173   8.604   6.719
 7533WAT     H122841   2.150   8.652   6.635
 7533WAT     H222842   2.132   8.513   6.719
 7534WAT      O22843   8.087   4.314   1.348
 7534WAT     H122844   8.038   4.252   1.286
 7534WAT     H222845   8.136   4.383   1.295
 7535WAT      O22846   6.474   6.426   4.273
 7535WAT     H122847   6.436   6.337   4.244
 7535WAT     H222848   6.400   6.486   4.301
 7536WAT      O22849   2.738   7.297   8.643
 7536WAT     H122850   2.706   7.264   8.555
 7536WAT     H222851   2.774   7.220   8.696
 7537WAT      O22852   6.728   9.581   5.464
 7537WAT     H122853   6.710   9.548   5.371
 7537WAT     H222854   6.680   9.523   5.529
 7538WAT      O22855   3.428   3.045   1.745
 7538WAT     H122856   3.359   3.105   1.787
 7538WAT     H222857   3.502   3.101   1.707
 7539WAT      O22858   7.978   1.902   0.740
 7539WAT     H122859   8.016   1.818   0.779
 7539WAT     H222860   7.960   1.889   0.642
 7540WAT      O22861   3.788   6.273   1.833
 7540WAT     H122862   3.885   6.279   1.858
 7540WAT     H222863   3.770   6.183   1.793
 7541WAT      O22864   2.640   0.803   5.401
 7541WAT     H122865   2.572   0.829   5.333
 7541WAT     H222866   2.732   0.815   5.363
 7542WAT      O22867   6.238   1.073   8.085
 7542WAT     H122868   6.190   1.147   8.131
 7542WAT     H222869   6.323   1.108   8.046
 7543WAT      O22870   6.945   2.561   7.559
 7543WAT     H122871   7.044   2.576   7.555
 7543WAT     H222872   6.897   2.644   7.532
 7544WAT      O22873   5.105   9.582   3.625
 7544WAT     H122874   5.138   9.640   3.699
 7544WAT     H222875   5.093   9.637   3.542
 7545WAT      O22876   1.512   1.058   7.040
 7545WAT     H122877   1.515   0.979   6.979
 7545WAT     H222878   1.586   1.051   7.107
 7546WAT      O22879   0.440   4.911   0.091
 7546WAT     H122880   0.471   4.993   0.138
 7546WAT     H222881   0.402   4.846   0.158
 7547WAT      O22882   6.708   2.874   3.395
 7547WAT     H122883   6.778   2.842   3.331
 7547WAT     H222884   6.695   2.806   3.467
 7548WAT      O22885   1.206   6.011   4.152
 7548WAT     H122886   1.248   5.921   4.143
 7548WAT     H222887   1.196   6.033   4.248
 7549WAT      O22888   9.723   8.063   5.737
 7549WAT     H122889   9.727   8.003   5.817
 7549WAT     H222890   9.802   8.125   5.738
 7550WAT      O22891   3.324   0.443   7.930
 7550WAT     H122892   3.227   0.461   7.948
 7550WAT     H222893   3.371   0.428   8.017
 7551WAT      O22894   7.951   0.423   0.289
 7551WAT     H122895   8.027   0.480   0.260
 7551WAT     H222896   7.901   0.390   0.209
 7552WAT      O22897   3.956   3.542   9.252
 7552WAT     H122898   3.865   3.575   9.226
 7552WAT     H222899   3.967   3.550   9.351
 7553WAT      O22900   5.367   3.219   7.932
 7553WAT     H122901   5.429   3.292   7.957
 7553WAT     H222902   5.404   3.131   7.963
 7554WAT      O22903   4.638   9.204   3.437
 7554WAT     H122904   4.618   9.191   3.534
 7554WAT     H222905   4.618   9.120   3.387
 7555WAT      O22906   9.534   9.185   5.716
 7555WAT     H122907   9.443   9.190   5.757
 7555WAT     H222908   9.584   9.107   5.754
 7556WAT      O22909   9.488   1.051   8.279
 7556WAT     H122910   9.530   1.005   8.201
 7556WAT     H222911   9.545   1.040   8.360
 7557WAT      O22912   0.255   6.643   3.779
 7557WAT     H122913   0.214   6.728   3.811
 7557WAT     H222914   0.187   6.570   3.781
 7558WAT      O22915   8.853   9.582   7.201
 7558WAT     H122916   8.934   9.551   7.150
 7558WAT     H222917   8.881   9.624   7.287
 7559WAT      O22918   4.513   8.031   7.759
 7559WAT     H122919   4.441   7.996   7.820
 7559WAT     H222920   4.528   7.965   7.685
 7560WAT      O22921   2.751   2.375   9.408
 7560WAT     H122922   2.773   2.445   9.476
 7560WAT     H222923   2.835   2.349   9.359
 7561WAT      O22924   0.515   7.361   2.354
 7561WAT     H122925   0.485   7.430   2.420
 7561WAT     H222926   0.608   7.383   2.323
 7562WAT      O22927   7.073   9.216   4.689
 7562WAT     H122928   7.135   9.195   4.764
 7562WAT     H222929   6.981   9.184   4.712
 7563WAT      O22930   8.811   6.131   0.815
 7563WAT     H122931   8.879   6.069   0.853
 7563WAT     H222932   8.798   6.111   0.717
 7564WAT      O22933   5.692   9.432   0.438
 7564WAT     H122934   5.685   9.355   0.501
 7564WAT     H222935   5.701   9.517   0.490
 7565WAT      O22936   5.641   3.606   0.549
 7565WAT     H122937   5.716   3.551   0.584
 7565WAT     H222938   5.676   3.695   0.520
 7566WAT      O22939   4.931   0.402   9.669
 7566WAT     H122940   5.010   0.443   9.623
 7566WAT     H222941   4.859   0.470   9.679
 7567WAT      O22942   7.999   1.445   4.097
 7567WAT     H122943   7.938   1.524   4.103
 7567WAT     H222944   8.093   1.476   4.089
 7568WAT      O22945   6.467   4.049   9.268
 7568WAT     H122946   6.376   4.033   9.228
 7568WAT     H222947   6.479   3.989   9.347
 7569WAT      O22948   2.311   3.581   3.600
 7569WAT     H122949   2.238   3.624   3.653
 7569WAT     H222950   2.326   3.632   3.515
 7570WAT      O22951   3.202   6.249   9.161
 7570WAT     H122952   3.262   6.171   9.177
 7570WAT     H222953   3.257   6.329   9.139
 7571WAT      O22954   1.691   9.041   9.320
 7571WAT     H122955   1.736   9.130   9.316
 7571WAT     H222956   1.756   8.970   9.293
 7572WAT      O22957   8.762   2.184   3.953
 7572WAT     H122958   8.838   2.248   3.959
 7572WAT     H222959   8.734   2.158   4.046
 7573WAT      O22960   7.443   4.133   9.144
 7573WAT     H122961   7.489   4.209   9.190
 7573WAT     H222962   7.344   4.145   9.152
 7574WAT      O22963   5.090   6.933   7.496
 7574WAT     H122964   5.178   6.980   7.502
 7574WAT     H222965   5.105   6.834   7.489
 7575WAT      O22966   8.327   1.144   2.004
 7575WAT     H122967   8.295   1.138   1.909
 7575WAT     H222968   8.427   1.142   2.005
 7576WAT      O22969   2.989   5.756   7.887
 7576WAT     H122970   3.031   5.674   7.849
 7576WAT     H222971   2.950   5.735   7.977
 7577WAT      O22972   4.056   0.602   0.191
 7577WAT     H122973   4.055   0.652   0.278
 7577WAT     H222974   4.094   0.511   0.207
 7578WAT      O22975   1.575   0.945   4.252
 7578WAT     H122976   1.624   0.884   4.315
 7578WAT     H222977   1.498   0.896   4.211
 7579WAT      O22978   2.337   6.322   8.774
 7579WAT     H122979   2.411   6.278   8.722
 7579WAT     H222980   2.249   6.285   8.744
 7580WAT      O22981   2.964   7.219   9.788
 7580WAT     H122982   2.942   7.205   9.885
 7580WAT     H222983   2.916   7.150   9.733
 7581WAT      O22984   4.285   6.930   2.111
 7581WAT     H122985   4.224   6.907   2.187
 7581WAT     H222986   4.307   6.848   2.059
 7582WAT      O22987   2.249   7.988   4.129
 7582WAT     H122988   2.310   8.013   4.054
 7582WAT     H222989   2.190   8.066   4.151
 7583WAT      O22990   8.374   4.026   5.489
 7583WAT     H122991   8.342   4.024   5.395
 7583WAT     H222992   8.471   4.048   5.491
 7584WAT      O22993   7.787   5.858   7.309
 7584WAT     H122994   7.758   5.866   7.213
 7584WAT     H222995   7.712   5.822   7.364
 7585WAT      O22996   0.732   1.002   2.523
 7585WAT     H122997   0.632   0.998   2.523
 7585WAT     H222998   0.761   1.091   2.560
 7586WAT      O22999   0.261   5.113   4.681
 7586WAT     H123000   0.278   5.096   4.778
 7586WAT     H223001   0.188   5.053   4.649
 7587WAT      O23002   2.718   8.196   6.958
 7587WAT     H123003   2.813   8.166   6.972
 7587WAT     H223004   2.661   8.116   6.937
 7588WAT      O23005   7.057   1.859   3.878
 7588WAT     H123006   7.035   1.944   3.830
 7588WAT     H223007   7.103   1.796   3.814
 7589WAT      O23008   4.771   9.527   4.643
 7589WAT     H123009   4.675   9.550   4.660
 7589WAT     H223010   4.793   9.546   4.548
 7590WAT      O23011   5.454   7.515   8.286
 7590WAT     H123012   5.397   7.482   8.361
 7590WAT     H223013   5.405   7.505   8.200
 7591WAT      O23014   4.615   2.666   3.708
 7591WAT     H123015   4.647   2.726   3.782
 7591WAT     H223016   4.563   2.720   3.643
 7592WAT      O23017   2.504   9.281   4.589
 7592WAT     H123018   2.587   9.229   4.609
 7592WAT     H223019   2.486   9.278   4.491
 7593WAT      O23020   1.747   9.739   3.772
 7593WAT     H123021   1.665   9.685   3.757
 7593WAT     H223022   1.808   9.690   3.835
 7594WAT      O23023   4.869   7.100   5.973
 7594WAT     H123024   4.892   7.189   6.011
 7594WAT     H223025   4.937   7.032   6.002
 7595WAT      O23026   0.410   4.114   2.999
 7595WAT     H123027   0.350   4.173   2.944
 7595WAT     H223028   0.505   4.141   2.985
 7596WAT      O23029   7.466   1.114   7.692
 7596WAT     H123030   7.449   1.032   7.747
 7596WAT     H223031   7.516   1.089   7.609
 7597WAT      O23032   7.219   1.753   7.244
 7597WAT     H123033   7.229   1.658   7.217
 7597WAT     H223034   7.299   1.781   7.297
 7598WAT      O23035   9.835   0.699   5.031
 7598WAT     H123036   9.860   0.609   5.067
 7598WAT     H223037   9.763   0.738   5.088
 7599WAT      O23038   2.358   6.431   8.259
 7599WAT     H123039   2.374   6.469   8.167
 7599WAT     H223040   2.269   6.386   8.261
 7600WAT      O23041   0.848   4.568   7.600
 7600WAT     H123042   0.918   4.499   7.580
 7600WAT     H223043   0.848   4.637   7.527
 7601WAT      O23044   5.116   3.428   5.990
 7601WAT     H123045   5.023   3.396   6.007
 7601WAT     H223046   5.116   3.527   5.979
 7602WAT      O23047   3.789   0.239   6.003
 7602WAT     H123048   3.802   0.338   6.000
 7602WAT     H223049   3.869   0.196   6.042
 7603WAT      O23050   1.002   0.185   6.936
 7603WAT     H123051   1.081   0.137   6.898
 7603WAT     H223052   0.918   0.146   6.900
 7604WAT      O23053   0.872   3.951   3.626
 7604WAT     H123054   0.877   4.046   3.656
 7604WAT     H223055   0.958   3.925   3.583
 7605WAT      O23056   3.436   6.776   7.902
 7605WAT     H123057   3.361   6.815   7.849
 7605WAT     H223058   3.400   6.706   7.963
 7606WAT      O23059   6.300   1.709   7.624
 7606WAT     H123060   6.377   1.645   7.614
 7606WAT     H223061   6.311   1.760   7.710
 7607WAT      O23062   6.352   7.327   1.025
 7607WAT     H123063   6.403   7.358   1.105
 7607WAT     H223064   6.259   7.300   1.053
 7608WAT      O23065   9.244   9.083   4.141
 7608WAT     H123066   9.333   9.096   4.184
 7608WAT     H223067   9.254   9.025   4.059
 7609WAT      O23068   2.845   6.510   5.398
 7609WAT     H123069   2.821   6.592   5.347
 7609WAT     H223070   2.918   6.461   5.351
 7610WAT      O23071   9.143   4.862   8.973
 7610WAT     H123072   9.196   4.777   8.976
 7610WAT     H223073   9.202   4.937   8.944
 7611WAT      O23074   4.379   3.192   8.888
 7611WAT     H123075   4.354   3.230   8.977
 7611WAT     H223076   4.393   3.266   8.822
 7612WAT      O23077   2.509   1.425   6.046
 7612WAT     H123078   2.569   1.475   5.983
 7612WAT     H223079   2.474   1.344   6.000
 7613WAT      O23080   8.925   1.901   6.211
 7613WAT     H123081   8.960   1.943   6.128
 7613WAT     H223082   8.846   1.844   6.189
 7614WAT      O23083   9.804   2.942   6.843
 7614WAT     H123084   9.904   2.941   6.837
 7614WAT     H223085   9.773   2.863   6.895
 7615WAT      O23086   2.111   0.236   7.033
 7615WAT     H123087   2.150   0.147   7.057
 7615WAT     H223088   2.087   0.286   7.116
 7616WAT      O23089   0.799   0.673   5.558
 7616WAT     H123090   0.781   0.682   5.656
 7616WAT     H223091   0.830   0.580   5.538
 7617WAT      O23092   3.633   7.093   8.015
 7617WAT     H123093   3.665   7.188   8.016
 7617WAT     H223094   3.599   7.070   7.924
 7618WAT      O23095   7.775   2.807   1.820
 7618WAT     H123096   7.864   2.832   1.858
 7618WAT     H223097   7.753   2.868   1.744
 7619WAT      O23098   3.711   7.771   1.629
 7619WAT     H123099   3.736   7.691   1.684
 7619WAT     H223100   3.736   7.855   1.678
 7620WAT      O23101   5.943   3.098   3.114
 7620WAT     H123102   6.040   3.080   3.098
 7620WAT     H223103   5.917   3.185   3.071
 7621WAT      O23104   7.321   9.362   2.968
 7621WAT     H123105   7.278   9.273   2.953
 7621WAT     H223106   7.337   9.375   3.066
 7622WAT      O23107   1.729   3.325   2.639
 7622WAT     H123108   1.666   3.372   2.577
 7622WAT     H223109   1.715   3.358   2.733
 7623WAT      O23110   1.675   1.885   5.199
 7623WAT     H123111   1.719   1.804   5.159
 7623WAT     H223112   1.578   1.866   5.216
 7624WAT      O23113   4.436   5.908   2.290
 7624WAT     H123114   4.344   5.940   2.313
 7624WAT     H223115   4.453   5.924   2.193
 7625WAT      O23116   9.489   6.464   6.358
 7625WAT     H123117   9.516   6.525   6.283
 7625WAT     H223118   9.445   6.382   6.320
 7626WAT      O23119   6.773   3.270   1.646
 7626WAT     H123120   6.767   3.331   1.724
 7626WAT     H223121   6.689   3.275   1.592
 7627WAT      O23122   2.519   1.608   3.771
 7627WAT     H123123   2.499   1.640   3.863
 7627WAT     H223124   2.496   1.679   3.705
 7628WAT      O23125   5.341   4.708   3.364
 7628WAT     H123126   5.431   4.706   3.320
 7628WAT     H223127   5.342   4.649   3.445
 7629WAT      O23128   3.529   3.535   1.002
 7629WAT     H123129   3.593   3.508   1.074
 7629WAT     H223130   3.435   3.513   1.030
 7630WAT      O23131   7.499   1.371   9.091
 7630WAT     H123132   7.593   1.340   9.078
 7630WAT     H223133   7.475   1.366   9.188
 7631WAT      O23134   5.394   8.677   1.251
 7631WAT     H123135   5.307   8.723   1.265
 7631WAT     H223136   5.377   8.582   1.223
 7632WAT      O23137   6.483   8.910   7.382
 7632WAT     H123138   6.528   8.989   7.339
 7632WAT     H223139   6.397   8.891   7.334
 7633WAT      O23140   9.755   4.306   5.314
 7633WAT     H123141   9.699   4.376   5.271
 7633WAT     H223142   9.755   4.319   5.413
 7634WAT      O23143   2.315   7.651   1.446
 7634WAT     H123144   2.243   7.582   1.450
 7634WAT     H223145   2.326   7.683   1.351
 7635WAT      O23146   0.366   3.466   1.897
 7635WAT     H123147   0.462   3.437   1.893
 7635WAT     H223148   0.308   3.391   1.866
 7636WAT      O23149   6.477   1.243   6.866
 7636WAT     H123150   6.550   1.232   6.934
 7636WAT     H223151   6.389   1.247   6.913
 7637WAT      O23152   6.487   7.169   1.267
 7637WAT     H123153   6.518   7.079   1.298
 7637WAT     H223154   6.391   7.164   1.240
 7638WAT      O23155   5.015   7.793   3.149
 7638WAT     H123156   4.940   7.760   3.093
 7638WAT     H223157   5.043   7.884   3.117
 7639WAT      O23158   0.056   5.710   1.925
 7639WAT     H123159  -0.033   5.664   1.914
 7639WAT     H223160   0.060   5.754   2.014
 7640WAT      O23161   2.105   1.651   2.651
 7640WAT     H123162   2.072   1.623   2.741
 7640WAT     H223163   2.090   1.749   2.639
 7641WAT      O23164   6.015   2.652   2.978
 7641WAT     H123165   6.105   2.608   2.974
 7641WAT     H223166   5.968   2.637   2.891
 7642WAT      O23167   7.231   0.616   5.023
 7642WAT     H123168   7.307   0.681   5.016
 7642WAT     H223169   7.192   0.620   5.115
 7643WAT      O23170   7.085   9.289   3.351
 7643WAT     H123171   7.020   9.213   3.351
 7643WAT     H223172   7.052   9.362   3.411
 7644WAT      O23173   4.101   4.343   5.647
 7644WAT     H123174   4.146   4.276   5.706
 7644WAT     H223175   4.005   4.318   5.634
 7645WAT      O23176   6.341   1.806   6.660
 7645WAT     H123177   6.292   1.731   6.704
 7645WAT     H223178   6.276   1.868   6.615
 7646WAT      O23179   7.564   9.431   0.951
 7646WAT     H123180   7.497   9.493   0.912
 7646WAT     H223181   7.557   9.342   0.907
 7647WAT      O23182   4.588   8.480   6.009
 7647WAT     H123183   4.526   8.556   5.990
 7647WAT     H223184   4.670   8.489   5.952
 7648WAT      O23185   8.369   5.328   8.847
 7648WAT     H123186   8.447   5.386   8.823
 7648WAT     H223187   8.308   5.377   8.908
 7649WAT      O23188   1.167   5.138   0.802
 7649WAT     H123189   1.072   5.112   0.816
 7649WAT     H223190   1.194   5.206   0.870
 7650WAT      O23191   0.196   7.124   7.699
 7650WAT     H123192   0.245   7.181   7.632
 7650WAT     H223193   0.260   7.061   7.742
 7651WAT      O23194   2.149   2.790   2.451
 7651WAT     H123195   2.208   2.859   2.408
 7651WAT     H223196   2.068   2.776   2.394
 7652WAT      O23197   9.465   5.687   7.046
 7652WAT     H123198   9.500   5.673   7.138
 7652WAT     H223199   9.421   5.603   7.014
 7653WAT      O23200   6.566   2.124   3.208
 7653WAT     H123201   6.632   2.133   3.282
 7653WAT     H223202   6.517   2.211   3.198
 7654WAT      O23203   7.220   6.704   6.814
 7654WAT     H123204   7.225   6.604   6.811
 7654WAT     H223205   7.282   6.743   6.746
 7655WAT      O23206   4.841   1.560   5.867
 7655WAT     H123207   4.878   1.649   5.894
 7655WAT     H223208   4.916   1.493   5.862
 7656WAT      O23209   2.302   5.683   5.008
 7656WAT     H123210   2.255   5.673   5.095
 7656WAT     H223211   2.396   5.650   5.016
 7657WAT      O23212   0.410   6.766   1.494
 7657WAT     H123213   0.488   6.812   1.537
 7657WAT     H223214   0.369   6.702   1.560
 7658WAT      O23215   6.982   9.537   5.255
 7658WAT     H123216   6.971   9.496   5.164
 7658WAT     H223217   6.911   9.606   5.269
 7659WAT      O23218   2.101   6.570   2.539
 7659WAT     H123219   2.136   6.556   2.632
 7659WAT     H223220   2.003   6.588   2.542
 7660WAT      O23221   7.636   6.487   1.688
 7660WAT     H123222   7.564   6.439   1.639
 7660WAT     H223223   7.723   6.440   1.673
 7661WAT      O23224   5.699   8.669   8.245
 7661WAT     H123225   5.684   8.643   8.150
 7661WAT     H223226   5.631   8.624   8.303
 7662WAT      O23227   8.917   3.473   5.327
 7662WAT     H123228   8.820   3.449   5.323
 7662WAT     H223229   8.946   3.479   5.423
 7663WAT      O23230   6.654   2.453   7.887
 7663WAT     H123231   6.573   2.507   7.908
 7663WAT     H223232   6.735   2.512   7.885
 7664WAT      O23233   8.883   0.507   7.808
 7664WAT     H123234   8.895   0.487   7.710
 7664WAT     H223235   8.970   0.496   7.855
 7665WAT      O23236   6.357   4.953   2.570
 7665WAT     H123237   6.383   4.860   2.595
 7665WAT     H223238   6.319   4.954   2.478
 7666WAT      O23239   2.741   2.671   2.387
 7666WAT     H123240   2.793   2.657   2.303
 7666WAT     H223241   2.775   2.609   2.458
 7667WAT      O23242   3.178   0.606   3.180
 7667WAT     H123243   3.172   0.687   3.238
 7667WAT     H223244   3.265   0.559   3.195
 7668WAT      O23245   8.582   3.071   9.355
 7668WAT     H123246   8.649   3.077   9.428
 7668WAT     H223247   8.597   2.987   9.303
 7669WAT      O23248   5.558   0.992   3.627
 7669WAT     H123249   5.504   0.942   3.560
 7669WAT     H223250   5.588   1.079   3.588
 7670WAT      O23251   1.862   7.352   5.996
 7670WAT     H123252   1.844   7.299   6.078
 7670WAT     H223253   1.884   7.446   6.020
 7671WAT      O23254   3.030   7.944   0.170
 7671WAT     H123255   2.999   8.031   0.132
 7671WAT     H223256   3.062   7.885   0.095
 7672WAT      O23257   6.599   8.504   7.644
 7672WAT     H123258   6.512   8.457   7.633
 7672WAT     H223259   6.584   8.595   7.684
 7673WAT      O23260   5.541   5.044   9.852
 7673WAT     H123261   5.512   4.962   9.902
 7673WAT     H223262   5.602   5.018   9.778
 7674WAT      O23263   1.225   8.319   6.669
 7674WAT     H123264   1.131   8.285   6.673
 7674WAT     H223265   1.255   8.348   6.760
 7675WAT      O23266   6.726   1.469   4.755
 7675WAT     H123267   6.721   1.483   4.854
 7675WAT     H223268   6.634   1.457   4.718
 7676WAT      O23269   0.765   6.404   0.293
 7676WAT     H123270   0.737   6.313   0.264
 7676WAT     H223271   0.863   6.417   0.275
 7677WAT      O23272   8.466   4.141   8.233
 7677WAT     H123273   8.416   4.219   8.194
 7677WAT     H223274   8.409   4.097   8.303
 7678WAT      O23275   5.309   4.746   6.233
 7678WAT     H123276   5.224   4.702   6.202
 7678WAT     H223277   5.301   4.771   6.329
 7679WAT      O23278   3.507   1.332   2.898
 7679WAT     H123279   3.478   1.331   2.994
 7679WAT     H223280   3.534   1.240   2.871
 7680WAT      O23281   7.011   2.265   7.175
 7680WAT     H123282   6.964   2.182   7.205
 7680WAT     H223283   7.087   2.284   7.236
 7681WAT      O23284   1.598   5.436   0.351
 7681WAT     H123285   1.565   5.489   0.273
 7681WAT     H223286   1.666   5.489   0.401
 7682WAT      O23287   1.634   7.777   0.691
 7682WAT     H123288   1.560   7.718   0.660
 7682WAT     H223289   1.629   7.788   0.791
 7683WAT      O23290   7.647   7.007   4.082
 7683WAT     H123291   7.735   7.044   4.055
 7683WAT     H223292   7.580   7.081   4.087
 7684WAT      O23293   0.464   5.098   0.434
 7684WAT     H123294   0.446   5.000   0.442
 7684WAT     H223295   0.532   5.113   0.363
 7685WAT      O23296   0.342   4.120   6.968
 7685WAT     H123297   0.393   4.043   6.928
 7685WAT     H223298   0.253   4.129   6.923
 7686WAT      O23299   7.187   2.944   6.622
 7686WAT     H123300   7.195   2.958   6.721
 7686WAT     H223301   7.152   2.852   6.604
 7687WAT      O23302   3.259   7.819   7.906
 7687WAT     H123303   3.205   7.736   7.920
 7687WAT     H223304   3.310   7.840   7.990
 7688WAT      O23305   3.356   7.711   0.487
 7688WAT     H123306   3.419   7.713   0.565
 7688WAT     H223307   3.327   7.804   0.466
 7689WAT      O23308   3.179   5.265   6.675
 7689WAT     H123309   3.270   5.224   6.685
 7689WAT     H223310   3.122   5.237   6.753
 7690WAT      O23311   0.467   4.142   3.769
 7690WAT     H123312   0.530   4.136   3.691
 7690WAT     H223313   0.388   4.084   3.752
 7691WAT      O23314   3.652   3.214   6.469
 7691WAT     H123315   3.661   3.165   6.382
 7691WAT     H223316   3.738   3.261   6.490
 7692WAT      O23317   0.429   8.086   5.250
 7692WAT     H123318   0.380   8.080   5.338
 7692WAT     H223319   0.369   8.126   5.181
 7693WAT      O23320   9.423   4.128   9.050
 7693WAT     H123321   9.440   4.040   9.095
 7693WAT     H223322   9.510   4.175   9.036
 7694WAT      O23323   4.655   7.560   0.631
 7694WAT     H123324   4.707   7.540   0.714
 7694WAT     H223325   4.703   7.524   0.551
 7695WAT      O23326   1.818   7.650   0.527
 7695WAT     H123327   1.753   7.694   0.589
 7695WAT     H223328   1.787   7.557   0.506
 7696WAT      O23329   2.420   2.552   1.055
 7696WAT     H123330   2.515   2.530   1.035
 7696WAT     H223331   2.363   2.526   0.977
 7697WAT      O23332   0.523   0.671   8.409
 7697WAT     H123333   0.455   0.708   8.472
 7697WAT     H223334   0.504   0.704   8.316
 7698WAT      O23335   8.536   6.695   6.593
 7698WAT     H123336   8.599   6.643   6.535
 7698WAT     H223337   8.444   6.655   6.587
 7699WAT      O23338   0.057   0.065   7.709
 7699WAT     H123339   0.039   0.133   7.638
 7699WAT     H223340  -0.026   0.011   7.725
 7700WAT      O23341   8.120   8.557   2.117
 7700WAT     H123342   8.177   8.530   2.040
 7700WAT     H223343   8.140   8.498   2.195
 7701WAT      O23344   9.337   6.853   3.341
 7701WAT     H123345   9.337   6.935   3.284
 7701WAT     H223346   9.308   6.877   3.434
 7702WAT      O23347   1.641   7.880   8.621
 7702WAT     H123348   1.550   7.846   8.598
 7702WAT     H223349   1.703   7.803   8.636
 7703WAT      O23350   6.093   3.521   5.999
 7703WAT     H123351   6.019   3.585   5.980
 7703WAT     H223352   6.180   3.571   6.004
 7704WAT      O23353   4.434   7.058   8.178
 7704WAT     H123354   4.494   7.128   8.218
 7704WAT     H223355   4.480   7.015   8.101
 7705WAT      O23356   5.334   1.266   3.098
 7705WAT     H123357   5.389   1.195   3.055
 7705WAT     H223358   5.292   1.324   3.028
 7706WAT      O23359   9.367   7.893   9.338
 7706WAT     H123360   9.329   7.833   9.267
 7706WAT     H223361   9.391   7.839   9.418
 7707WAT      O23362   6.116   8.897   1.366
 7707WAT     H123363   6.018   8.880   1.369
 7707WAT     H223364   6.165   8.810   1.361
 7708WAT      O23365   1.246   2.003   0.408
 7708WAT     H123366   1.310   1.931   0.379
 7708WAT     H223367   1.282   2.047   0.490
 7709WAT      O23368   1.881   5.283   3.614
 7709WAT     H123369   1.847   5.297   3.521
 7709WAT     H223370   1.868   5.188   3.641
 7710WAT      O23371   6.660   1.209   1.139
 7710WAT     H123372   6.662   1.185   1.042
 7710WAT     H223373   6.639   1.307   1.148
 7711WAT      O23374   2.420   4.244   0.772
 7711WAT     H123375   2.383   4.186   0.846
 7711WAT     H223376   2.519   4.232   0.767
 7712WAT      O23377   8.219   5.776   9.400
 7712WAT     H123378   8.305   5.725   9.393
 7712WAT     H223379   8.221   5.833   9.482
 7713WAT      O23380   6.981   5.339   8.827
 7713WAT     H123381   7.077   5.315   8.813
 7713WAT     H223382   6.949   5.302   8.914
 7714WAT      O23383   4.361   8.184   9.614
 7714WAT     H123384   4.396   8.201   9.706
 7714WAT     H223385   4.264   8.157   9.620
 7715WAT      O23386   8.744   8.657   9.086
 7715WAT     H123387   8.647   8.673   9.104
 7715WAT     H223388   8.764   8.676   8.990
 7716WAT      O23389   2.410   1.628   5.300
 7716WAT     H123390   2.350   1.562   5.345
 7716WAT     H223391   2.380   1.642   5.205
 7717WAT      O23392   8.488   7.989   0.832
 7717WAT     H123393   8.477   7.893   0.856
 7717WAT     H223394   8.582   8.005   0.801
 7718WAT      O23395   8.573   0.841   0.141
 7718WAT     H123396   8.533   0.788   0.215
 7718WAT     H223397   8.614   0.925   0.178
 7719WAT      O23398   0.728   4.470   6.304
 7719WAT     H123399   0.672   4.501   6.226
 7719WAT     H223400   0.677   4.400   6.355
 7720WAT      O23401   2.838   0.121   9.143
 7720WAT     H123402   2.771   0.060   9.185
 7720WAT     H223403   2.821   0.129   9.045
 7721WAT      O23404   1.617   2.007   1.387
 7721WAT     H123405   1.649   1.956   1.467
 7721WAT     H223406   1.686   2.002   1.314
 7722WAT      O23407   5.542   0.315   8.281
 7722WAT     H123408   5.632   0.275   8.260
 7722WAT     H223409   5.511   0.281   8.370
 7723WAT      O23410   1.463   5.615   4.491
 7723WAT     H123411   1.473   5.539   4.555
 7723WAT     H223412   1.409   5.688   4.534
 7724WAT      O23413   2.842   6.907   8.458
 7724WAT     H123414   2.786   6.946   8.531
 7724WAT     H223415   2.785   6.889   8.378
 7725WAT      O23416   3.932   8.022   8.182
 7725WAT     H123417   3.977   7.974   8.257
 7725WAT     H223418   3.834   8.029   8.201
 7726WAT      O23419   1.998   5.192   9.369
 7726WAT     H123420   1.911   5.149   9.394
 7726WAT     H223421   2.068   5.164   9.434
 7727WAT      O23422   6.227   9.213   4.338
 7727WAT     H123423   6.206   9.311   4.334
 7727WAT     H223424   6.291   9.189   4.266
 7728WAT      O23425   0.980   2.193   6.069
 7728WAT     H123426   1.043   2.145   6.008
 7728WAT     H223427   0.890   2.150   6.064
 7729WAT      O23428   2.563   6.319   0.272
 7729WAT     H123429   2.637   6.264   0.232
 7729WAT     H223430   2.582   6.416   0.259
 7730WAT      O23431   0.557   4.218   6.801
 7730WAT     H123432   0.466   4.176   6.792
 7730WAT     H223433   0.559   4.276   6.883
 7731WAT      O23434   5.835   2.378   5.944
 7731WAT     H123435   5.884   2.448   5.996
 7731WAT     H223436   5.891   2.350   5.866
 7732WAT      O23437   7.620   7.018   5.294
 7732WAT     H123438   7.587   7.004   5.387
 7732WAT     H223439   7.546   7.051   5.236
 7733WAT      O23440   6.048   1.777   5.422
 7733WAT     H123441   6.075   1.719   5.346
 7733WAT     H223442   6.098   1.863   5.419
 7734WAT      O23443   2.034   3.743   8.998
 7734WAT     H123444   2.102   3.815   9.014
 7734WAT     H223445   2.067   3.657   9.038
 7735WAT      O23446   3.511   7.303   0.300
 7735WAT     H123447   3.559   7.369   0.358
 7735WAT     H223448   3.433   7.347   0.257
 7736WAT      O23449   0.171   9.000   4.025
 7736WAT     H123450   0.203   8.909   4.051
 7736WAT     H223451   0.193   9.066   4.097
 7737WAT      O23452   4.381   0.598   6.520
 7737WAT     H123453   4.312   0.532   6.550
 7737WAT     H223454   4.466   0.551   6.498
 7738WAT      O23455   5.138   7.087   9.536
 7738WAT     H123456   5.068   7.111   9.603
 7738WAT     H223457   5.147   6.987   9.531
 7739WAT      O23458   5.850   1.499   0.824
 7739WAT     H123459   5.918   1.542   0.885
 7739WAT     H223460   5.839   1.556   0.743
 7740WAT      O23461   2.243   3.639   6.977
 7740WAT     H123462   2.317   3.642   6.910
 7740WAT     H223463   2.241   3.725   7.029
 7741WAT      O23464   7.174   0.566   2.662
 7741WAT     H123465   7.085   0.599   2.633
 7741WAT     H223466   7.240   0.641   2.659
 7742WAT      O23467   9.480   0.777   4.560
 7742WAT     H123468   9.562   0.748   4.610
 7742WAT     H223469   9.497   0.865   4.517
 7743WAT      O23470   0.853   0.604   8.160
 7743WAT     H123471   0.821   0.649   8.077
 7743WAT     H223472   0.799   0.636   8.238
 7744WAT      O23473   0.745   7.017   3.019
 7744WAT     H123474   0.690   7.093   2.985
 7744WAT     H223475   0.718   6.933   2.973
 7745WAT      O23476   3.815   1.347   7.765
 7745WAT     H123477   3.722   1.342   7.802
 7745WAT     H223478   3.860   1.428   7.801
 7746WAT      O23479   4.153   1.921   7.117
 7746WAT     H123480   4.163   2.018   7.093
 7746WAT     H223481   4.060   1.891   7.095
 7747WAT      O23482   5.930   5.660   2.814
 7747WAT     H123483   5.850   5.710   2.847
 7747WAT     H223484   6.011   5.718   2.822
 7748WAT      O23485   1.420   2.429   0.423
 7748WAT     H123486   1.331   2.451   0.383
 7748WAT     H223487   1.472   2.372   0.359
 7749WAT      O23488   4.991   1.142   4.783
 7749WAT     H123489   5.015   1.108   4.874
 7749WAT     H223490   5.074   1.162   4.732
 7750WAT      O23491   4.449   4.612   4.547
 7750WAT     H123492   4.368   4.641   4.495
 7750WAT     H223493   4.530   4.618   4.488
 7751WAT      O23494   3.664   1.580   7.448
 7751WAT     H123495   3.695   1.650   7.383
 7751WAT     H223496   3.569   1.556   7.428
 7752WAT      O23497   5.207   1.558   3.155
 7752WAT     H123498   5.303   1.583   3.145
 7752WAT     H223499   5.151   1.641   3.154
 7753WAT      O23500   7.468   0.394   1.270
 7753WAT     H123501   7.529   0.460   1.313
 7753WAT     H223502   7.413   0.349   1.341
 7754WAT      O23503   7.343   2.865   3.624
 7754WAT     H123504   7.326   2.952   3.670
 7754WAT     H223505   7.299   2.791   3.675
 7755WAT      O23506   6.482   6.352   4.857
 7755WAT     H123507   6.562   6.323   4.909
 7755WAT     H223508   6.506   6.359   4.760
 7756WAT      O23509   4.784   6.327   1.637
 7756WAT     H123510   4.863   6.305   1.579
 7756WAT     H223511   4.700   6.300   1.589
 7757WAT      O23512   9.378   1.048   5.667
 7757WAT     H123513   9.432   1.123   5.628
 7757WAT     H223514   9.350   0.986   5.594
 7758WAT      O23515   5.645   9.555   4.084
 7758WAT     H123516   5.724   9.590   4.135
 7758WAT     H223517   5.615   9.469   4.124
 7759WAT      O23518   9.601   7.237   1.463
 7759WAT     H123519   9.599   7.232   1.363
 7759WAT     H223520   9.696   7.247   1.494
 7760WAT      O23521   1.513   6.856   0.208
 7760WAT     H123522   1.500   6.831   0.112
 7760WAT     H223523   1.534   6.774   0.261
 7761WAT      O23524   5.156   1.025   2.777
 7761WAT     H123525   5.096   0.951   2.746
 7761WAT     H223526   5.175   1.014   2.875
 7762WAT      O23527   8.864   3.834   6.282
 7762WAT     H123528   8.908   3.805   6.368
 7762WAT     H223529   8.833   3.753   6.231
 7763WAT      O23530   5.003   9.836   5.516
 7763WAT     H123531   4.990   9.922   5.565
 7763WAT     H223532   4.953   9.763   5.563
 7764WAT      O23533   0.854   3.901   2.982
 7764WAT     H123534   0.917   3.824   2.988
 7764WAT     H223535   0.766   3.870   2.945
 7765WAT      O23536   6.618   2.085   4.704
 7765WAT     H123537   6.607   1.998   4.752
 7765WAT     H223538   6.545   2.148   4.731
 7766WAT      O23539   8.267   1.049   9.563
 7766WAT     H123540   8.247   1.112   9.639
 7766WAT     H223541   8.285   0.958   9.600
 7767WAT      O23542   7.887   7.922   9.868
 7767WAT     H123543   7.868   7.967   9.956
 7767WAT     H223544   7.925   7.831   9.884
 7768WAT      O23545   9.258   1.964   3.989
 7768WAT     H123546   9.279   1.873   3.952
 7768WAT     H223547   9.344   2.012   4.009
 7769WAT      O23548   0.844   6.463   1.682
 7769WAT     H123549   0.835   6.428   1.589
 7769WAT     H223550   0.939   6.490   1.698
 7770WAT      O23551   2.530   6.352   7.606
 7770WAT     H123552   2.494   6.444   7.591
 7770WAT     H223553   2.606   6.335   7.543
 7771WAT      O23554   1.671   1.710   3.527
 7771WAT     H123555   1.767   1.703   3.551
 7771WAT     H223556   1.639   1.621   3.493
 7772WAT      O23557   7.563   8.667   0.174
 7772WAT     H123558   7.499   8.604   0.217
 7772WAT     H223559   7.563   8.754   0.224
 7773WAT      O23560   4.875   0.433   0.392
 7773WAT     H123561   4.939   0.504   0.419
 7773WAT     H223562   4.828   0.398   0.473
 7774WAT      O23563   4.241   7.757   0.496
 7774WAT     H123564   4.266   7.797   0.407
 7774WAT     H223565   4.168   7.811   0.536
 7775WAT      O23566   8.966   8.994   6.024
 7775WAT     H123567   8.888   9.038   5.979
 7775WAT     H223568   8.980   9.035   6.114
 7776WAT      O23569   4.035   3.375   4.916
 7776WAT     H123570   4.034   3.378   5.016
 7776WAT     H223571   3.983   3.296   4.885
 7777WAT      O23572   4.279   1.779   2.297
 7777WAT     H123573   4.313   1.839   2.225
 7777WAT     H223574   4.242   1.833   2.372
 7778WAT      O23575   1.879   7.187   7.287
 7778WAT     H123576   1.864   7.185   7.386
 7778WAT     H223577   1.811   7.246   7.244
 7779WAT      O23578   3.020   3.936   2.951
 7779WAT     H123579   3.091   3.919   3.019
 7779WAT     H223580   2.930   3.920   2.993
 7780WAT      O23581   0.824   5.714   2.221
 7780WAT     H123582   0.819   5.615   2.238
 7780WAT     H223583   0.919   5.744   2.229
 7781WAT      O23584   1.354   4.003   1.652
 7781WAT     H123585   1.421   3.980   1.722
 7781WAT     H223586   1.301   4.082   1.681
 7782WAT      O23587   9.247   3.812   5.616
 7782WAT     H123588   9.221   3.728   5.568
 7782WAT     H223589   9.254   3.887   5.551
 7783WAT      O23590   3.685   8.870   8.897
 7783WAT     H123591   3.689   8.784   8.847
 7783WAT     H223592   3.763   8.875   8.960
 7784WAT      O23593   6.757   0.222   7.739
 7784WAT     H123594   6.819   0.256   7.668
 7784WAT     H223595   6.798   0.141   7.782
 7785WAT      O23596   5.332   5.235   0.128
 7785WAT     H123597   5.327   5.274   0.220
 7785WAT     H223598   5.424   5.199   0.113
 7786WAT      O23599   9.102   3.371   1.611
 7786WAT     H123600   9.059   3.290   1.652
 7786WAT     H223601   9.142   3.346   1.522
 7787WAT      O23602   4.775   8.301   7.036
 7787WAT     H123603   4.811   8.327   7.126
 7787WAT     H223604   4.750   8.204   7.037
 7788WAT      O23605   1.227   6.089   2.499
 7788WAT     H123606   1.130   6.106   2.519
 7788WAT     H223607   1.280   6.170   2.525
 7789WAT      O23608   4.782   8.330   4.466
 7789WAT     H123609   4.751   8.247   4.514
 7789WAT     H223610   4.805   8.400   4.533
 7790WAT      O23611   8.520   5.053   1.163
 7790WAT     H123612   8.510   5.019   1.256
 7790WAT     H223613   8.431   5.052   1.117
 7791WAT      O23614   0.341   2.551   6.018
 7791WAT     H123615   0.274   2.611   6.061
 7791WAT     H223616   0.332   2.458   6.056
 7792WAT      O23617   5.427   2.561   8.842
 7792WAT     H123618   5.474   2.559   8.930
 7792WAT     H223619   5.355   2.492   8.840
 7793WAT      O23620   6.119   6.452   4.868
 7793WAT     H123621   6.146   6.418   4.958
 7793WAT     H223622   6.129   6.378   4.801
 7794WAT      O23623   0.876   1.369   0.993
 7794WAT     H123624   0.952   1.337   1.049
 7794WAT     H223625   0.907   1.444   0.934
 7795WAT      O23626   0.698   9.117   5.864
 7795WAT     H123627   0.783   9.101   5.914
 7795WAT     H223628   0.644   9.187   5.911
 7796WAT      O23629   5.825   0.705   0.740
 7796WAT     H123630   5.749   0.640   0.744
 7796WAT     H223631   5.890   0.676   0.669
 7797WAT      O23632   0.770   1.608   8.160
 7797WAT     H123633   0.829   1.638   8.234
 7797WAT     H223634   0.783   1.510   8.143
 7798WAT      O23635   3.105   4.029   4.273
 7798WAT     H123636   3.006   4.016   4.272
 7798WAT     H223637   3.141   4.022   4.180
 7799WAT      O23638   7.231   1.023   5.105
 7799WAT     H123639   7.252   1.068   5.191
 7799WAT     H223640   7.313   0.979   5.069
 7800WAT      O23641   0.729   9.379   4.711
 7800WAT     H123642   0.772   9.468   4.698
 7800WAT     H223643   0.640   9.390   4.754
 7801WAT      O23644   5.815   1.356   1.262
 7801WAT     H123645   5.758   1.425   1.217
 7801WAT     H223646   5.758   1.278   1.287
 7802WAT      O23647   9.282   6.499   1.560
 7802WAT     H123648   9.191   6.527   1.531
 7802WAT     H223649   9.287   6.499   1.660
 7803WAT      O23650   1.532   3.605   3.189
 7803WAT     H123651   1.491   3.585   3.278
 7803WAT     H223652   1.626   3.634   3.202
 7804WAT      O23653   4.848   7.350   1.185
 7804WAT     H123654   4.819   7.445   1.171
 7804WAT     H223655   4.873   7.337   1.281
 7805WAT      O23656   3.369   5.415   5.584
 7805WAT     H123657   3.313   5.435   5.664
 7805WAT     H223658   3.431   5.492   5.567
 7806WAT      O23659   7.680   3.944   1.880
 7806WAT     H123660   7.754   3.912   1.821
 7806WAT     H223661   7.667   4.043   1.866
 7807WAT      O23662   2.186   3.952   6.655
 7807WAT     H123663   2.173   3.995   6.566
 7807WAT     H223664   2.218   4.021   6.721
 7808WAT      O23665   3.185   6.774   8.189
 7808WAT     H123666   3.121   6.793   8.115
 7808WAT     H223667   3.248   6.703   8.160
 7809WAT      O23668   7.071   3.214   3.317
 7809WAT     H123669   7.030   3.150   3.252
 7809WAT     H223670   7.042   3.190   3.409
 7810WAT      O23671   1.861   5.914   8.106
 7810WAT     H123672   1.916   5.964   8.173
 7810WAT     H223673   1.852   5.818   8.135
 7811WAT      O23674   2.242   2.752   5.306
 7811WAT     H123675   2.223   2.796   5.393
 7811WAT     H223676   2.212   2.811   5.231
 7812WAT      O23677   0.486   8.053   3.689
 7812WAT     H123678   0.408   8.074   3.748
 7812WAT     H223679   0.460   8.065   3.593
 7813WAT      O23680   9.136   4.663   3.462
 7813WAT     H123681   9.141   4.675   3.363
 7813WAT     H223682   9.047   4.695   3.495
 7814WAT      O23683   6.167   2.090   9.649
 7814WAT     H123684   6.158   2.009   9.707
 7814WAT     H223685   6.125   2.073   9.560
 7815WAT      O23686   5.990   3.762   6.421
 7815WAT     H123687   5.930   3.841   6.406
 7815WAT     H223688   5.955   3.708   6.497
 7816WAT      O23689   3.217   7.203   2.391
 7816WAT     H123690   3.317   7.195   2.394
 7816WAT     H223691   3.191   7.298   2.410
 7817WAT      O23692   3.916   5.513   9.547
 7817WAT     H123693   3.980   5.457   9.493
 7817WAT     H223694   3.822   5.489   9.522
 7818WAT      O23695   2.592   8.248   3.922
 7818WAT     H123696   2.596   8.182   3.996
 7818WAT     H223697   2.639   8.210   3.842
 7819WAT      O23698   8.049   6.527   5.528
 7819WAT     H123699   8.096   6.538   5.616
 7819WAT     H223700   7.951   6.513   5.545
 7820WAT      O23701   4.351   4.590   2.691
 7820WAT     H123702   4.447   4.596   2.662
 7820WAT     H223703   4.301   4.528   2.632
 7821WAT      O23704   3.398   2.772   3.547
 7821WAT     H123705   3.359   2.783   3.456
 7821WAT     H223706   3.413   2.675   3.566
 7822WAT      O23707   6.359   8.293   3.716
 7822WAT     H123708   6.266   8.267   3.694
 7822WAT     H223709   6.412   8.212   3.740
 7823WAT      O23710   7.019   9.096   6.557
 7823WAT     H123711   7.081   9.103   6.479
 7823WAT     H223712   6.944   9.161   6.546
 7824WAT      O23713   7.761   6.066   8.388
 7824WAT     H123714   7.663   6.085   8.393
 7824WAT     H223715   7.780   5.978   8.432
 7825WAT      O23716   0.630   9.779   9.195
 7825WAT     H123717   0.569   9.854   9.222
 7825WAT     H223718   0.664   9.797   9.102
 7826WAT      O23719   8.575   2.285   8.887
 7826WAT     H123720   8.617   2.250   8.971
 7826WAT     H223721   8.621   2.244   8.808
 7827WAT      O23722   8.240   5.253   5.026
 7827WAT     H123723   8.264   5.313   5.102
 7827WAT     H223724   8.211   5.164   5.062
 7828WAT      O23725   4.191   9.098   3.569
 7828WAT     H123726   4.262   9.035   3.598
 7828WAT     H223727   4.154   9.069   3.480
 7829WAT      O23728   2.162   7.219   5.786
 7829WAT     H123729   2.078   7.169   5.764
 7829WAT     H223730   2.234   7.193   5.723
 7830WAT      O23731   6.016   2.212   9.171
 7830WAT     H123732   6.006   2.309   9.150
 7830WAT     H223733   6.055   2.165   9.091
 7831WAT      O23734   7.155   1.708   1.085
 7831WAT     H123735   7.158   1.648   1.005
 7831WAT     H223736   7.060   1.719   1.114
 7832WAT      O23737   7.114   5.203   7.331
 7832WAT     H123738   7.088   5.239   7.241
 7832WAT     H223739   7.208   5.169   7.327
 7833WAT      O23740   4.246   3.371   0.852
 7833WAT     H123741   4.226   3.454   0.800
 7833WAT     H223742   4.162   3.339   0.897
 7834WAT      O23743   1.269   8.489   0.103
 7834WAT     H123744   1.346   8.543   0.068
 7834WAT     H223745   1.185   8.517   0.057
 7835WAT      O23746   9.572   0.513   3.840
 7835WAT     H123747   9.490   0.570   3.839
 7835WAT     H223748   9.566   0.448   3.916
 7836WAT      O23749   8.179   6.263   5.358
 7836WAT     H123750   8.162   6.242   5.454
 7836WAT     H223751   8.265   6.220   5.330
 7837WAT      O23752   8.294   0.179   0.167
 7837WAT     H123753   8.264   0.268   0.133
 7837WAT     H223754   8.375   0.190   0.224
 7838WAT      O23755   5.982   7.178   6.314
 7838WAT     H123756   6.070   7.198   6.356
 7838WAT     H223757   5.990   7.185   6.215
 7839WAT      O23758   9.359   1.699   3.889
 7839WAT     H123759   9.453   1.683   3.859
 7839WAT     H223760   9.334   1.631   3.958
 7840WAT      O23761   5.626   3.684   0.818
 7840WAT     H123762   5.643   3.631   0.735
 7840WAT     H223763   5.530   3.673   0.845
 7841WAT      O23764   0.667   7.904   5.168
 7841WAT     H123765   0.601   7.833   5.190
 7841WAT     H223766   0.620   7.992   5.162
 7842WAT      O23767   6.768   8.211   2.982
 7842WAT     H123768   6.682   8.229   3.031
 7842WAT     H223769   6.794   8.292   2.929
 7843WAT      O23770   9.652   5.808   0.396
 7843WAT     H123771   9.590   5.732   0.413
 7843WAT     H223772   9.724   5.779   0.332
 7844WAT      O23773   0.955   4.898   4.689
 7844WAT     H123774   0.898   4.892   4.771
 7844WAT     H223775   0.936   4.984   4.641
 7845WAT      O23776   8.051   7.154   7.548
 7845WAT     H123777   8.143   7.132   7.515
 7845WAT     H223778   8.058   7.220   7.622
 7846WAT      O23779   3.539   7.500   5.008
 7846WAT     H123780   3.520   7.595   5.032
 7846WAT     H223781   3.631   7.476   5.039
 7847WAT      O23782   6.054   2.906   2.957
 7847WAT     H123783   6.028   2.811   2.972
 7847WAT     H223784   5.990   2.949   2.893
 7848WAT      O23785   6.767   0.812   6.434
 7848WAT     H123786   6.853   0.792   6.388
 7848WAT     H223787   6.765   0.766   6.523
 7849WAT      O23788   5.345   1.967   6.066
 7849WAT     H123789   5.280   2.028   6.111
 7849WAT     H223790   5.417   2.021   6.022
 7850WAT      O23791   3.735   5.388   2.137
 7850WAT     H123792   3.655   5.338   2.103
 7850WAT     H223793   3.707   5.479   2.168
 7851WAT      O23794   4.486   7.231   6.699
 7851WAT     H123795   4.568   7.268   6.744
 7851WAT     H223796   4.410   7.295   6.710
 7852WAT      O23797   7.815   2.967   1.593
 7852WAT     H123798   7.906   2.993   1.625
 7852WAT     H223799   7.746   3.007   1.654
 7853WAT      O23800   5.996   5.701   2.428
 7853WAT     H123801   5.918   5.707   2.490
 7853WAT     H223802   6.022   5.606   2.416
 7854WAT      O23803   8.225   4.137   5.686
 7854WAT     H123804   8.296   4.111   5.620
 7854WAT     H223805   8.135   4.115   5.649
 7855WAT      O23806   3.191   8.042   0.571
 7855WAT     H123807   3.232   8.128   0.542
 7855WAT     H223808   3.223   7.968   0.511
 7856WAT      O23809   2.716   3.152   8.514
 7856WAT     H123810   2.673   3.196   8.434
 7856WAT     H223811   2.703   3.053   8.507
 7857WAT      O23812   3.868   2.918   2.927
 7857WAT     H123813   3.796   2.865   2.973
 7857WAT     H223814   3.922   2.858   2.869
 7858WAT      O23815   4.365   2.954   0.502
 7858WAT     H123816   4.433   2.905   0.448
 7858WAT     H223817   4.335   2.897   0.578
 7859WAT      O23818   1.526   7.430   4.029
 7859WAT     H123819   1.547   7.348   4.081
 7859WAT     H223820   1.448   7.478   4.070
 7860WAT      O23821   9.826   9.725   2.318
 7860WAT     H123822   9.748   9.780   2.347
 7860WAT     H223823   9.811   9.690   2.226
 7861WAT      O23824   3.650   5.796   0.643
 7861WAT     H123825   3.613   5.761   0.557
 7861WAT     H223826   3.742   5.759   0.657
 7862WAT      O23827   9.765   5.284   8.652
 7862WAT     H123828   9.730   5.377   8.645
 7862WAT     H223829   9.739   5.232   8.570
 7863WAT      O23830   5.374   1.197   2.419
 7863WAT     H123831   5.392   1.194   2.321
 7863WAT     H223832   5.293   1.142   2.440
 7864WAT      O23833   1.304   5.357   4.706
 7864WAT     H123834   1.249   5.276   4.725
 7864WAT     H223835   1.254   5.417   4.643
 7865WAT      O23836   4.069   0.726   0.425
 7865WAT     H123837   4.020   0.742   0.511
 7865WAT     H223838   4.136   0.653   0.437
 7866WAT      O23839   3.241   0.845   8.898
 7866WAT     H123840   3.178   0.910   8.856
 7866WAT     H223841   3.333   0.861   8.862
 7867WAT      O23842   2.039   1.235   8.822
 7867WAT     H123843   2.035   1.295   8.902
 7867WAT     H223844   2.112   1.169   8.835
 7868WAT      O23845   1.544   5.574   7.010
 7868WAT     H123846   1.578   5.502   6.950
 7868WAT     H223847   1.583   5.562   7.102
 7869WAT      O23848   6.211   1.145   0.213
 7869WAT     H123849   6.233   1.238   0.184
 7869WAT     H223850   6.258   1.080   0.154
 7870WAT      O23851   1.798   2.161   0.486
 7870WAT     H123852   1.795   2.144   0.585
 7870WAT     H223853   1.889   2.192   0.460
 7871WAT      O23854   7.456   5.796   4.959
 7871WAT     H123855   7.551   5.803   4.992
 7871WAT     H223856   7.406   5.878   4.984
 7872WAT      O23857   9.785   7.129   2.656
 7872WAT     H123858   9.857   7.149   2.723
 7872WAT     H223859   9.768   7.211   2.602
 7873WAT      O23860   2.788   4.128   5.303
 7873WAT     H123861   2.787   4.116   5.402
 7873WAT     H223862   2.710   4.081   5.263
 7874WAT      O23863   7.779   2.175   3.727
 7874WAT     H123864   7.786   2.111   3.803
 7874WAT     H223865   7.859   2.235   3.727
 7875WAT      O23866   3.892   1.489   9.752
 7875WAT     H123867   3.987   1.460   9.739
 7875WAT     H223868   3.872   1.493   9.850
 7876WAT      O23869   4.493   4.118   5.928
 7876WAT     H123870   4.548   4.060   5.868
 7876WAT     H223871   4.548   4.148   6.006
 7877WAT      O23872   5.486   1.535   4.009
 7877WAT     H123873   5.536   1.455   4.042
 7877WAT     H223874   5.441   1.581   4.085
 7878WAT      O23875   6.138   5.740   0.367
 7878WAT     H123876   6.051   5.719   0.410
 7878WAT     H223877   6.191   5.656   0.356
 7879WAT      O23878   9.372   7.089   9.833
 7879WAT     H123879   9.433   7.134   9.898
 7879WAT     H223880   9.346   7.153   9.761
 7880WAT      O23881   2.698   2.280   8.236
 7880WAT     H123882   2.603   2.309   8.239
 7880WAT     H223883   2.707   2.190   8.278
 7881WAT      O23884   7.014   5.205   1.920
 7881WAT     H123885   6.957   5.214   1.838
 7881WAT     H223886   6.956   5.204   2.001
 7882WAT      O23887   5.154   1.999   0.990
 7882WAT     H123888   5.185   2.079   0.939
 7882WAT     H223889   5.207   1.918   0.962
 7883WAT      O23890   3.005   4.697   2.207
 7883WAT     H123891   2.997   4.796   2.193
 7883WAT     H223892   2.919   4.653   2.181
 7884WAT      O23893   5.702   3.009   8.505
 7884WAT     H123894   5.623   2.997   8.445
 7884WAT     H223895   5.674   2.993   8.600
 7885WAT      O23896   7.651   8.870   7.618
 7885WAT     H123897   7.551   8.874   7.617
 7885WAT     H223898   7.686   8.912   7.534
 7886WAT      O23899   0.179   7.194   9.842
 7886WAT     H123900   0.224   7.121   9.790
 7886WAT     H223901   0.089   7.211   9.803
 7887WAT      O23902   5.074   2.936   0.260
 7887WAT     H123903   4.988   2.967   0.219
 7887WAT     H223904   5.130   3.015   0.285
 7888WAT      O23905   4.929   5.220   0.163
 7888WAT     H123906   4.959   5.226   0.258
 7888WAT     H223907   4.990   5.275   0.105
 7889WAT      O23908   6.757   0.541   0.268
 7889WAT     H123909   6.777   0.456   0.318
 7889WAT     H223910   6.736   0.519   0.173
 7890WAT      O23911   0.389   7.346   6.009
 7890WAT     H123912   0.351   7.390   5.928
 7890WAT     H223913   0.447   7.269   5.981
 7891WAT      O23914   1.946   8.772   4.373
 7891WAT     H123915   1.854   8.763   4.412
 7891WAT     H223916   2.006   8.815   4.440
 7892WAT      O23917   3.396   1.303   1.521
 7892WAT     H123918   3.429   1.275   1.611
 7892WAT     H223919   3.471   1.304   1.456
 7893WAT      O23920   3.180   0.583   5.577
 7893WAT     H123921   3.099   0.525   5.570
 7893WAT     H223922   3.188   0.618   5.670
 7894WAT      O23923   4.533   0.688   7.527
 7894WAT     H123924   4.462   0.664   7.461
 7894WAT     H223925   4.550   0.609   7.587
 7895WAT      O23926   7.097   1.731   7.481
 7895WAT     H123927   7.151   1.780   7.549
 7895WAT     H223928   7.142   1.736   7.392
 7896WAT      O23929   4.117   9.339   1.611
 7896WAT     H123930   4.039   9.394   1.582
 7896WAT     H223931   4.089   9.243   1.619
 7897WAT      O23932   6.100   8.784   4.592
 7897WAT     H123933   6.145   8.728   4.522
 7897WAT     H223934   6.101   8.880   4.564
 7898WAT      O23935   6.569   7.223   4.413
 7898WAT     H123936   6.574   7.243   4.315
 7898WAT     H223937   6.480   7.184   4.435
 7899WAT      O23938   8.959   5.720   0.306
 7899WAT     H123939   8.983   5.661   0.383
 7899WAT     H223940   9.042   5.762   0.269
 7900WAT      O23941   2.901   7.656   9.869
 7900WAT     H123942   2.854   7.612   9.945
 7900WAT     H223943   3.000   7.644   9.879
 7901WAT      O23944   2.226   7.399   7.439
 7901WAT     H123945   2.153   7.457   7.404
 7901WAT     H223946   2.315   7.437   7.411
 7902WAT      O23947   4.790   4.064   0.443
 7902WAT     H123948   4.890   4.059   0.445
 7902WAT     H223949   4.762   4.160   0.439
 7903WAT      O23950   7.700   0.067   7.483
 7903WAT     H123951   7.722   0.044   7.388
 7903WAT     H223952   7.601   0.057   7.497
 7904WAT      O23953   9.090   1.530   2.633
 7904WAT     H123954   8.994   1.505   2.627
 7904WAT     H223955   9.121   1.524   2.728
 7905WAT      O23956   3.519   4.547   3.471
 7905WAT     H123957   3.424   4.564   3.443
 7905WAT     H223958   3.580   4.559   3.392
 7906WAT      O23959   9.819   5.969   4.068
 7906WAT     H123960   9.762   6.051   4.075
 7906WAT     H223961   9.891   5.972   4.136
 7907WAT      O23962   8.443   0.025   4.093
 7907WAT     H123963   8.526   0.019   4.036
 7907WAT     H223964   8.363   0.008   4.036
 7908WAT      O23965   3.788   7.965   7.133
 7908WAT     H123966   3.841   7.936   7.053
 7908WAT     H223967   3.693   7.936   7.122
 7909WAT      O23968   3.057   8.610   7.662
 7909WAT     H123969   2.986   8.604   7.592
 7909WAT     H223970   3.038   8.687   7.723
 7910WAT      O23971   4.077   0.812   9.479
 7910WAT     H123972   4.005   0.814   9.548
 7910WAT     H223973   4.167   0.814   9.524
 7911WAT      O23974   7.902   8.094   3.552
 7911WAT     H123975   7.941   8.022   3.495
 7911WAT     H223976   7.958   8.176   3.545
 7912WAT      O23977   5.745   3.117   7.197
 7912WAT     H123978   5.845   3.108   7.188
 7912WAT     H223979   5.721   3.214   7.196
 7913WAT      O23980   1.742   3.963   5.644
 7913WAT     H123981   1.678   3.962   5.721
 7913WAT     H223982   1.794   3.878   5.643
 7914WAT      O23983   2.441   5.190   8.147
 7914WAT     H123984   2.371   5.155   8.085
 7914WAT     H223985   2.514   5.123   8.155
 7915WAT      O23986   2.358   0.353   5.955
 7915WAT     H123987   2.342   0.333   6.051
 7915WAT     H223988   2.324   0.277   5.899
 7916WAT      O23989   8.951   2.644   2.887
 7916WAT     H123990   8.916   2.610   2.975
 7916WAT     H223991   8.897   2.605   2.812
 7917WAT      O23992   0.429   9.034   3.534
 7917WAT     H123993   0.364   9.104   3.505
 7917WAT     H223994   0.392   8.983   3.611
 7918WAT      O23995   2.032   2.305   1.750
 7918WAT     H123996   2.129   2.326   1.734
 7918WAT     H223997   1.986   2.385   1.787
 7919WAT      O23998   9.267   3.016   8.670
 7919WAT     H123999   9.293   2.932   8.717
 7919WAT     H224000   9.167   3.021   8.665
 7920WAT      O24001   8.068   6.883   1.168
 7920WAT     H124002   8.048   6.881   1.070
 7920WAT     H224003   8.004   6.945   1.214
 7921WAT      O24004   9.338   1.032   7.908
 7921WAT     H124005   9.330   0.980   7.993
 7921WAT     H224006   9.369   0.972   7.834
 7922WAT      O24007   8.507   0.006   3.498
 7922WAT     H124008   8.605   0.004   3.521
 7922WAT     H224009   8.470  -0.086   3.503
 7923WAT      O24010   9.776   2.206   0.048
 7923WAT     H124011   9.791   2.153  -0.036
 7923WAT     H224012   9.704   2.162   0.102
 7924WAT      O24013   6.839   7.172   8.815
 7924WAT     H124014   6.755   7.118   8.821
 7924WAT     H224015   6.899   7.149   8.891
 7925WAT      O24016   5.704   2.368   3.387
 7925WAT     H124017   5.714   2.396   3.482
 7925WAT     H224018   5.786   2.318   3.358
 7926WAT      O24019   7.862   0.526   4.392
 7926WAT     H124020   7.782   0.468   4.376
 7926WAT     H224021   7.937   0.470   4.428
 7927WAT      O24022   5.606   8.123   3.848
 7927WAT     H124023   5.652   8.094   3.764
 7927WAT     H224024   5.675   8.136   3.920
 7928WAT      O24025   0.934   5.856   5.483
 7928WAT     H124026   0.954   5.936   5.425
 7928WAT     H224027   0.845   5.867   5.526
 7929WAT      O24028   7.382   6.128   5.945
 7929WAT     H124029   7.433   6.042   5.955
 7929WAT     H224030   7.290   6.108   5.913
 7930WAT      O24031   8.789   0.025   8.833
 7930WAT     H124032   8.863   0.067   8.886
 7930WAT     H224033   8.763  -0.061   8.876
 7931WAT      O24034   1.992   3.803   0.649
 7931WAT     H124035   1.998   3.897   0.682
 7931WAT     H224036   2.066   3.749   0.689
 7932WAT      O24037   9.152   4.917   9.365
 7932WAT     H124038   9.248   4.894   9.347
 7932WAT     H224039   9.125   4.994   9.306
 7933WAT      O24040   2.356   2.758   9.080
 7933WAT     H124041   2.376   2.856   9.074
 7933WAT     H224042   2.433   2.711   9.123
 7934WAT      O24043   3.062   3.115   1.331
 7934WAT     H124044   3.012   3.188   1.378
 7934WAT     H224045   3.045   3.028   1.377
 7935WAT      O24046   0.588   4.858   1.635
 7935WAT     H124047   0.515   4.888   1.573
 7935WAT     H224048   0.555   4.782   1.691
 7936WAT      O24049   9.362   5.771   5.694
 7936WAT     H124050   9.439   5.707   5.698
 7936WAT     H224051   9.281   5.729   5.735
 7937WAT      O24052   1.572   2.383   4.559
 7937WAT     H124053   1.560   2.354   4.654
 7937WAT     H224054   1.519   2.323   4.498
 7938WAT      O24055   5.787   9.453   8.471
 7938WAT     H124056   5.846   9.532   8.455
 7938WAT     H224057   5.716   9.477   8.538
 7939WAT      O24058   0.861   9.421   5.449
 7939WAT     H124059   0.956   9.423   5.418
 7939WAT     H224060   0.848   9.346   5.514
 7940WAT      O24061   4.536   9.452   2.122
 7940WAT     H124062   4.540   9.419   2.216
 7940WAT     H224063   4.498   9.544   2.120
 7941WAT      O24064   0.312   9.416   6.616
 7941WAT     H124065   0.308   9.396   6.518
 7941WAT     H224066   0.251   9.354   6.665
 7942WAT      O24067   8.077   9.163   3.967
 7942WAT     H124068   8.088   9.228   4.042
 7942WAT     H224069   7.983   9.127   3.968
 7943WAT      O24070   9.427   3.738   7.530
 7943WAT     H124071   9.465   3.808   7.469
 7943WAT     H224072   9.467   3.747   7.621
 7944WAT      O24073   4.291   7.417   9.626
 7944WAT     H124074   4.257   7.323   9.630
 7944WAT     H224075   4.347   7.434   9.707
 7945WAT      O24076   1.795   3.278   2.181
 7945WAT     H124077   1.878   3.250   2.134
 7945WAT     H224078   1.766   3.367   2.147
 7946WAT      O24079   2.086   8.788   3.680
 7946WAT     H124080   2.121   8.866   3.731
 7946WAT     H224081   2.043   8.723   3.743
 7947WAT      O24082   3.650   5.394   7.344
 7947WAT     H124083   3.584   5.390   7.419
 7947WAT     H224084   3.712   5.315   7.350
 7948WAT      O24085   2.110   8.014   3.156
 7948WAT     H124086   2.185   7.974   3.103
 7948WAT     H224087   2.099   7.963   3.241
 7949WAT      O24088   3.488   1.987   6.710
 7949WAT     H124089   3.499   2.007   6.808
 7949WAT     H224090   3.393   1.961   6.692
 7950WAT      O24091   8.940   0.151   1.230
 7950WAT     H124092   8.975   0.110   1.315
 7950WAT     H224093   9.012   0.151   1.161
 7951WAT      O24094   4.129   4.512   7.645
 7951WAT     H124095   4.154   4.456   7.724
 7951WAT     H224096   4.033   4.539   7.653
 7952WAT      O24097   8.189   0.839   8.802
 7952WAT     H124098   8.288   0.829   8.790
 7952WAT     H224099   8.142   0.807   8.720
 7953WAT      O24100   2.005   2.545   1.903
 7953WAT     H124101   2.050   2.604   1.835
 7953WAT     H224102   2.035   2.572   1.994
 7954WAT      O24103   8.264   5.092   7.813
 7954WAT     H124104   8.277   5.142   7.727
 7954WAT     H224105   8.268   5.155   7.890
 7955WAT      O24106   1.142   0.793   1.214
 7955WAT     H124107   1.233   0.820   1.245
 7955WAT     H224108   1.141   0.695   1.196
 7956WAT      O24109   6.429   5.277   3.073
 7956WAT     H124110   6.398   5.210   3.005
 7956WAT     H224111   6.385   5.259   3.160
 7957WAT      O24112   6.458   3.468   6.997
 7957WAT     H124113   6.547   3.447   7.039
 7957WAT     H224114   6.443   3.406   6.920
 7958WAT      O24115   1.388   0.230   9.374
 7958WAT     H124116   1.360   0.144   9.414
 7958WAT     H224117   1.377   0.304   9.441
 7959WAT      O24118   6.459   6.896   6.333
 7959WAT     H124119   6.543   6.872   6.284
 7959WAT     H224120   6.449   6.996   6.334
 7960WAT      O24121   5.416   5.490   9.167
 7960WAT     H124122   5.409   5.391   9.182
 7960WAT     H224123   5.451   5.534   9.250
 7961WAT      O24124   4.450   2.740   1.136
 7961WAT     H124125   4.533   2.698   1.099
 7961WAT     H224126   4.394   2.775   1.061
 7962WAT      O24127   7.460   9.573   7.452
 7962WAT     H124128   7.490   9.503   7.387
 7962WAT     H224129   7.519   9.572   7.532
 7963WAT      O24130   0.592   0.502   8.025
 7963WAT     H124131   0.626   0.589   7.991
 7963WAT     H224132   0.525   0.465   7.961
 7964WAT      O24133   4.272   2.284   1.646
 7964WAT     H124134   4.211   2.228   1.590
 7964WAT     H224135   4.366   2.273   1.614
 7965WAT      O24136   3.896   8.674   0.732
 7965WAT     H124137   3.834   8.698   0.807
 7965WAT     H224138   3.847   8.682   0.645
 7966WAT      O24139   2.443   0.349   9.207
 7966WAT     H124140   2.511   0.283   9.239
 7966WAT     H224141   2.489   0.418   9.150
 7967WAT      O24142   1.097   5.305   5.366
 7967WAT     H124143   1.160   5.241   5.321
 7967WAT     H224144   1.123   5.314   5.462
 7968WAT      O24145   9.430   2.472   8.490
 7968WAT     H124146   9.347   2.525   8.505
 7968WAT     H224147   9.509   2.533   8.488
 7969WAT      O24148   5.424   3.184   7.607
 7969WAT     H124149   5.445   3.281   7.606
 7969WAT     H224150   5.358   3.164   7.679
 7970WAT      O24151   8.653   1.106   2.440
 7970WAT     H124152   8.562   1.125   2.405
 7970WAT     H224153   8.659   1.009   2.466
 7971WAT      O24154   2.045   1.401   1.163
 7971WAT     H124155   2.043   1.362   1.071
 7971WAT     H224156   2.013   1.332   1.228
 7972WAT      O24157   8.234   0.703   6.497
 7972WAT     H124158   8.294   0.740   6.426
 7972WAT     H224159   8.272   0.725   6.587
 7973WAT      O24160   5.183   6.041   0.597
 7973WAT     H124161   5.149   5.968   0.656
 7973WAT     H224162   5.174   6.013   0.501
 7974WAT      O24163   1.177   7.004   8.010
 7974WAT     H124164   1.128   7.089   8.032
 7974WAT     H224165   1.140   6.930   8.066
 7975WAT      O24166   5.324   2.158   0.665
 7975WAT     H124167   5.375   2.074   0.686
 7975WAT     H224168   5.333   2.223   0.740
 7976WAT      O24169   7.949   4.835   2.248
 7976WAT     H124170   7.930   4.744   2.285
 7976WAT     H224171   7.869   4.894   2.259
 7977WAT      O24172   1.998   3.884   5.486
 7977WAT     H124173   2.087   3.839   5.481
 7977WAT     H224174   1.932   3.834   5.430
 7978WAT      O24175   5.826   5.204   5.934
 7978WAT     H124176   5.728   5.206   5.915
 7978WAT     H224177   5.865   5.118   5.899
 7979WAT      O24178   6.696   5.850   8.338
 7979WAT     H124179   6.751   5.886   8.263
 7979WAT     H224180   6.724   5.894   8.423
 7980WAT      O24181   8.522   1.376   1.664
 7980WAT     H124182   8.500   1.409   1.756
 7980WAT     H224183   8.609   1.415   1.635
 7981WAT      O24184   8.160   0.838   7.453
 7981WAT     H124185   8.239   0.791   7.413
 7981WAT     H224186   8.076   0.795   7.421
 7982WAT      O24187   8.537   9.446   9.845
 7982WAT     H124188   8.544   9.538   9.807
 7982WAT     H224189   8.465   9.444   9.915
 7983WAT      O24190   9.621   5.025   6.276
 7983WAT     H124191   9.539   4.968   6.275
 7983WAT     H224192   9.597   5.117   6.306
 7984WAT      O24193   7.319   1.843   5.576
 7984WAT     H124194   7.242   1.906   5.574
 7984WAT     H224195   7.368   1.847   5.489
 7985WAT      O24196   1.512   7.056   2.050
 7985WAT     H124197   1.531   7.072   1.953
 7985WAT     H224198   1.597   7.064   2.102
 7986WAT      O24199   3.101   6.461   1.090
 7986WAT     H124200   3.156   6.383   1.060
 7986WAT     H224201   3.069   6.512   1.011
 7987WAT      O24202   3.583   6.533   2.385
 7987WAT     H124203   3.674   6.551   2.422
 7987WAT     H224204   3.530   6.480   2.451
 7988WAT      O24205   8.106   3.280   8.098
 7988WAT     H124206   8.122   3.367   8.050
 7988WAT     H224207   8.057   3.217   8.037
 7989WAT      O24208   0.154   3.478   4.914
 7989WAT     H124209   0.229   3.512   4.971
 7989WAT     H224210   0.096   3.417   4.969
 7990WAT      O24211   4.765   3.205   5.161
 7990WAT     H124212   4.678   3.169   5.195
 7990WAT     H224213   4.765   3.204   5.061
 7991WAT      O24214   3.843   4.943   5.852
 7991WAT     H124215   3.923   4.922   5.797
 7991WAT     H224216   3.762   4.947   5.793
 7992WAT      O24217   1.441   3.293   6.084
 7992WAT     H124218   1.419   3.267   6.178
 7992WAT     H224219   1.371   3.355   6.049
 7993WAT      O24220   0.417   4.719   7.759
 7993WAT     H124221   0.319   4.697   7.761
 7993WAT     H224222   0.437   4.773   7.678
 7994WAT      O24223   6.534   8.897   0.924
 7994WAT     H124224   6.518   8.969   0.991
 7994WAT     H224225   6.584   8.821   0.966
 7995WAT      O24226   8.896   7.536   0.942
 7995WAT     H124227   8.975   7.499   0.991
 7995WAT     H224228   8.919   7.550   0.846
 7996WAT      O24229   2.069   7.064   3.344
 7996WAT     H124230   1.983   7.056   3.294
 7996WAT     H224231   2.056   7.122   3.424
 7997WAT      O24232   6.602   6.508   0.770
 7997WAT     H124233   6.567   6.506   0.864
 7997WAT     H224234   6.631   6.417   0.743
 7998WAT      O24235   9.451   2.225   1.413
 7998WAT     H124236   9.461   2.321   1.388
 7998WAT     H224237   9.495   2.167   1.345
 7999WAT      O24238   1.409   5.113   1.345
 7999WAT     H124239   1.438   5.025   1.381
 7999WAT     H224240   1.372   5.169   1.419
 8000WAT      O24241   8.166   5.799   7.375
 8000WAT     H124242   8.234   5.850   7.427
 8000WAT     H224243   8.142   5.715   7.425
 8001WAT      O24244   5.146   7.285   0.589
 8001WAT     H124245   5.064   7.230   0.603
 8001WAT     H224246   5.179   7.275   0.495
 8002WAT      O24247   4.921   5.225   9.325
 8002WAT     H124248   4.928   5.132   9.362
 8002WAT     H224249   4.900   5.288   9.399
 8003WAT      O24250   6.616   5.416   3.251
 8003WAT     H124251   6.550   5.361   3.198
 8003WAT     H224252   6.690   5.445   3.191
 8004WAT      O24253   9.203   5.354   9.172
 8004WAT     H124254   9.219   5.403   9.258
 8004WAT     H224255   9.261   5.393   9.100
 8005WAT      O24256   7.726   9.712   9.321
 8005WAT     H124257   7.764   9.793   9.366
 8005WAT     H224258   7.748   9.630   9.374
 8006WAT      O24259   6.105   5.877   2.711
 8006WAT     H124260   6.156   5.879   2.624
 8006WAT     H224261   6.166   5.847   2.784
 8007WAT      O24262   4.061   2.496   5.146
 8007WAT     H124263   4.109   2.528   5.065
 8007WAT     H224264   4.083   2.399   5.162
 8008WAT      O24265   1.264   8.142   1.828
 8008WAT     H124266   1.221   8.077   1.765
 8008WAT     H224267   1.217   8.230   1.823
 8009WAT      O24268   8.910   3.600   7.294
 8009WAT     H124269   8.861   3.556   7.369
 8009WAT     H224270   8.914   3.538   7.215
 8010WAT      O24271   4.544   4.372   5.768
 8010WAT     H124272   4.520   4.281   5.803
 8010WAT     H224273   4.630   4.367   5.717
 8011WAT      O24274   3.257   4.393   6.356
 8011WAT     H124275   3.335   4.432   6.404
 8011WAT     H224276   3.213   4.464   6.300
 8012WAT      O24277   7.826   2.928   2.856
 8012WAT     H124278   7.735   2.929   2.898
 8012WAT     H224279   7.888   2.985   2.910
 8013WAT      O24280   3.078   7.899   2.295
 8013WAT     H124281   3.029   7.828   2.245
 8013WAT     H224282   3.043   7.906   2.388
 8014WAT      O24283   6.866   2.329   5.756
 8014WAT     H124284   6.900   2.419   5.729
 8014WAT     H224285   6.800   2.339   5.830
 8015WAT      O24286   3.993   0.653   5.961
 8015WAT     H124287   4.066   0.609   5.909
 8015WAT     H224288   3.925   0.689   5.898
 8016WAT      O24289   4.646   1.074   7.283
 8016WAT     H124290   4.633   0.999   7.218
 8016WAT     H224291   4.654   1.037   7.375
 8017WAT      O24292   7.280   0.735   8.610
 8017WAT     H124293   7.235   0.698   8.529
 8017WAT     H224294   7.366   0.778   8.584
 8018WAT      O24295   4.103   5.579   4.102
 8018WAT     H124296   4.064   5.537   4.184
 8018WAT     H224297   4.056   5.544   4.021
 8019WAT      O24298   0.642   7.802   5.483
 8019WAT     H124299   0.573   7.853   5.535
 8019WAT     H224300   0.707   7.866   5.443
 8020WAT      O24301   1.236   0.250   4.624
 8020WAT     H124302   1.227   0.335   4.675
 8020WAT     H224303   1.174   0.181   4.661
 8021WAT      O24304   5.380   2.509   0.534
 8021WAT     H124305   5.361   2.423   0.488
 8021WAT     H224306   5.301   2.538   0.587
 8022WAT      O24307   9.089   5.677   3.594
 8022WAT     H124308   9.037   5.663   3.509
 8022WAT     H224309   9.157   5.604   3.604
 8023WAT      O24310   6.611   1.378   4.029
 8023WAT     H124311   6.536   1.358   3.966
 8023WAT     H224312   6.581   1.444   4.097
 8024WAT      O24313   1.428   7.864   2.948
 8024WAT     H124314   1.452   7.820   2.861
 8024WAT     H224315   1.376   7.800   3.004
 8025WAT      O24316   2.232   0.830   3.854
 8025WAT     H124317   2.135   0.809   3.869
 8025WAT     H224318   2.244   0.929   3.847
 8026WAT      O24319   8.440   0.197   4.481
 8026WAT     H124320   8.504   0.236   4.546
 8026WAT     H224321   8.347   0.202   4.517
 8027WAT      O24322   8.359   1.710   2.621
 8027WAT     H124323   8.361   1.724   2.720
 8027WAT     H224324   8.448   1.735   2.582
 8028WAT      O24325   6.001   1.882   4.929
 8028WAT     H124326   6.094   1.848   4.922
 8028WAT     H224327   5.976   1.929   4.845
 8029WAT      O24328   3.271   1.985   0.455
 8029WAT     H124329   3.271   2.047   0.376
 8029WAT     H224330   3.267   2.039   0.539
 8030WAT      O24331   7.411   3.277   7.573
 8030WAT     H124332   7.459   3.234   7.650
 8030WAT     H224333   7.344   3.342   7.608
 8031WAT      O24334   1.563   4.030   4.626
 8031WAT     H124335   1.594   4.081   4.546
 8031WAT     H224336   1.466   4.045   4.641
 8032WAT      O24337   4.616   3.745   0.172
 8032WAT     H124338   4.627   3.704   0.262
 8032WAT     H224339   4.610   3.845   0.181
 8033WAT      O24340   1.365   4.452   1.758
 8033WAT     H124341   1.419   4.472   1.677
 8033WAT     H224342   1.316   4.535   1.787
 8034WAT      O24343   0.458   4.583   0.645
 8034WAT     H124344   0.429   4.649   0.714
 8034WAT     H224345   0.377   4.534   0.611
 8035WAT      O24346   6.021   4.088   0.699
 8035WAT     H124347   6.103   4.030   0.707
 8035WAT     H224348   6.012   4.144   0.781
 8036WAT      O24349   8.428   2.486   4.123
 8036WAT     H124350   8.526   2.505   4.124
 8036WAT     H224351   8.393   2.489   4.029
 8037WAT      O24352   3.881   1.884   2.025
 8037WAT     H124353   3.855   1.840   2.110
 8037WAT     H224354   3.940   1.823   1.972
 8038WAT      O24355   0.657   2.322   9.872
 8038WAT     H124356   0.751   2.355   9.866
 8038WAT     H224357   0.594   2.398   9.858
 8039WAT      O24358   7.438   3.052   4.946
 8039WAT     H124359   7.359   3.006   4.985
 8039WAT     H224360   7.518   2.991   4.950
 8040WAT      O24361   5.255   9.144   3.017
 8040WAT     H124362   5.182   9.076   3.014
 8040WAT     H224363   5.229   9.223   2.962
 8041WAT      O24364   2.434   5.349   3.983
 8041WAT     H124365   2.349   5.299   3.965
 8041WAT     H224366   2.433   5.435   3.932
 8042WAT      O24367   7.023   2.762   4.799
 8042WAT     H124368   7.085   2.836   4.771
 8042WAT     H224369   6.946   2.801   4.851
 8043WAT      O24370   4.575   8.933   9.109
 8043WAT     H124371   4.641   8.859   9.125
 8043WAT     H224372   4.495   8.898   9.061
 8044WAT      O24373   0.497   3.922   0.907
 8044WAT     H124374   0.478   3.839   0.960
 8044WAT     H224375   0.485   3.902   0.810
 8045WAT      O24376   0.124   4.932   5.743
 8045WAT     H124377   0.063   4.896   5.673
 8045WAT     H224378   0.219   4.910   5.720
 8046WAT      O24379   4.806   1.662   2.337
 8046WAT     H124380   4.813   1.688   2.433
 8046WAT     H224381   4.710   1.647   2.313
 8047WAT      O24382   4.238   5.680   8.868
 8047WAT     H124383   4.337   5.673   8.878
 8047WAT     H224384   4.201   5.742   8.938
 8048WAT      O24385   2.818   9.453   0.946
 8048WAT     H124386   2.821   9.429   1.043
 8048WAT     H224387   2.910   9.475   0.914
 8049WAT      O24388   8.925   7.537   2.184
 8049WAT     H124389   8.924   7.438   2.171
 8049WAT     H224390   8.969   7.581   2.105
 8050WAT      O24391   7.231   2.149   1.982
 8050WAT     H124392   7.137   2.180   1.997
 8050WAT     H224393   7.242   2.057   2.019
 8051WAT      O24394   7.306   6.698   7.070
 8051WAT     H124395   7.223   6.732   7.115
 8051WAT     H224396   7.287   6.680   6.974
 8052WAT      O24397   9.335   6.637   8.937
 8052WAT     H124398   9.400   6.568   8.968
 8052WAT     H224399   9.356   6.662   8.843
 8053WAT      O24400   6.427   0.974   3.680
 8053WAT     H124401   6.437   0.923   3.766
 8053WAT     H224402   6.331   0.978   3.655
 8054WAT      O24403   2.794   1.244   4.182
 8054WAT     H124404   2.807   1.272   4.277
 8054WAT     H224405   2.701   1.266   4.153
 8055WAT      O24406   6.709   4.328   4.238
 8055WAT     H124407   6.657   4.353   4.156
 8055WAT     H224408   6.726   4.229   4.238
 8056WAT      O24409   8.019   6.234   2.564
 8056WAT     H124410   8.010   6.134   2.565
 8056WAT     H224411   8.054   6.264   2.475
 8057WAT      O24412   2.465   5.401   4.398
 8057WAT     H124413   2.501   5.470   4.335
 8057WAT     H224414   2.457   5.440   4.489
 8058WAT      O24415  -0.004   5.994   7.491
 8058WAT     H124416   0.017   5.931   7.416
 8058WAT     H224417   0.081   6.025   7.534
 8059WAT      O24418   8.479   3.792   0.488
 8059WAT     H124419   8.422   3.872   0.505
 8059WAT     H224420   8.421   3.714   0.465
 8060WAT      O24421   2.752   1.591   1.362
 8060WAT     H124422   2.757   1.491   1.367
 8060WAT     H224423   2.666   1.618   1.320
 8061WAT      O24424   0.114   6.269   8.955
 8061WAT     H124425   0.064   6.276   8.869
 8061WAT     H224426   0.090   6.346   9.014
 8062WAT      O24427   4.611   2.989   2.973
 8062WAT     H124428   4.532   3.025   3.022
 8062WAT     H224429   4.581   2.951   2.885
 8063WAT      O24430   7.797   3.323   6.130
 8063WAT     H124431   7.803   3.284   6.038
 8063WAT     H224432   7.889   3.343   6.164
 8064WAT      O24433   5.542   2.630   9.669
 8064WAT     H124434   5.576   2.666   9.756
 8064WAT     H224435   5.612   2.639   9.599
 8065WAT      O24436   2.249   9.071   2.561
 8065WAT     H124437   2.338   9.035   2.535
 8065WAT     H224438   2.244   9.169   2.539
 8066WAT      O24439   6.122   5.669   2.048
 8066WAT     H124440   6.129   5.733   1.971
 8066WAT     H224441   6.041   5.691   2.101
 8067WAT      O24442   1.724   7.968   4.546
 8067WAT     H124443   1.693   8.042   4.487
 8067WAT     H224444   1.645   7.919   4.583
 8068WAT      O24445   0.323   4.826   4.314
 8068WAT     H124446   0.247   4.830   4.250
 8068WAT     H224447   0.339   4.917   4.353
 8069WAT      O24448   0.640   8.563   6.840
 8069WAT     H124449   0.727   8.612   6.846
 8069WAT     H224450   0.649   8.474   6.885
 8070WAT      O24451   3.925   7.576   2.573
 8070WAT     H124452   4.002   7.584   2.636
 8070WAT     H224453   3.916   7.661   2.521
 8071WAT      O24454   3.831   0.065   3.143
 8071WAT     H124455   3.782   0.150   3.122
 8071WAT     H224456   3.768  -0.012   3.136
 8072WAT      O24457   0.425   7.889   0.583
 8072WAT     H124458   0.404   7.984   0.559
 8072WAT     H224459   0.403   7.830   0.505
 8073WAT      O24460   0.102   3.671   6.111
 8073WAT     H124461   0.115   3.769   6.095
 8073WAT     H224462   0.031   3.637   6.050
 8074WAT      O24463   9.744   8.900   0.905
 8074WAT     H124464   9.815   8.921   0.837
 8074WAT     H224465   9.671   8.846   0.861
 8075WAT      O24466   6.539   7.646   8.950
 8075WAT     H124467   6.506   7.686   8.865
 8075WAT     H224468   6.635   7.622   8.941
 8076WAT      O24469   3.852   7.807   8.550
 8076WAT     H124470   3.857   7.905   8.573
 8076WAT     H224471   3.775   7.792   8.488
 8077WAT      O24472   8.833   0.050   1.928
 8077WAT     H124473   8.806   0.045   2.024
 8077WAT     H224474   8.762   0.094   1.874
 8078WAT      O24475   4.971   2.188   5.009
 8078WAT     H124476   4.940   2.093   5.020
 8078WAT     H224477   4.908   2.236   4.948
 8079WAT      O24478   6.802   4.882   9.759
 8079WAT     H124479   6.751   4.950   9.706
 8079WAT     H224480   6.776   4.790   9.730
 8080WAT      O24481   1.215   4.347   3.921
 8080WAT     H124482   1.205   4.411   3.845
 8080WAT     H224483   1.164   4.381   4.000
 8081WAT      O24484   3.274   7.935   0.298
 8081WAT     H124485   3.317   7.893   0.219
 8081WAT     H224486   3.174   7.926   0.291
 8082WAT      O24487   4.250   5.040   4.890
 8082WAT     H124488   4.257   5.110   4.820
 8082WAT     H224489   4.294   4.956   4.858
 8083WAT      O24490   8.268   3.135   7.562
 8083WAT     H124491   8.324   3.056   7.537
 8083WAT     H224492   8.260   3.139   7.661
 8084WAT      O24493   6.490   8.191   9.155
 8084WAT     H124494   6.554   8.180   9.079
 8084WAT     H224495   6.434   8.109   9.164
 8085WAT      O24496   2.716   1.604   0.287
 8085WAT     H124497   2.628   1.622   0.330
 8085WAT     H224498   2.769   1.689   0.280
 8086WAT      O24499   7.215   4.078   4.885
 8086WAT     H124500   7.128   4.117   4.916
 8086WAT     H224501   7.291   4.130   4.925
 8087WAT      O24502   2.771   5.135   6.368
 8087WAT     H124503   2.720   5.074   6.429
 8087WAT     H224504   2.863   5.150   6.404
 8088WAT      O24505   0.460   4.278   4.699
 8088WAT     H124506   0.521   4.230   4.762
 8088WAT     H224507   0.376   4.304   4.746
 8089WAT      O24508   4.345   4.221   8.701
 8089WAT     H124509   4.291   4.305   8.713
 8089WAT     H224510   4.296   4.158   8.641
 8090WAT      O24511   7.450   1.726   2.683
 8090WAT     H124512   7.531   1.667   2.675
 8090WAT     H224513   7.370   1.670   2.708
 8091WAT      O24514   0.995   6.015   3.358
 8091WAT     H124515   0.902   6.011   3.396
 8091WAT     H224516   1.062   6.004   3.431
 8092WAT      O24517   3.940   9.120   7.017
 8092WAT     H124518   3.970   9.083   7.104
 8092WAT     H224519   3.850   9.163   7.028
 8093WAT      O24520   6.030   8.708   2.758
 8093WAT     H124521   6.003   8.800   2.787
 8093WAT     H224522   5.956   8.644   2.781
 8094WAT      O24523   3.218   6.686   6.866
 8094WAT     H124524   3.247   6.608   6.811
 8094WAT     H224525   3.119   6.698   6.857
 8095WAT      O24526   4.371   7.350   0.458
 8095WAT     H124527   4.433   7.386   0.390
 8095WAT     H224528   4.423   7.320   0.538
 8096WAT      O24529   0.414   1.117   4.100
 8096WAT     H124530   0.494   1.177   4.109
 8096WAT     H224531   0.439   1.036   4.047
 8097WAT      O24532   3.988   2.974   0.065
 8097WAT     H124533   3.968   3.046  -0.001
 8097WAT     H224534   4.084   2.947   0.057
 8098WAT      O24535   7.342   3.120   4.698
 8098WAT     H124536   7.347   3.043   4.635
 8098WAT     H224537   7.381   3.093   4.786
 8099WAT      O24538   2.617   5.630   6.699
 8099WAT     H124539   2.536   5.610   6.643
 8099WAT     H224540   2.595   5.700   6.767
 8100WAT      O24541   5.499   5.851   7.870
 8100WAT     H124542   5.486   5.929   7.809
 8100WAT     H224543   5.444   5.774   7.839
 8101WAT      O24544   2.430   1.014   2.688
 8101WAT     H124545   2.422   0.934   2.746
 8101WAT     H224546   2.526   1.026   2.660
 8102WAT      O24547   6.727   0.938   8.487
 8102WAT     H124548   6.692   0.850   8.519
 8102WAT     H224549   6.797   0.971   8.550
 8103WAT      O24550   9.874   2.474   8.532
 8103WAT     H124551   9.872   2.418   8.615
 8103WAT     H224552   9.910   2.420   8.456
 8104WAT      O24553   7.275   7.748   9.892
 8104WAT     H124554   7.271   7.760   9.793
 8104WAT     H224555   7.206   7.681   9.920
 8105WAT      O24556   3.968   1.764   2.561
 8105WAT     H124557   3.919   1.742   2.646
 8105WAT     H224558   3.946   1.696   2.491
 8106WAT      O24559   5.870   2.619   3.734
 8106WAT     H124560   5.933   2.650   3.662
 8106WAT     H224561   5.787   2.676   3.732
 8107WAT      O24562   6.702   6.984   4.863
 8107WAT     H124563   6.617   6.981   4.811
 8107WAT     H224564   6.780   6.985   4.800
 8108WAT      O24565   5.447   7.837   7.096
 8108WAT     H124566   5.395   7.883   7.024
 8108WAT     H224567   5.423   7.877   7.184
 8109WAT      O24568   3.197   4.407   9.771
 8109WAT     H124569   3.268   4.370   9.831
 8109WAT     H224570   3.121   4.440   9.827
 8110WAT      O24571   5.689   6.422   2.161
 8110WAT     H124572   5.609   6.473   2.191
 8110WAT     H224573   5.752   6.484   2.114
 8111WAT      O24574   9.659   1.716   5.496
 8111WAT     H124575   9.759   1.724   5.489
 8111WAT     H224576   9.616   1.774   5.427
 8112WAT      O24577   2.172   2.412   2.570
 8112WAT     H124578   2.101   2.372   2.514
 8112WAT     H224579   2.169   2.373   2.662
 8113WAT      O24580   9.593   8.777   7.203
 8113WAT     H124581   9.637   8.803   7.289
 8113WAT     H224582   9.564   8.682   7.207
 8114WAT      O24583   5.189   7.396   7.465
 8114WAT     H124584   5.184   7.421   7.368
 8114WAT     H224585   5.112   7.336   7.487
 8115WAT      O24586   9.585   2.310   0.885
 8115WAT     H124587   9.661   2.246   0.875
 8115WAT     H224588   9.590   2.353   0.975
 8116WAT      O24589   4.381   0.121   2.297
 8116WAT     H124590   4.341   0.073   2.375
 8116WAT     H224591   4.327   0.103   2.215
 8117WAT      O24592   3.322   4.974   1.694
 8117WAT     H124593   3.390   4.982   1.768
 8117WAT     H224594   3.361   5.010   1.609
 8118WAT      O24595   8.887   5.951   0.027
 8118WAT     H124596   8.848   5.871   0.073
 8118WAT     H224597   8.983   5.961   0.052
 8119WAT      O24598   4.430   1.875   6.851
 8119WAT     H124599   4.336   1.852   6.825
 8119WAT     H224600   4.431   1.911   6.944
 8120WAT      O24601   5.289   1.516   9.405
 8120WAT     H124602   5.225   1.592   9.397
 8120WAT     H224603   5.379   1.545   9.373
 8121WAT      O24604   9.543   4.897   5.725
 8121WAT     H124605   9.525   4.995   5.715
 8121WAT     H224606   9.550   4.874   5.822
 8122WAT      O24607   8.679   3.261   4.617
 8122WAT     H124608   8.698   3.163   4.616
 8122WAT     H224609   8.761   3.311   4.645
 8123WAT      O24610   1.203   0.978   2.494
 8123WAT     H124611   1.246   0.985   2.584
 8123WAT     H224612   1.106   0.959   2.505
 8124WAT      O24613   6.362   4.315   8.132
 8124WAT     H124614   6.298   4.268   8.071
 8124WAT     H224615   6.408   4.389   8.082
 8125WAT      O24616   0.884   6.114   2.167
 8125WAT     H124617   0.787   6.107   2.191
 8125WAT     H224618   0.904   6.056   2.088
 8126WAT      O24619   0.998   4.387   5.206
 8126WAT     H124620   1.004   4.425   5.114
 8126WAT     H224621   0.993   4.287   5.200
 8127WAT      O24622   8.126   0.059   2.049
 8127WAT     H124623   8.058   0.003   2.095
 8127WAT     H224624   8.097   0.077   1.955
 8128WAT      O24625   5.613   5.766   1.692
 8128WAT     H124626   5.568   5.709   1.761
 8128WAT     H224627   5.648   5.849   1.735
 8129WAT      O24628   2.395   7.517   2.381
 8129WAT     H124629   2.315   7.467   2.415
 8129WAT     H224630   2.472   7.455   2.372
 8130WAT      O24631   1.883   0.204   1.358
 8130WAT     H124632   1.886   0.264   1.278
 8130WAT     H224633   1.952   0.233   1.424
 8131WAT      O24634   1.693   7.631   4.149
 8131WAT     H124635   1.633   7.567   4.101
 8131WAT     H224636   1.788   7.601   4.140
 8132WAT      O24637   6.780   0.741   7.598
 8132WAT     H124638   6.724   0.820   7.572
 8132WAT     H224639   6.782   0.732   7.697
 8133WAT      O24640   2.338   7.788   5.463
 8133WAT     H124641   2.435   7.771   5.480
 8133WAT     H224642   2.321   7.793   5.364
 8134WAT      O24643   7.998   4.178   6.958
 8134WAT     H124644   8.014   4.086   6.921
 8134WAT     H224645   8.086   4.219   6.982
 8135WAT      O24646   5.107   0.590   6.721
 8135WAT     H124647   5.009   0.593   6.705
 8135WAT     H224648   5.136   0.676   6.763
 8136WAT      O24649   1.028   8.335   3.149
 8136WAT     H124650   0.976   8.360   3.231
 8136WAT     H224651   1.124   8.324   3.173
 8137WAT      O24652   4.809   5.993   1.976
 8137WAT     H124653   4.908   6.002   1.980
 8137WAT     H224654   4.783   5.897   1.975
 8138WAT      O24655   4.338   8.360   2.473
 8138WAT     H124656   4.367   8.284   2.531
 8138WAT     H224657   4.414   8.423   2.459
 8139WAT      O24658   3.229   8.796   4.607
 8139WAT     H124659   3.141   8.818   4.649
 8139WAT     H224660   3.295   8.868   4.628
 8140WAT      O24661   4.237   3.561   7.837
 8140WAT     H124662   4.306   3.529   7.901
 8140WAT     H224663   4.254   3.522   7.747
 8141WAT      O24664   9.782   4.661   1.673
 8141WAT     H124665   9.843   4.704   1.740
 8141WAT     H224666   9.717   4.602   1.721
 8142WAT      O24667   7.765   6.974   1.761
 8142WAT     H124668   7.740   7.038   1.834
 8142WAT     H224669   7.754   6.880   1.794
 8143WAT      O24670   5.614   9.155   2.294
 8143WAT     H124671   5.523   9.137   2.257
 8143WAT     H224672   5.682   9.104   2.241
 8144WAT      O24673   8.571   1.723   2.328
 8144WAT     H124674   8.582   1.799   2.264
 8144WAT     H224675   8.612   1.748   2.416
 8145WAT      O24676   3.665   9.188   6.792
 8145WAT     H124677   3.630   9.113   6.735
 8145WAT     H224678   3.695   9.263   6.733
 8146WAT      O24679   3.791   1.168   0.251
 8146WAT     H124680   3.805   1.162   0.152
 8146WAT     H224681   3.803   1.077   0.291
 8147WAT      O24682   0.696   4.710   3.176
 8147WAT     H124683   0.604   4.675   3.157
 8147WAT     H224684   0.741   4.733   3.090
 8148WAT      O24685   4.686   6.641   3.418
 8148WAT     H124686   4.676   6.590   3.503
 8148WAT     H224687   4.777   6.625   3.379
 8149WAT      O24688   7.826   3.571   8.059
 8149WAT     H124689   7.802   3.478   8.086
 8149WAT     H224690   7.772   3.597   7.978
 8150WAT      O24691   9.242   1.620   5.798
 8150WAT     H124692   9.314   1.635   5.729
 8150WAT     H224693   9.154   1.648   5.760
 8151WAT      O24694   0.268   6.406   4.625
 8151WAT     H124695   0.344   6.414   4.689
 8151WAT     H224696   0.183   6.387   4.676
 8152WAT      O24697   1.192   5.008   5.983
 8152WAT     H124698   1.252   4.928   5.988
 8152WAT     H224699   1.140   5.016   6.068
 8153WAT      O24700   1.873   4.574   9.636
 8153WAT     H124701   1.917   4.519   9.565
 8153WAT     H224702   1.774   4.578   9.619
 8154WAT      O24703   1.946   7.662   2.686
 8154WAT     H124704   2.031   7.715   2.685
 8154WAT     H224705   1.869   7.722   2.706
 8155WAT      O24706   0.844   9.112   2.949
 8155WAT     H124707   0.934   9.067   2.949
 8155WAT     H224708   0.826   9.152   2.860
 8156WAT      O24709   8.345   8.044   5.628
 8156WAT     H124710   8.392   8.016   5.712
 8156WAT     H224711   8.249   8.016   5.632
 8157WAT      O24712   6.971   5.231   9.109
 8157WAT     H124713   6.888   5.203   9.157
 8157WAT     H224714   6.994   5.325   9.133
 8158WAT      O24715   3.908   1.074   6.220
 8158WAT     H124716   3.954   1.041   6.137
 8158WAT     H224717   3.863   0.997   6.266
 8159WAT      O24718   0.247   4.131   2.561
 8159WAT     H124719   0.164   4.161   2.512
 8159WAT     H224720   0.221   4.066   2.632
 8160WAT      O24721   1.238   9.281   5.452
 8160WAT     H124722   1.233   9.230   5.367
 8160WAT     H224723   1.186   9.366   5.445
 8161WAT      O24724   4.232   1.127   9.506
 8161WAT     H124725   4.224   1.213   9.456
 8161WAT     H224726   4.260   1.055   9.443
 8162WAT      O24727   9.543   1.963   8.824
 8162WAT     H124728   9.574   1.940   8.916
 8162WAT     H224729   9.459   2.017   8.829
 8163WAT      O24730   9.631   8.404   8.259
 8163WAT     H124731   9.661   8.426   8.166
 8163WAT     H224732   9.550   8.346   8.255
 8164WAT      O24733   6.756   9.655   1.923
 8164WAT     H124734   6.689   9.586   1.949
 8164WAT     H224735   6.713   9.721   1.861
 8165WAT      O24736   9.157   7.392   3.290
 8165WAT     H124737   9.091   7.398   3.215
 8165WAT     H224738   9.118   7.433   3.373
 8166WAT      O24739   6.620   3.359   9.469
 8166WAT     H124740   6.548   3.345   9.538
 8166WAT     H224741   6.670   3.443   9.489
 8167WAT      O24742   5.044   2.908   2.214
 8167WAT     H124743   5.034   2.986   2.277
 8167WAT     H224744   5.107   2.932   2.141
 8168WAT      O24745   1.800   7.581   9.854
 8168WAT     H124746   1.834   7.610   9.943
 8168WAT     H224747   1.736   7.649   9.818
 8169WAT      O24748   4.065   5.258   5.637
 8169WAT     H124749   3.973   5.224   5.618
 8169WAT     H224750   4.114   5.271   5.550
 8170WAT      O24751   8.712   5.636   0.630
 8170WAT     H124752   8.618   5.668   0.645
 8170WAT     H224753   8.711   5.538   0.610
 8171WAT      O24754   0.147   4.389   1.716
 8171WAT     H124755   0.093   4.382   1.633
 8171WAT     H224756   0.094   4.433   1.788
 8172WAT      O24757   1.641   8.191   2.685
 8172WAT     H124758   1.675   8.131   2.613
 8172WAT     H224759   1.708   8.262   2.704
 8173WAT      O24760   5.244   3.169   3.233
 8173WAT     H124761   5.157   3.200   3.273
 8173WAT     H224762   5.280   3.239   3.172
 8174WAT      O24763   7.239   3.694   2.690
 8174WAT     H124764   7.147   3.713   2.654
 8174WAT     H224765   7.243   3.599   2.721
 8175WAT      O24766   6.986   4.564   5.194
 8175WAT     H124767   6.887   4.578   5.200
 8175WAT     H224768   7.028   4.587   5.282
 8176WAT      O24769   6.551   7.038   2.651
 8176WAT     H124770   6.634   7.081   2.685
 8176WAT     H224771   6.493   7.011   2.728
 8177WAT      O24772   6.051   7.440   1.944
 8177WAT     H124773   6.056   7.396   2.033
 8177WAT     H224774   6.134   7.420   1.892
 8178WAT      O24775   4.008   6.331   3.695
 8178WAT     H124776   4.101   6.350   3.728
 8178WAT     H224777   3.968   6.415   3.658
 8179WAT      O24778   0.819   5.968   2.575
 8179WAT     H124779   0.781   5.885   2.614
 8179WAT     H224780   0.870   5.946   2.492
 8180WAT      O24781   3.757   8.561   1.702
 8180WAT     H124782   3.658   8.565   1.691
 8180WAT     H224783   3.780   8.523   1.792
 8181WAT      O24784   8.274   4.259   3.043
 8181WAT     H124785   8.223   4.314   2.977
 8181WAT     H224786   8.371   4.285   3.040
 8182WAT      O24787   2.575   0.656   0.342
 8182WAT     H124788   2.663   0.608   0.337
 8182WAT     H224789   2.523   0.638   0.258
 8183WAT      O24790   7.863   0.634   2.188
 8183WAT     H124791   7.773   0.593   2.206
 8183WAT     H224792   7.930   0.563   2.170
 8184WAT      O24793   4.344   2.362   7.598
 8184WAT     H124794   4.387   2.419   7.528
 8184WAT     H224795   4.248   2.346   7.574
 8185WAT      O24796   3.664   3.670   3.329
 8185WAT     H124797   3.596   3.635   3.265
 8185WAT     H224798   3.632   3.755   3.370
 8186WAT      O24799   4.891   3.266   9.573
 8186WAT     H124800   4.946   3.189   9.606
 8186WAT     H224801   4.794   3.248   9.588
 8187WAT      O24802   0.007   5.491   9.053
 8187WAT     H124803  -0.059   5.560   9.084
 8187WAT     H224804   0.033   5.434   9.131
 8188WAT      O24805   2.144   0.646   4.167
 8188WAT     H124806   2.236   0.679   4.148
 8188WAT     H224807   2.147   0.580   4.242
 8189WAT      O24808   9.862   8.304   2.579
 8189WAT     H124809   9.950   8.309   2.627
 8189WAT     H224810   9.789   8.335   2.640
 8190WAT      O24811   9.395   7.669   2.609
 8190WAT     H124812   9.490   7.649   2.633
 8190WAT     H224813   9.393   7.728   2.528
 8191WAT      O24814   3.248   6.588   3.593
 8191WAT     H124815   3.238   6.491   3.612
 8191WAT     H224816   3.344   6.609   3.572
 8192WAT      O24817   0.176   9.730   0.019
 8192WAT     H124818   0.200   9.823  -0.009
 8192WAT     H224819   0.080   9.728   0.047
 8193WAT      O24820   3.293   8.656   7.538
 8193WAT     H124821   3.318   8.748   7.569
 8193WAT     H224822   3.214   8.623   7.590
 8194WAT      O24823   0.276   2.874   0.937
 8194WAT     H124824   0.224   2.959   0.947
 8194WAT     H224825   0.224   2.808   0.883
 8195WAT      O24826   5.635   7.818   6.081
 8195WAT     H124827   5.708   7.842   6.016
 8195WAT     H224828   5.570   7.894   6.087
 8196WAT      O24829   9.100   0.899   7.768
 8196WAT     H124830   9.050   0.974   7.724
 8196WAT     H224831   9.182   0.936   7.811
 8197WAT      O24832   7.204   4.192   9.278
 8197WAT     H124833   7.219   4.102   9.318
 8197WAT     H224834   7.110   4.199   9.245
 8198WAT      O24835   1.766   0.043   8.329
 8198WAT     H124836   1.727   0.135   8.323
 8198WAT     H224837   1.694  -0.021   8.356
 8199WAT      O24838   6.145   7.080   5.751
 8199WAT     H124839   6.046   7.068   5.740
 8199WAT     H224840   6.193   6.999   5.717
 8200WAT      O24841   7.015   0.505   9.433
 8200WAT     H124842   6.975   0.491   9.342
 8200WAT     H224843   7.113   0.490   9.430
 8201WAT      O24844   3.361   6.596   8.091
 8201WAT     H124845   3.425   6.573   8.165
 8201WAT     H224846   3.308   6.515   8.067
 8202WAT      O24847   4.232   5.434   6.530
 8202WAT     H124848   4.216   5.506   6.598
 8202WAT     H224849   4.295   5.366   6.568
 8203WAT      O24850   1.779   5.387   1.321
 8203WAT     H124851   1.841   5.432   1.386
 8203WAT     H224852   1.685   5.414   1.341
 8204WAT      O24853   6.874   5.822   7.533
 8204WAT     H124854   6.912   5.862   7.450
 8204WAT     H224855   6.893   5.724   7.534
 8205WAT      O24856   0.572   1.505   3.924
 8205WAT     H124857   0.560   1.435   3.994
 8205WAT     H224858   0.570   1.595   3.967
 8206WAT      O24859   0.054   3.829   8.180
 8206WAT     H124860   0.124   3.885   8.223
 8206WAT     H224861   0.031   3.751   8.239
 8207WAT      O24862   3.512   1.077   8.238
 8207WAT     H124863   3.504   1.081   8.338
 8207WAT     H224864   3.445   1.012   8.202
 8208WAT      O24865   2.900   8.798   6.708
 8208WAT     H124866   2.959   8.726   6.671
 8208WAT     H224867   2.807   8.786   6.672
 8209WAT      O24868   1.121   2.115   2.210
 8209WAT     H124869   1.175   2.135   2.292
 8209WAT     H224870   1.174   2.137   2.128
 8210WAT      O24871   5.903   8.348   7.081
 8210WAT     H124872   5.828   8.411   7.059
 8210WAT     H224873   5.973   8.353   7.010
 8211WAT      O24874   6.429   3.884   8.934
 8211WAT     H124875   6.454   3.873   8.838
 8211WAT     H224876   6.494   3.834   8.991
 8212WAT      O24877   6.234   2.408   9.281
 8212WAT     H124878   6.235   2.378   9.377
 8212WAT     H224879   6.143   2.441   9.258
 8213WAT      O24880   5.170   8.424   2.672
 8213WAT     H124881   5.089   8.393   2.624
 8213WAT     H224882   5.158   8.410   2.770
 8214WAT      O24883   1.735   3.819   3.145
 8214WAT     H124884   1.759   3.842   3.050
 8214WAT     H224885   1.635   3.815   3.153
 8215WAT      O24886   9.069   6.516   4.725
 8215WAT     H124887   9.155   6.551   4.760
 8215WAT     H224888   9.058   6.420   4.752
 8216WAT      O24889   7.617   5.509   6.495
 8216WAT     H124890   7.523   5.474   6.489
 8216WAT     H224891   7.614   5.606   6.519
 8217WAT      O24892   1.098   8.629   1.735
 8217WAT     H124893   1.072   8.684   1.815
 8217WAT     H224894   1.111   8.534   1.763
 8218WAT      O24895   4.712   0.591   9.694
 8218WAT     H124896   4.629   0.588   9.750
 8218WAT     H224897   4.715   0.678   9.644
 8219WAT      O24898   3.153   5.507   0.580
 8219WAT     H124899   3.241   5.520   0.626
 8219WAT     H224900   3.155   5.422   0.527
 8220WAT      O24901   0.344   5.970   1.912
 8220WAT     H124902   0.328   6.015   1.824
 8220WAT     H224903   0.327   5.871   1.902
 8221WAT      O24904   7.597   4.158   5.131
 8221WAT     H124905   7.680   4.193   5.089
 8221WAT     H224906   7.620   4.086   5.196
 8222WAT      O24907   8.351   8.214   8.024
 8222WAT     H124908   8.424   8.242   7.961
 8222WAT     H224909   8.320   8.122   8.000
 8223WAT      O24910   3.214   4.711   1.521
 8223WAT     H124911   3.215   4.612   1.536
 8223WAT     H224912   3.294   4.752   1.565
 8224WAT      O24913   4.856   4.374   2.883
 8224WAT     H124914   4.850   4.305   2.955
 8224WAT     H224915   4.911   4.339   2.808
 8225WAT      O24916   3.166   2.596   6.993
 8225WAT     H124917   3.141   2.503   6.967
 8225WAT     H224918   3.083   2.652   6.999
 8226WAT      O24919   9.228   4.977   5.082
 8226WAT     H124920   9.155   4.999   5.147
 8226WAT     H224921   9.285   5.057   5.068
 8227WAT      O24922   6.241   0.662   0.886
 8227WAT     H124923   6.269   0.627   0.797
 8227WAT     H224924   6.310   0.638   0.955
 8228WAT      O24925   0.848   2.082   1.651
 8228WAT     H124926   0.831   2.076   1.553
 8228WAT     H224927   0.925   2.023   1.675
 8229WAT      O24928   7.543   5.950   1.303
 8229WAT     H124929   7.536   6.031   1.244
 8229WAT     H224930   7.469   5.886   1.281
 8230WAT      O24931   2.541   6.244   8.623
 8230WAT     H124932   2.611   6.255   8.693
 8230WAT     H224933   2.562   6.303   8.545
 8231WAT      O24934   3.024   2.384   2.346
 8231WAT     H124935   3.117   2.381   2.383
 8231WAT     H224936   2.974   2.303   2.377
 8232WAT      O24937   6.827   3.167   5.680
 8232WAT     H124938   6.858   3.183   5.587
 8232WAT     H224939   6.755   3.097   5.679
 8233WAT      O24940   5.963   0.513   1.982
 8233WAT     H124941   6.034   0.482   1.919
 8233WAT     H224942   5.879   0.530   1.931
 8234WAT      O24943   5.620   7.466   1.372
 8234WAT     H124944   5.626   7.565   1.362
 8234WAT     H224945   5.566   7.427   1.297
 8235WAT      O24946   2.147   6.054   9.548
 8235WAT     H124947   2.129   5.957   9.533
 8235WAT     H224948   2.111   6.108   9.472
 8236WAT      O24949   7.125   2.596   2.635
 8236WAT     H124950   7.057   2.523   2.650
 8236WAT     H224951   7.119   2.663   2.709
 8237WAT      O24952   0.616   3.868   7.793
 8237WAT     H124953   0.565   3.911   7.718
 8237WAT     H224954   0.714   3.867   7.771
 8238WAT      O24955   4.096   8.163   2.596
 8238WAT     H124956   4.136   8.082   2.554
 8238WAT     H224957   4.031   8.205   2.532
 8239WAT      O24958   6.859   6.501   7.378
 8239WAT     H124959   6.871   6.596   7.408
 8239WAT     H224960   6.941   6.448   7.400
 8240WAT      O24961   1.094   4.801   3.945
 8240WAT     H124962   1.092   4.786   3.846
 8240WAT     H224963   1.018   4.862   3.970
 8241WAT      O24964   0.314   7.644   9.290
 8241WAT     H124965   0.366   7.729   9.301
 8241WAT     H224966   0.217   7.662   9.306
 8242WAT      O24967   8.646   0.683   9.395
 8242WAT     H124968   8.710   0.759   9.411
 8242WAT     H224969   8.592   0.701   9.313
 8243WAT      O24970   5.236   0.351   4.221
 8243WAT     H124971   5.157   0.350   4.159
 8243WAT     H224972   5.204   0.337   4.315
 8244WAT      O24973   8.059   5.204   6.983
 8244WAT     H124974   8.004   5.121   6.977
 8244WAT     H224975   8.059   5.238   7.077
 8245WAT      O24976   2.551   5.672   7.590
 8245WAT     H124977   2.609   5.691   7.511
 8245WAT     H224978   2.482   5.743   7.600
 8246WAT      O24979   3.464   8.612   8.869
 8246WAT     H124980   3.556   8.584   8.843
 8246WAT     H224981   3.470   8.685   8.938
 8247WAT      O24982   9.157   5.935   3.576
 8247WAT     H124983   9.151   5.836   3.588
 8247WAT     H224984   9.149   5.980   3.665
 8248WAT      O24985   9.688   4.156   6.699
 8248WAT     H124986   9.696   4.250   6.665
 8248WAT     H224987   9.682   4.156   6.798
 8249WAT      O24988   2.239   1.235   0.863
 8249WAT     H124989   2.318   1.297   0.862
 8249WAT     H224990   2.156   1.288   0.877
 8250WAT      O24991   3.582   6.524   3.675
 8250WAT     H124992   3.628   6.440   3.704
 8250WAT     H224993   3.556   6.577   3.756
 8251WAT      O24994   4.655   6.816   8.957
 8251WAT     H124995   4.624   6.747   9.022
 8251WAT     H224996   4.629   6.906   8.990
 8252WAT      O24997   1.303   9.449   0.486
 8252WAT     H124998   1.245   9.429   0.565
 8252WAT     H224999   1.246   9.456   0.404
 8253WAT      O25000   5.643   1.752   1.674
 8253WAT     H125001   5.694   1.686   1.619
 8253WAT     H225002   5.629   1.836   1.621
 8254WAT      O25003   2.858   9.216   0.220
 8254WAT     H125004   2.877   9.147   0.289
 8254WAT     H225005   2.845   9.171   0.131
 8255WAT      O25006   4.329   1.927   2.089
 8255WAT     H125007   4.298   1.954   1.997
 8255WAT     H225008   4.373   2.005   2.133
 8256WAT      O25009   4.976   9.130   0.208
 8256WAT     H125010   4.937   9.102   0.295
 8256WAT     H225011   4.995   9.228   0.210
 8257WAT      O25012   6.103   0.680   0.302
 8257WAT     H125013   6.143   0.766   0.335
 8257WAT     H225014   6.176   0.623   0.263
 8258WAT      O25015   1.792   2.100   6.201
 8258WAT     H125016   1.804   2.199   6.198
 8258WAT     H225017   1.708   2.078   6.250
 8259WAT      O25018   9.880   6.031   9.127
 8259WAT     H125019   9.917   6.095   9.060
 8259WAT     H225020   9.803   6.073   9.176
 8260WAT      O25021   7.428   0.467   7.999
 8260WAT     H125022   7.442   0.482   7.901
 8260WAT     H225023   7.504   0.413   8.035
 8261WAT      O25024   8.706   5.387   5.006
 8261WAT     H125025   8.763   5.463   4.975
 8261WAT     H225026   8.619   5.387   4.955
 8262WAT      O25027   5.485   1.918   0.412
 8262WAT     H125028   5.569   1.968   0.395
 8262WAT     H225029   5.470   1.910   0.511
 8263WAT      O25030   4.449   1.275   8.441
 8263WAT     H125031   4.453   1.206   8.368
 8263WAT     H225032   4.510   1.351   8.419
 8264WAT      O25033   6.720   8.741   5.025
 8264WAT     H125034   6.721   8.663   5.088
 8264WAT     H225035   6.642   8.733   4.963
 8265WAT      O25036   2.854   4.933   7.301
 8265WAT     H125037   2.865   5.033   7.303
 8265WAT     H225038   2.876   4.899   7.209
 8266WAT      O25039   0.496   8.251   6.310
 8266WAT     H125040   0.401   8.282   6.305
 8266WAT     H225041   0.556   8.325   6.278
 8267WAT      O25042   4.991   8.047   5.453
 8267WAT     H125043   5.031   7.990   5.381
 8267WAT     H225044   5.029   8.139   5.450
 8268WAT      O25045   6.476   4.786   3.380
 8268WAT     H125046   6.425   4.822   3.302
 8268WAT     H225047   6.524   4.703   3.354
 8269WAT      O25048   5.004   5.211   0.450
 8269WAT     H125049   5.074   5.145   0.477
 8269WAT     H225050   4.934   5.216   0.521
 8270WAT      O25051   4.264   1.353   6.344
 8270WAT     H125052   4.329   1.406   6.399
 8270WAT     H225053   4.245   1.266   6.390
 8271WAT      O25054   1.785   1.474   5.903
 8271WAT     H125055   1.877   1.437   5.900
 8271WAT     H225056   1.741   1.464   5.813
 8272WAT      O25057   7.450   3.289   2.100
 8272WAT     H125058   7.447   3.382   2.063
 8272WAT     H225059   7.502   3.289   2.185
 8273WAT      O25060   9.169   0.691   6.927
 8273WAT     H125061   9.259   0.677   6.886
 8273WAT     H225062   9.179   0.747   7.010
 8274WAT      O25063   3.737   4.038   4.976
 8274WAT     H125064   3.735   4.131   4.939
 8274WAT     H225065   3.747   3.973   4.900
 8275WAT      O25066   1.525   8.325   9.286
 8275WAT     H125067   1.540   8.287   9.378
 8275WAT     H225068   1.507   8.423   9.294
 8276WAT      O25069   3.371   6.677   7.108
 8276WAT     H125070   3.336   6.630   7.026
 8276WAT     H225071   3.457   6.634   7.137
 8277WAT      O25072   9.699   6.076   5.174
 8277WAT     H125073   9.666   6.167   5.146
 8277WAT     H225074   9.684   6.011   5.099
 8278WAT      O25075   5.436   2.007   4.815
 8278WAT     H125076   5.389   2.050   4.892
 8278WAT     H225077   5.369   1.972   4.750
 8279WAT      O25078   5.062   5.987   6.669
 8279WAT     H125079   5.001   5.935   6.609
 8279WAT     H225080   5.151   5.999   6.625
 8280WAT      O25081   3.035   4.975   6.221
 8280WAT     H125082   2.945   4.956   6.183
 8280WAT     H225083   3.030   4.976   6.321
 8281WAT      O25084   1.947   1.554   9.217
 8281WAT     H125085   1.907   1.645   9.203
 8281WAT     H225086   2.046   1.560   9.209
 8282WAT      O25087   0.683   5.175   9.203
 8282WAT     H125088   0.597   5.216   9.232
 8282WAT     H225089   0.721   5.121   9.278
 8283WAT      O25090   1.560   5.013   9.039
 8283WAT     H125091   1.489   5.070   8.997
 8283WAT     H225092   1.582   5.050   9.130
 8284WAT      O25093   5.922   5.430   2.686
 8284WAT     H125094   5.919   5.522   2.724
 8284WAT     H225095   5.892   5.364   2.756
 8285WAT      O25096   4.293   1.605   0.140
 8285WAT     H125097   4.248   1.530   0.188
 8285WAT     H225098   4.231   1.644   0.073
 8286WAT      O25099   9.378   6.599   2.430
 8286WAT     H125100   9.302   6.541   2.461
 8286WAT     H225101   9.427   6.635   2.510
 8287WAT      O25102   8.261   2.935   6.607
 8287WAT     H125103   8.207   2.930   6.691
 8287WAT     H225104   8.260   3.030   6.573
 8288WAT      O25105   9.234   3.303   3.146
 8288WAT     H125106   9.322   3.279   3.187
 8288WAT     H225107   9.186   3.368   3.205
 8289WAT      O25108   8.722   2.895   1.886
 8289WAT     H125109   8.771   2.899   1.798
 8289WAT     H225110   8.763   2.960   1.950
 8290WAT      O25111   6.371   2.586   0.432
 8290WAT     H125112   6.276   2.604   0.407
 8290WAT     H225113   6.390   2.488   0.423
 8291WAT      O25114   9.061   1.122   2.282
 8291WAT     H125115   8.981   1.084   2.237
 8291WAT     H225116   9.127   1.153   2.213
 8292WAT      O25117   4.635   1.473   8.419
 8292WAT     H125118   4.653   1.485   8.321
 8292WAT     H225119   4.618   1.562   8.461
 8293WAT      O25120   5.737   3.556   8.276
 8293WAT     H125121   5.694   3.467   8.289
 8293WAT     H225122   5.794   3.578   8.355
 8294WAT      O25123   3.414   9.730   2.930
 8294WAT     H125124   3.495   9.732   2.872
 8294WAT     H225125   3.381   9.636   2.939
 8295WAT      O25126   5.061   1.136   5.692
 8295WAT     H125127   5.092   1.075   5.620
 8295WAT     H225128   5.089   1.100   5.781
 8296WAT      O25129   2.988   5.442   7.523
 8296WAT     H125130   2.919   5.452   7.594
 8296WAT     H225131   3.031   5.352   7.531
 8297WAT      O25132   6.267   5.081   7.496
 8297WAT     H125133   6.231   5.073   7.589
 8297WAT     H225134   6.319   4.998   7.474
 8298WAT      O25135   0.325   5.123   2.702
 8298WAT     H125136   0.327   5.152   2.606
 8298WAT     H225137   0.408   5.154   2.748
 8299WAT      O25138   8.894   2.032   3.250
 8299WAT     H125139   8.934   2.088   3.323
 8299WAT     H225140   8.817   1.980   3.286
 8300WAT      O25141   2.174   3.679   5.016
 8300WAT     H125142   2.092   3.656   4.964
 8300WAT     H225143   2.148   3.734   5.096
 8301WAT      O25144   5.960   4.225   3.049
 8301WAT     H125145   5.893   4.187   2.984
 8301WAT     H225146   5.927   4.211   3.142
 8302WAT      O25147   1.121   9.643   1.949
 8302WAT     H125148   1.030   9.603   1.939
 8302WAT     H225149   1.176   9.586   2.010
 8303WAT      O25150   7.277   7.334   6.297
 8303WAT     H125151   7.250   7.280   6.217
 8303WAT     H225152   7.202   7.338   6.362
 8304WAT      O25153   3.456   1.387   0.849
 8304WAT     H125154   3.452   1.331   0.766
 8304WAT     H225155   3.420   1.335   0.926
 8305WAT      O25156   2.415   8.505   6.709
 8305WAT     H125157   2.331   8.551   6.739
 8305WAT     H225158   2.456   8.556   6.633
 8306WAT      O25159   2.764   8.230   6.535
 8306WAT     H125160   2.749   8.310   6.477
 8306WAT     H225161   2.778   8.149   6.477
 8307WAT      O25162   7.256   4.640   2.493
 8307WAT     H125163   7.251   4.551   2.448
 8307WAT     H225164   7.274   4.628   2.591
 8308WAT      O25165   6.228   9.830   7.628
 8308WAT     H125166   6.287   9.815   7.707
 8308WAT     H225167   6.280   9.875   7.555
 8309WAT      O25168   5.646   6.639   6.551
 8309WAT     H125169   5.656   6.662   6.454
 8309WAT     H225170   5.692   6.709   6.606
 8310WAT      O25171   0.590   5.813   2.157
 8310WAT     H125172   0.682   5.784   2.185
 8310WAT     H225173   0.597   5.896   2.102
 8311WAT      O25174   8.409   2.041   2.377
 8311WAT     H125175   8.349   2.015   2.453
 8311WAT     H225176   8.426   2.140   2.381
 8312WAT      O25177   8.041   3.390   9.534
 8312WAT     H125178   8.032   3.481   9.495
 8312WAT     H225179   8.127   3.384   9.586
 8313WAT      O25180   8.139   6.152   7.090
 8313WAT     H125181   8.234   6.149   7.061
 8313WAT     H225182   8.123   6.235   7.144
 8314WAT      O25183   8.277   6.764   8.724
 8314WAT     H125184   8.184   6.743   8.754
 8314WAT     H225185   8.292   6.728   8.633
 8315WAT      O25186   3.005   5.113   3.974
 8315WAT     H125187   3.080   5.179   3.963
 8315WAT     H225188   3.041   5.020   3.967
 8316WAT      O25189   3.291   5.001   9.013
 8316WAT     H125190   3.285   4.943   9.094
 8316WAT     H225191   3.272   4.946   8.932
 8317WAT      O25192   0.942   8.936   6.614
 8317WAT     H125193   0.973   8.846   6.582
 8317WAT     H225194   0.843   8.943   6.602
 8318WAT      O25195   1.912   9.188   9.683
 8318WAT     H125196   1.895   9.236   9.770
 8318WAT     H225197   1.857   9.105   9.680
 8319WAT      O25198   3.842   8.648   3.051
 8319WAT     H125199   3.772   8.694   2.997
 8319WAT     H225200   3.831   8.549   3.041
 8320WAT      O25201   1.685   4.146   6.637
 8320WAT     H125202   1.751   4.108   6.572
 8320WAT     H225203   1.604   4.178   6.588
 8321WAT      O25204   0.748   7.295   5.936
 8321WAT     H125205   0.742   7.300   6.036
 8321WAT     H225206   0.738   7.387   5.897
 8322WAT      O25207   4.163   4.556   7.174
 8322WAT     H125208   4.140   4.518   7.264
 8322WAT     H225209   4.256   4.529   7.149
 8323WAT      O25210   2.474   2.132   4.062
 8323WAT     H125211   2.564   2.115   4.021
 8323WAT     H225212   2.405   2.135   3.990
 8324WAT      O25213   9.769   1.130   2.207
 8324WAT     H125214   9.805   1.198   2.270
 8324WAT     H225215   9.809   1.144   2.116
 8325WAT      O25216   5.040   8.906   1.958
 8325WAT     H125217   5.007   8.950   1.875
 8325WAT     H225218   5.066   8.811   1.938
 8326WAT      O25219   9.354   1.290   8.487
 8326WAT     H125220   9.440   1.336   8.464
 8326WAT     H225221   9.338   1.298   8.586
 8327WAT      O25222   3.508   3.769   0.320
 8327WAT     H125223   3.519   3.679   0.362
 8327WAT     H225224   3.563   3.774   0.237
 8328WAT      O25225   8.312   4.840   8.930
 8328WAT     H125226   8.287   4.890   9.012
 8328WAT     H225227   8.308   4.902   8.851
 8329WAT      O25228   4.888   0.838   3.623
 8329WAT     H125229   4.938   0.804   3.543
 8329WAT     H225230   4.953   0.863   3.695
 8330WAT      O25231   6.111   1.648   5.178
 8330WAT     H125232   6.199   1.619   5.214
 8330WAT     H225233   6.114   1.646   5.078
 8331WAT      O25234   8.076   2.898   8.510
 8331WAT     H125235   8.161   2.884   8.561
 8331WAT     H225236   8.093   2.958   8.432
 8332WAT      O25237   1.006   6.373   1.055
 8332WAT     H125238   1.046   6.378   0.963
 8332WAT     H225239   0.914   6.412   1.054
 8333WAT      O25240   6.765   8.864   5.465
 8333WAT     H125241   6.670   8.840   5.487
 8333WAT     H225242   6.827   8.806   5.518
 8334WAT      O25243   6.067   9.470   7.806
 8334WAT     H125244   6.105   9.541   7.866
 8334WAT     H225245   6.138   9.437   7.744
 8335WAT      O25246   2.074   0.793   1.007
 8335WAT     H125247   2.002   0.809   0.940
 8335WAT     H225248   2.057   0.707   1.055
 8336WAT      O25249   1.962   7.915   7.067
 8336WAT     H125250   1.883   7.861   7.095
 8336WAT     H225251   2.005   7.956   7.148
 8337WAT      O25252   1.560   2.139   7.406
 8337WAT     H125253   1.579   2.042   7.419
 8337WAT     H225254   1.512   2.151   7.319
 8338WAT      O25255   7.742   6.758   5.260
 8338WAT     H125256   7.707   6.676   5.215
 8338WAT     H225257   7.697   6.839   5.223
 8339WAT      O25258   9.487   6.224   9.655
 8339WAT     H125259   9.509   6.265   9.743
 8339WAT     H225260   9.413   6.158   9.666
 8340WAT      O25261   3.921   1.987   5.622
 8340WAT     H125262   3.954   1.947   5.537
 8340WAT     H225263   3.992   1.983   5.692
 8341WAT      O25264   9.170   3.157   7.456
 8341WAT     H125265   9.175   3.079   7.519
 8341WAT     H225266   9.150   3.124   7.364
 8342WAT      O25267   7.060   1.879   8.169
 8342WAT     H125268   7.123   1.824   8.114
 8342WAT     H225269   7.039   1.964   8.121
 8343WAT      O25270   5.551   6.776   2.613
 8343WAT     H125271   5.523   6.871   2.622
 8343WAT     H225272   5.569   6.737   2.703
 8344WAT      O25273   3.092   9.723   6.781
 8344WAT     H125274   3.115   9.658   6.853
 8344WAT     H225275   3.005   9.767   6.803
 8345WAT      O25276   8.428   3.622   4.127
 8345WAT     H125277   8.422   3.536   4.178
 8345WAT     H225278   8.364   3.621   4.050
 8346WAT      O25279   6.278   0.640   9.162
 8346WAT     H125280   6.350   0.600   9.105
 8346WAT     H225281   6.286   0.740   9.160
 8347WAT      O25282   8.998   9.709   1.193
 8347WAT     H125283   8.964   9.695   1.100
 8347WAT     H225284   9.096   9.732   1.190
 8348WAT      O25285   0.781   1.386   2.319
 8348WAT     H125286   0.780   1.318   2.246
 8348WAT     H225287   0.800   1.476   2.280
 8349WAT      O25288   1.473   2.822   1.143
 8349WAT     H125289   1.385   2.828   1.096
 8349WAT     H225290   1.458   2.823   1.242
 8350WAT      O25291   3.073   5.183   6.914
 8350WAT     H125292   3.139   5.190   6.989
 8350WAT     H225293   2.984   5.216   6.945
 8351WAT      O25294   3.089   0.380   8.825
 8351WAT     H125295   3.187   0.363   8.836
 8351WAT     H225296   3.075   0.476   8.801
 8352WAT      O25297   0.898   0.866   1.566
 8352WAT     H125298   0.908   0.963   1.585
 8352WAT     H225299   0.829   0.826   1.627
 8353WAT      O25300   8.849   1.203   7.480
 8353WAT     H125301   8.817   1.287   7.523
 8353WAT     H225302   8.808   1.194   7.389
 8354WAT      O25303   4.915   0.517   5.441
 8354WAT     H125304   4.982   0.446   5.461
 8354WAT     H225305   4.823   0.485   5.465
 8355WAT      O25306   4.433   3.864   8.832
 8355WAT     H125307   4.453   3.851   8.735
 8355WAT     H225308   4.519   3.859   8.884
 8356WAT      O25309   4.283   6.420   3.593
 8356WAT     H125310   4.312   6.330   3.559
 8356WAT     H225311   4.335   6.491   3.545
 8357WAT      O25312   2.143   0.268   1.165
 8357WAT     H125313   2.108   0.192   1.110
 8357WAT     H225314   2.166   0.234   1.256
 8358WAT      O25315   2.675   2.200   4.889
 8358WAT     H125316   2.666   2.177   4.986
 8358WAT     H225317   2.744   2.141   4.846
 8359WAT      O25318   1.922   5.279   7.690
 8359WAT     H125319   1.846   5.245   7.634
 8359WAT     H225320   1.912   5.378   7.704
 8360WAT      O25321   4.437   6.406   7.477
 8360WAT     H125322   4.460   6.478   7.411
 8360WAT     H225323   4.435   6.317   7.430
 8361WAT      O25324   0.490   2.426   1.401
 8361WAT     H125325   0.473   2.335   1.441
 8361WAT     H225326   0.403   2.475   1.394
 8362WAT      O25327   5.045   9.173   1.016
 8362WAT     H125328   5.100   9.113   1.075
 8362WAT     H225329   5.019   9.122   0.933
 8363WAT      O25330   4.289   3.529   4.501
 8363WAT     H125331   4.207   3.479   4.529
 8363WAT     H225332   4.364   3.509   4.565
 8364WAT      O25333   0.316   6.196   0.959
 8364WAT     H125334   0.369   6.205   0.874
 8364WAT     H225335   0.365   6.136   1.022
 8365WAT      O25336   0.719   2.512   0.995
 8365WAT     H125337   0.629   2.493   1.035
 8365WAT     H225338   0.747   2.435   0.939
 8366WAT      O25339   8.155   4.947   8.177
 8366WAT     H125340   8.136   4.915   8.084
 8366WAT     H225341   8.189   5.041   8.173
 8367WAT      O25342   3.819   1.939   8.779
 8367WAT     H125343   3.912   1.957   8.747
 8367WAT     H225344   3.754   1.994   8.728
 8368WAT      O25345   2.919   7.833   5.086
 8368WAT     H125346   2.889   7.779   5.007
 8368WAT     H225347   2.858   7.911   5.098
 8369WAT      O25348   7.712   1.854   9.394
 8369WAT     H125349   7.680   1.787   9.327
 8369WAT     H225350   7.792   1.902   9.358
 8370WAT      O25351   5.664   6.973   8.091
 8370WAT     H125352   5.730   7.026   8.144
 8370WAT     H225353   5.705   6.885   8.067
 8371WAT      O25354   8.140   0.736   9.424
 8371WAT     H125355   8.174   0.656   9.473
 8371WAT     H225356   8.183   0.819   9.461
 8372WAT      O25357   3.543   1.060   4.865
 8372WAT     H125358   3.516   1.126   4.935
 8372WAT     H225359   3.461   1.024   4.820
 8373WAT      O25360   9.007   5.818   9.571
 8373WAT     H125361   9.088   5.869   9.600
 8373WAT     H225362   9.026   5.770   9.486
 8374WAT      O25363   0.386   7.768   2.683
 8374WAT     H125364   0.375   7.673   2.653
 8374WAT     H225365   0.478   7.781   2.719
 8375WAT      O25366   3.968   9.080   0.219
 8375WAT     H125367   4.059   9.107   0.187
 8375WAT     H225368   3.900   9.107   0.151
 8376WAT      O25369   1.889   8.460   4.052
 8376WAT     H125370   1.959   8.471   4.123
 8376WAT     H225371   1.880   8.364   4.028
 8377WAT      O25372   1.291   3.041   5.890
 8377WAT     H125373   1.375   3.006   5.849
 8377WAT     H225374   1.254   3.114   5.833
 8378WAT      O25375   2.232   6.484   6.849
 8378WAT     H125376   2.322   6.443   6.864
 8378WAT     H225377   2.196   6.454   6.760
 8379WAT      O25378   7.455   7.543   2.837
 8379WAT     H125379   7.417   7.635   2.839
 8379WAT     H225380   7.406   7.485   2.902
 8380WAT      O25381   3.752   4.801   1.646
 8380WAT     H125382   3.708   4.851   1.720
 8380WAT     H225383   3.793   4.866   1.581
 8381WAT      O25384   4.940   3.413   7.569
 8381WAT     H125385   4.965   3.327   7.613
 8381WAT     H225386   5.002   3.485   7.599
 8382WAT      O25387   0.230   2.590   4.395
 8382WAT     H125388   0.222   2.690   4.400
 8382WAT     H225389   0.156   2.553   4.340
 8383WAT      O25390   2.999   2.478   7.977
 8383WAT     H125391   2.934   2.408   7.948
 8383WAT     H225392   2.961   2.569   7.960
 8384WAT      O25393   2.776   6.730   4.269
 8384WAT     H125394   2.843   6.785   4.220
 8384WAT     H225395   2.739   6.782   4.346
 8385WAT      O25396   6.732   9.143   4.253
 8385WAT     H125397   6.830   9.123   4.246
 8385WAT     H225398   6.720   9.228   4.305
 8386WAT      O25399   6.951   7.628   6.392
 8386WAT     H125400   7.042   7.640   6.430
 8386WAT     H225401   6.902   7.715   6.394
 8387WAT      O25402   8.665   3.447   3.695
 8387WAT     H125403   8.566   3.438   3.688
 8387WAT     H225404   8.697   3.400   3.778
 8388WAT      O25405   2.678   7.803   3.302
 8388WAT     H125406   2.621   7.756   3.370
 8388WAT     H225407   2.764   7.752   3.290
 8389WAT      O25408   8.972   9.082   6.300
 8389WAT     H125409   8.910   9.127   6.364
 8389WAT     H225410   8.986   8.987   6.329
 8390WAT      O25411   4.318   6.333   1.691
 8390WAT     H125412   4.221   6.335   1.716
 8390WAT     H225413   4.359   6.422   1.712
 8391WAT      O25414   9.334   7.557   8.919
 8391WAT     H125415   9.329   7.474   8.975
 8391WAT     H225416   9.249   7.609   8.928
 8392WAT      O25417   5.325   1.278   1.187
 8392WAT     H125418   5.380   1.322   1.258
 8392WAT     H225419   5.304   1.343   1.114
 8393WAT      O25420   7.710   7.422   6.593
 8393WAT     H125421   7.693   7.401   6.689
 8393WAT     H225422   7.757   7.510   6.585
 8394WAT      O25423   4.572   6.745   3.066
 8394WAT     H125424   4.667   6.720   3.043
 8394WAT     H225425   4.511   6.673   3.034
 8395WAT      O25426   9.308   2.399   5.802
 8395WAT     H125427   9.302   2.299   5.801
 8395WAT     H225428   9.256   2.435   5.880
 8396WAT      O25429   7.149   6.986   4.751
 8396WAT     H125430   7.215   6.914   4.729
 8396WAT     H225431   7.172   7.069   4.699
 8397WAT      O25432   7.668   9.610   0.155
 8397WAT     H125433   7.580   9.625   0.111
 8397WAT     H225434   7.666   9.523   0.206
 8398WAT      O25435   7.695   9.318   2.365
 8398WAT     H125436   7.677   9.248   2.297
 8398WAT     H225437   7.683   9.280   2.457
 8399WAT      O25438   0.567   8.137   4.246
 8399WAT     H125439   0.645   8.085   4.210
 8399WAT     H225440   0.512   8.078   4.305
 8400WAT      O25441   7.463   0.377   5.235
 8400WAT     H125442   7.465   0.448   5.306
 8400WAT     H225443   7.520   0.300   5.263
 8401WAT      O25444   3.188   1.688   3.260
 8401WAT     H125445   3.221   1.779   3.236
 8401WAT     H225446   3.099   1.696   3.304
 8402WAT      O25447   8.434   9.342   1.275
 8402WAT     H125448   8.384   9.411   1.223
 8402WAT     H225449   8.487   9.285   1.212
 8403WAT      O25450   3.411   3.399   5.413
 8403WAT     H125451   3.340   3.411   5.483
 8403WAT     H225452   3.497   3.372   5.456
 8404WAT      O25453   4.414   8.707   5.960
 8404WAT     H125454   4.390   8.805   5.964
 8404WAT     H225455   4.390   8.672   5.869
 8405WAT      O25456   8.769   6.824   2.958
 8405WAT     H125457   8.860   6.788   2.938
 8405WAT     H225458   8.773   6.924   2.961
 8406WAT      O25459   5.845   7.624   0.819
 8406WAT     H125460   5.910   7.549   0.835
 8406WAT     H225461   5.807   7.654   0.907
 8407WAT      O25462   6.602   4.915   0.697
 8407WAT     H125463   6.592   4.945   0.792
 8407WAT     H225464   6.513   4.891   0.660
 8408WAT      O25465   8.950   8.010   3.532
 8408WAT     H125466   8.959   7.916   3.563
 8408WAT     H225467   8.854   8.030   3.511
 8409WAT      O25468   5.661   3.774   7.967
 8409WAT     H125469   5.750   3.733   7.986
 8409WAT     H225470   5.642   3.767   7.869
 8410WAT      O25471   1.855   7.890   7.603
 8410WAT     H125472   1.935   7.905   7.545
 8410WAT     H225473   1.878   7.908   7.699
 8411WAT      O25474   0.683   1.936   9.546
 8411WAT     H125475   0.751   1.999   9.509
 8411WAT     H225476   0.663   1.961   9.641
 8412WAT      O25477   3.331   1.341   4.901
 8412WAT     H125478   3.397   1.284   4.950
 8412WAT     H225479   3.276   1.392   4.967
 8413WAT      O25480   9.628   1.680   9.621
 8413WAT     H125481   9.662   1.768   9.653
 8413WAT     H225482   9.570   1.639   9.692
 8414WAT      O25483   9.293   7.109   4.126
 8414WAT     H125484   9.285   7.016   4.161
 8414WAT     H225485   9.223   7.124   4.056
 8415WAT      O25486   8.402   6.663   4.320
 8415WAT     H125487   8.354   6.738   4.367
 8415WAT     H225488   8.352   6.640   4.236
 8416WAT      O25489   0.171   9.334   8.100
 8416WAT     H125490   0.156   9.432   8.113
 8416WAT     H225491   0.176   9.313   8.003
 8417WAT      O25492   4.392   5.214   9.407
 8417WAT     H125493   4.393   5.125   9.452
 8417WAT     H225494   4.371   5.203   9.310
 8418WAT      O25495   2.115   1.156   8.234
 8418WAT     H125496   2.152   1.127   8.322
 8418WAT     H225497   2.051   1.087   8.200
 8419WAT      O25498   3.324   7.225   2.669
 8419WAT     H125499   3.366   7.242   2.579
 8419WAT     H225500   3.309   7.127   2.680
 8420WAT      O25501   6.599   1.511   9.187
 8420WAT     H125502   6.552   1.426   9.163
 8420WAT     H225503   6.689   1.489   9.224
 8421WAT      O25504   4.232   7.223   3.452
 8421WAT     H125505   4.132   7.218   3.442
 8421WAT     H225506   4.271   7.133   3.430
 8422WAT      O25507   6.676   9.022   5.717
 8422WAT     H125508   6.750   8.955   5.716
 8422WAT     H225509   6.715   9.114   5.723
 8423WAT      O25510   6.676   2.694   6.567
 8423WAT     H125511   6.694   2.717   6.472
 8423WAT     H225512   6.738   2.745   6.626
 8424WAT      O25513   5.891   0.108   7.312
 8424WAT     H125514   5.817   0.173   7.328
 8424WAT     H225515   5.856   0.029   7.261
 8425WAT      O25516   7.170   6.647   4.308
 8425WAT     H125517   7.215   6.563   4.278
 8425WAT     H225518   7.206   6.724   4.255
 8426WAT      O25519   4.627   8.620   4.612
 8426WAT     H125520   4.684   8.693   4.574
 8426WAT     H225521   4.587   8.566   4.538
 8427WAT      O25522   1.327   5.666   5.251
 8427WAT     H125523   1.326   5.671   5.351
 8427WAT     H225524   1.239   5.696   5.216
 8428WAT      O25525   6.114   8.783   1.733
 8428WAT     H125526   6.074   8.868   1.767
 8428WAT     H225527   6.167   8.740   1.806
 8429WAT      O25528   0.850   2.815   6.893
 8429WAT     H125529   0.763   2.862   6.877
 8429WAT     H225530   0.911   2.832   6.816
 8430WAT      O25531   3.376   8.967   1.530
 8430WAT     H125532   3.371   9.057   1.574
 8430WAT     H225533   3.465   8.956   1.486
 8431WAT      O25534   6.664   6.119   8.739
 8431WAT     H125535   6.630   6.032   8.704
 8431WAT     H225536   6.590   6.168   8.785
 8432WAT      O25537   9.391   6.318   3.806
 8432WAT     H125538   9.415   6.400   3.754
 8432WAT     H225539   9.391   6.340   3.904
 8433WAT      O25540   9.392   0.276   7.580
 8433WAT     H125541   9.400   0.206   7.651
 8433WAT     H225542   9.404   0.366   7.621
 8434WAT      O25543   4.989   3.077   7.227
 8434WAT     H125544   4.987   2.985   7.188
 8434WAT     H225545   4.899   3.100   7.264
 8435WAT      O25546   4.956   3.192   4.619
 8435WAT     H125547   4.977   3.095   4.609
 8435WAT     H225548   4.863   3.210   4.586
 8436WAT      O25549   3.720   7.967   5.639
 8436WAT     H125550   3.771   7.882   5.628
 8436WAT     H225551   3.657   7.979   5.562
 8437WAT      O25552   4.117   9.614   5.164
 8437WAT     H125553   4.211   9.579   5.156
 8437WAT     H225554   4.117   9.695   5.221
 8438WAT      O25555   8.102   5.125   9.697
 8438WAT     H125556   8.154   5.156   9.618
 8438WAT     H225557   8.070   5.204   9.749
 8439WAT      O25558   9.436   7.768   9.568
 8439WAT     H125559   9.381   7.712   9.630
 8439WAT     H225560   9.501   7.711   9.519
 8440WAT      O25561   8.733   6.484   0.170
 8440WAT     H125562   8.774   6.392   0.168
 8440WAT     H225563   8.663   6.490   0.098
 8441WAT      O25564   1.854   4.024   2.049
 8441WAT     H125565   1.917   4.011   1.972
 8441WAT     H225566   1.817   3.936   2.077
 8442WAT      O25567   5.313   4.543   3.601
 8442WAT     H125568   5.331   4.545   3.700
 8442WAT     H225569   5.254   4.465   3.580
 8443WAT      O25570   9.567   1.665   8.375
 8443WAT     H125571   9.654   1.701   8.342
 8443WAT     H225572   9.541   1.586   8.320
 8444WAT      O25573   8.141   1.597   0.371
 8444WAT     H125574   8.122   1.689   0.336
 8444WAT     H225575   8.239   1.586   0.384
 8445WAT      O25576   1.586   4.819   7.685
 8445WAT     H125577   1.597   4.903   7.738
 8445WAT     H225578   1.551   4.746   7.744
 8446WAT      O25579   8.164   1.116   7.405
 8446WAT     H125580   8.111   1.104   7.321
 8446WAT     H225581   8.176   1.028   7.450
 8447WAT      O25582   3.542   3.439   6.421
 8447WAT     H125583   3.527   3.440   6.322
 8447WAT     H225584   3.571   3.348   6.449
 8448WAT      O25585   0.246   6.522   5.026
 8448WAT     H125586   0.151   6.506   5.052
 8448WAT     H225587   0.258   6.617   4.999
 8449WAT      O25588   2.839   5.454   3.033
 8449WAT     H125589   2.828   5.483   3.128
 8449WAT     H225590   2.929   5.481   3.000
 8450WAT      O25591   0.296   3.038   0.188
 8450WAT     H125592   0.314   3.133   0.166
 8450WAT     H225593   0.381   2.986   0.188
 8451WAT      O25594   4.959   9.768   1.982
 8451WAT     H125595   5.017   9.708   2.036
 8451WAT     H225596   5.016   9.830   1.928
 8452WAT      O25597   9.250   6.132   8.686
 8452WAT     H125598   9.329   6.191   8.670
 8452WAT     H225599   9.282   6.039   8.708
 8453WAT      O25600   8.606   3.869   3.069
 8453WAT     H125601   8.701   3.854   3.042
 8453WAT     H225602   8.603   3.903   3.163
 8454WAT      O25603   0.293   6.812   4.712
 8454WAT     H125604   0.255   6.813   4.805
 8454WAT     H225605   0.393   6.818   4.717
 8455WAT      O25606   2.500   8.169   1.491
 8455WAT     H125607   2.560   8.215   1.556
 8455WAT     H225608   2.474   8.080   1.527
 8456WAT      O25609   2.467   4.899   8.735
 8456WAT     H125610   2.398   4.833   8.765
 8456WAT     H225611   2.553   4.851   8.719
 8457WAT      O25612   1.837   3.682   8.500
 8457WAT     H125613   1.923   3.733   8.499
 8457WAT     H225614   1.854   3.588   8.471
 8458WAT      O25615   0.986   2.527   9.428
 8458WAT     H125616   1.028   2.458   9.370
 8458WAT     H225617   1.052   2.599   9.448
 8459WAT      O25618   3.886   0.133   2.385
 8459WAT     H125619   3.962   0.190   2.414
 8459WAT     H225620   3.921   0.045   2.352
 8460WAT      O25621   6.772   6.023   0.922
 8460WAT     H125622   6.715   6.101   0.895
 8460WAT     H225623   6.845   6.010   0.855
 8461WAT      O25624   5.442   1.888   5.360
 8461WAT     H125625   5.369   1.896   5.292
 8461WAT     H225626   5.503   1.813   5.336
 8462WAT      O25627   9.659   9.774   6.577
 8462WAT     H125628   9.572   9.726   6.565
 8462WAT     H225629   9.646   9.872   6.563
 8463WAT      O25630   6.932   3.055   3.129
 8463WAT     H125631   6.932   2.966   3.176
 8463WAT     H225632   6.838   3.083   3.112
 8464WAT      O25633   3.594   8.692   4.930
 8464WAT     H125634   3.497   8.718   4.929
 8464WAT     H225635   3.606   8.611   4.986
 8465WAT      O25636   7.078   2.259   3.972
 8465WAT     H125637   7.003   2.193   3.977
 8465WAT     H225638   7.042   2.351   3.990
 8466WAT      O25639   4.552   1.492   2.038
 8466WAT     H125640   4.458   1.475   2.068
 8466WAT     H225641   4.565   1.591   2.025
 8467WAT      O25642   5.602   1.712   4.312
 8467WAT     H125643   5.648   1.624   4.325
 8467WAT     H225644   5.504   1.697   4.301
 8468WAT      O25645   8.621   9.691   6.838
 8468WAT     H125646   8.585   9.620   6.898
 8468WAT     H225647   8.643   9.772   6.892
 8469WAT      O25648   2.707   0.920   9.029
 8469WAT     H125649   2.691   1.016   9.009
 8469WAT     H225650   2.670   0.898   9.119
 8470WAT      O25651   4.367   7.710   8.181
 8470WAT     H125652   4.279   7.663   8.182
 8470WAT     H225653   4.427   7.666   8.114
 8471WAT      O25654   5.508   8.741   4.735
 8471WAT     H125655   5.447   8.662   4.740
 8471WAT     H225656   5.557   8.739   4.648
 8472WAT      O25657   2.802   8.720   8.310
 8472WAT     H125658   2.842   8.656   8.375
 8472WAT     H225659   2.726   8.677   8.261
 8473WAT      O25660   2.444   4.555   8.389
 8473WAT     H125661   2.430   4.516   8.297
 8473WAT     H225662   2.366   4.614   8.412
 8474WAT      O25663   9.511   3.070   6.414
 8474WAT     H125664   9.575   3.036   6.483
 8474WAT     H225665   9.560   3.125   6.347
 8475WAT      O25666   9.259   7.389   4.532
 8475WAT     H125667   9.289   7.347   4.447
 8475WAT     H225668   9.308   7.475   4.546
 8476WAT      O25669   5.220   4.544   0.526
 8476WAT     H125670   5.254   4.501   0.442
 8476WAT     H225671   5.295   4.551   0.592
 8477WAT      O25672   8.817   5.846   5.451
 8477WAT     H125673   8.775   5.798   5.374
 8477WAT     H225674   8.874   5.921   5.416
 8478WAT      O25675   2.590   4.431   1.942
 8478WAT     H125676   2.670   4.398   1.891
 8478WAT     H225677   2.516   4.452   1.878
 8479WAT      O25678   5.470   2.647   3.909
 8479WAT     H125679   5.425   2.606   3.830
 8479WAT     H225680   5.447   2.744   3.914
 8480WAT      O25681   1.257   9.723   4.900
 8480WAT     H125682   1.264   9.665   4.981
 8480WAT     H225683   1.346   9.727   4.854
 8481WAT      O25684   4.349   2.308   6.197
 8481WAT     H125685   4.384   2.371   6.127
 8481WAT     H225686   4.284   2.358   6.256
 8482WAT      O25687   0.922   7.148   1.719
 8482WAT     H125688   0.918   7.182   1.813
 8482WAT     H225689   1.001   7.188   1.672
 8483WAT      O25690   4.609   2.233   6.109
 8483WAT     H125691   4.548   2.262   6.183
 8483WAT     H225692   4.695   2.201   6.148
 8484WAT      O25693   1.229   6.542   3.593
 8484WAT     H125694   1.228   6.443   3.600
 8484WAT     H225695   1.317   6.577   3.625
 8485WAT      O25696   2.001   1.821   0.961
 8485WAT     H125697   2.044   1.857   1.044
 8485WAT     H225698   2.042   1.866   0.881
 8486WAT      O25699   3.034   8.429   5.817
 8486WAT     H125700   3.010   8.441   5.913
 8486WAT     H225701   3.053   8.518   5.776
 8487WAT      O25702   3.252   2.191   2.411
 8487WAT     H125703   3.335   2.236   2.377
 8487WAT     H225704   3.216   2.129   2.341
 8488WAT      O25705   7.566   2.369   1.504
 8488WAT     H125706   7.658   2.329   1.506
 8488WAT     H225707   7.554   2.424   1.422
 8489WAT      O25708   0.760   0.582   8.533
 8489WAT     H125709   0.683   0.635   8.498
 8489WAT     H225710   0.726   0.506   8.588
 8490WAT      O25711   7.850   6.660   0.342
 8490WAT     H125712   7.794   6.698   0.269
 8490WAT     H225713   7.810   6.574   0.374
 8491WAT      O25714   7.737   5.011   2.299
 8491WAT     H125715   7.676   5.012   2.219
 8491WAT     H225716   7.688   4.975   2.378
 8492WAT      O25717   2.276   2.068   0.303
 8492WAT     H125718   2.344   2.090   0.233
 8492WAT     H225719   2.186   2.060   0.261
 8493WAT      O25720   4.846   6.101   2.227
 8493WAT     H125721   4.791   6.073   2.148
 8493WAT     H225722   4.883   6.193   2.212
 8494WAT      O25723   7.180   5.816   5.629
 8494WAT     H125724   7.129   5.816   5.543
 8494WAT     H225725   7.246   5.890   5.629
 8495WAT      O25726   6.069   0.581   4.828
 8495WAT     H125727   6.092   0.489   4.799
 8495WAT     H225728   6.076   0.588   4.928
 8496WAT      O25729   4.144   6.438   8.272
 8496WAT     H125730   4.231   6.398   8.244
 8496WAT     H225731   4.074   6.414   8.205
 8497WAT      O25732   8.209   2.403   8.404
 8497WAT     H125733   8.259   2.319   8.424
 8497WAT     H225734   8.112   2.390   8.425
 8498WAT      O25735   7.872   1.722   7.246
 8498WAT     H125736   7.823   1.722   7.333
 8498WAT     H225737   7.951   1.783   7.251
 8499WAT      O25738   3.087   8.201   2.775
 8499WAT     H125739   3.089   8.255   2.859
 8499WAT     H225740   3.132   8.252   2.702
 8500WAT      O25741   7.229   5.332   2.646
 8500WAT     H125742   7.270   5.334   2.738
 8500WAT     H225743   7.277   5.264   2.591
 8501WAT      O25744   1.012   5.763   1.030
 8501WAT     H125745   1.014   5.774   1.130
 8501WAT     H225746   0.918   5.744   1.001
 8502WAT      O25747   1.756   8.319   8.190
 8502WAT     H125748   1.827   8.368   8.139
 8502WAT     H225749   1.666   8.359   8.169
 8503WAT      O25750   4.300   1.790   4.143
 8503WAT     H125751   4.284   1.700   4.103
 8503WAT     H225752   4.395   1.798   4.171
 8504WAT      O25753   1.582   7.283   7.702
 8504WAT     H125754   1.545   7.371   7.672
 8504WAT     H225755   1.508   7.217   7.711
 8505WAT      O25756   5.616   7.060   0.884
 8505WAT     H125757   5.629   7.149   0.928
 8505WAT     H225758   5.518   7.041   0.877
 8506WAT      O25759   4.145   2.427   5.598
 8506WAT     H125760   4.065   2.433   5.539
 8506WAT     H225761   4.217   2.489   5.564
 8507WAT      O25762   0.681   8.860   0.583
 8507WAT     H125763   0.760   8.836   0.528
 8507WAT     H225764   0.599   8.816   0.545
 8508WAT      O25765   6.240   7.322   2.647
 8508WAT     H125766   6.246   7.343   2.744
 8508WAT     H225767   6.208   7.228   2.635
 8509WAT      O25768   9.087   8.692   0.774
 8509WAT     H125769   8.990   8.680   0.751
 8509WAT     H225770   9.134   8.737   0.699
 8510WAT      O25771   5.830   8.998   1.610
 8510WAT     H125772   5.853   8.918   1.554
 8510WAT     H225773   5.803   9.074   1.550
 8511WAT      O25774   6.610   6.039   6.735
 8511WAT     H125775   6.639   5.943   6.734
 8511WAT     H225776   6.537   6.052   6.668
 8512WAT      O25777   8.910   3.666   8.435
 8512WAT     H125778   8.963   3.750   8.449
 8512WAT     H225779   8.875   3.665   8.341
 8513WAT      O25780   2.210   0.456   1.618
 8513WAT     H125781   2.303   0.438   1.586
 8513WAT     H225782   2.211   0.470   1.717
 8514WAT      O25783   8.166   6.904   9.262
 8514WAT     H125784   8.086   6.844   9.258
 8514WAT     H225785   8.230   6.880   9.189
 8515WAT      O25786   3.712   6.070   6.274
 8515WAT     H125787   3.737   6.167   6.284
 8515WAT     H225788   3.794   6.014   6.269
 8516WAT      O25789   3.007   3.338   1.458
 8516WAT     H125790   2.940   3.348   1.531
 8516WAT     H225791   2.980   3.394   1.379
 8517WAT      O25792   6.287   0.062   1.167
 8517WAT     H125793   6.345   0.015   1.101
 8517WAT     H225794   6.194   0.069   1.131
 8518WAT      O25795   0.975   7.744   1.871
 8518WAT     H125796   1.017   7.835   1.883
 8518WAT     H225797   0.986   7.691   1.954
 8519WAT      O25798   1.663   9.414   5.370
 8519WAT     H125799   1.600   9.349   5.413
 8519WAT     H225800   1.706   9.470   5.441
 8520WAT      O25801   1.313   2.337   9.038
 8520WAT     H125802   1.275   2.259   8.990
 8520WAT     H225803   1.294   2.421   8.986
 8521WAT      O25804   8.598   5.562   4.517
 8521WAT     H125805   8.596   5.642   4.578
 8521WAT     H225806   8.597   5.593   4.422
 8522WAT      O25807   7.126   5.729   5.910
 8522WAT     H125808   7.145   5.730   5.812
 8522WAT     H225809   7.054   5.796   5.931
 8523WAT      O25810   5.756   2.969   1.286
 8523WAT     H125811   5.705   2.956   1.202
 8523WAT     H225812   5.768   2.880   1.332
 8524WAT      O25813   5.843   8.823   1.377
 8524WAT     H125814   5.855   8.746   1.439
 8524WAT     H225815   5.746   8.832   1.353
 8525WAT      O25816   5.340   7.062   0.857
 8525WAT     H125817   5.323   6.985   0.794
 8525WAT     H225818   5.252   7.096   0.891
 8526WAT      O25819   4.328   7.312   1.320
 8526WAT     H125820   4.251   7.345   1.265
 8526WAT     H225821   4.374   7.389   1.364
 8527WAT      O25822   4.110   1.611   1.546
 8527WAT     H125823   4.181   1.566   1.492
 8527WAT     H225824   4.049   1.542   1.586
 8528WAT      O25825   0.216   1.587   9.028
 8528WAT     H125826   0.218   1.672   8.977
 8528WAT     H225827   0.143   1.590   9.096
 8529WAT      O25828   9.081   2.636   5.309
 8529WAT     H125829   9.046   2.577   5.236
 8529WAT     H225830   9.004   2.686   5.350
 8530WAT      O25831   3.118   4.625   6.273
 8530WAT     H125832   3.096   4.586   6.184
 8530WAT     H225833   3.148   4.720   6.261
 8531WAT      O25834   2.238   3.110   0.510
 8531WAT     H125835   2.327   3.105   0.554
 8531WAT     H225836   2.248   3.152   0.420
 8532WAT      O25837   1.187   2.683   1.430
 8532WAT     H125838   1.125   2.760   1.420
 8532WAT     H225839   1.282   2.716   1.428
 8533WAT      O25840   7.590   7.249   9.765
 8533WAT     H125841   7.526   7.319   9.732
 8533WAT     H225842   7.565   7.160   9.727
 8534WAT      O25843   5.856   0.777   3.936
 8534WAT     H125844   5.812   0.693   3.968
 8534WAT     H225845   5.949   0.757   3.906
 8535WAT      O25846   8.131   3.730   0.681
 8535WAT     H125847   8.062   3.692   0.743
 8535WAT     H225848   8.172   3.656   0.628
 8536WAT      O25849   6.671   9.010   3.090
 8536WAT     H125850   6.659   8.957   3.006
 8536WAT     H225851   6.752   8.975   3.139
 8537WAT      O25852   2.431   4.281   7.943
 8537WAT     H125853   2.366   4.331   7.886
 8537WAT     H225854   2.448   4.191   7.904
 8538WAT      O25855   4.126   2.476   2.847
 8538WAT     H125856   4.075   2.394   2.824
 8538WAT     H225857   4.208   2.482   2.791
 8539WAT      O25858   4.327   8.312   8.875
 8539WAT     H125859   4.267   8.320   8.955
 8539WAT     H225860   4.415   8.355   8.895
 8540WAT      O25861   3.452   6.842   3.153
 8540WAT     H125862   3.507   6.878   3.078
 8540WAT     H225863   3.509   6.784   3.211
 8541WAT      O25864   9.650   4.853   4.094
 8541WAT     H125865   9.639   4.761   4.133
 8541WAT     H225866   9.747   4.874   4.088
 8542WAT      O25867   4.202   0.402   1.907
 8542WAT     H125868   4.135   0.458   1.955
 8542WAT     H225869   4.294   0.426   1.937
 8543WAT      O25870   9.065   7.780   7.333
 8543WAT     H125871   9.035   7.727   7.412
 8543WAT     H225872   9.112   7.862   7.364
 8544WAT      O25873   5.082   0.045   3.129
 8544WAT     H125874   5.104   0.141   3.112
 8544WAT     H225875   4.993   0.039   3.174
 8545WAT      O25876   8.310   4.411   0.358
 8545WAT     H125877   8.313   4.315   0.331
 8545WAT     H225878   8.350   4.422   0.449
 8546WAT      O25879   9.799   0.485   1.950
 8546WAT     H125880   9.722   0.476   2.014
 8546WAT     H225881   9.873   0.537   1.995
 8547WAT      O25882   0.007   5.373   3.878
 8547WAT     H125883  -0.024   5.461   3.916
 8547WAT     H225884  -0.053   5.347   3.802
 8548WAT      O25885   9.124   7.852   5.512
 8548WAT     H125886   9.053   7.922   5.505
 8548WAT     H225887   9.105   7.778   5.447
 8549WAT      O25888   5.998   0.235   5.849
 8549WAT     H125889   6.030   0.249   5.755
 8549WAT     H225890   6.006   0.320   5.901
 8550WAT      O25891   6.613   2.472   0.045
 8550WAT     H125892   6.623   2.420  -0.040
 8550WAT     H225893   6.684   2.445   0.109
 8551WAT      O25894   9.196   5.190   2.581
 8551WAT     H125895   9.147   5.183   2.668
 8551WAT     H225896   9.211   5.099   2.543
 8552WAT      O25897   7.965   8.766   3.351
 8552WAT     H125898   7.876   8.731   3.322
 8552WAT     H225899   8.038   8.710   3.312
 8553WAT      O25900   2.999   8.164   9.264
 8553WAT     H125901   2.992   8.075   9.308
 8553WAT     H225902   3.062   8.222   9.316
 8554WAT      O25903   5.683   0.735   7.371
 8554WAT     H125904   5.635   0.655   7.408
 8554WAT     H225905   5.649   0.755   7.279
 8555WAT      O25906   4.179   4.690   4.094
 8555WAT     H125907   4.092   4.725   4.129
 8555WAT     H225908   4.253   4.751   4.120
 8556WAT      O25909   3.817   2.941   2.439
 8556WAT     H125910   3.761   2.963   2.519
 8556WAT     H225911   3.890   3.009   2.429
 8557WAT      O25912   0.533   8.351   9.395
 8557WAT     H125913   0.621   8.351   9.347
 8557WAT     H225914   0.468   8.406   9.343
 8558WAT      O25915   5.432   3.024   9.336
 8558WAT     H125916   5.476   2.937   9.313
 8558WAT     H225917   5.384   3.060   9.256
 8559WAT      O25918   0.210   8.983   6.115
 8559WAT     H125919   0.283   8.939   6.167
 8559WAT     H225920   0.245   9.012   6.026
 8560WAT      O25921   2.942   0.918   4.289
 8560WAT     H125922   2.956   0.971   4.372
 8560WAT     H225923   2.992   0.832   4.295
 8561WAT      O25924   3.450   5.388   6.149
 8561WAT     H125925   3.484   5.481   6.161
 8561WAT     H225926   3.510   5.338   6.087
 8562WAT      O25927   0.675   2.766   9.070
 8562WAT     H125928   0.713   2.788   9.160
 8562WAT     H225929   0.749   2.750   9.005
 8563WAT      O25930   5.942   5.338   9.164
 8563WAT     H125931   5.910   5.250   9.127
 8563WAT     H225932   5.938   5.408   9.092
 8564WAT      O25933   2.116   8.415   0.190
 8564WAT     H125934   2.144   8.424   0.094
 8564WAT     H225935   2.144   8.326   0.225
 8565WAT      O25936   4.287   3.880   2.655
 8565WAT     H125937   4.290   3.783   2.682
 8565WAT     H225938   4.228   3.891   2.575
 8566WAT      O25939   0.700   6.995   0.866
 8566WAT     H125940   0.612   7.036   0.842
 8566WAT     H225941   0.747   6.964   0.783
 8567WAT      O25942   7.011   8.262   0.775
 8567WAT     H125943   7.024   8.164   0.789
 8567WAT     H225944   7.094   8.302   0.738
 8568WAT      O25945   8.869   8.629   2.130
 8568WAT     H125946   8.968   8.633   2.141
 8568WAT     H225947   8.847   8.592   2.040
 8569WAT      O25948   2.727   2.721   9.876
 8569WAT     H125949   2.635   2.759   9.884
 8569WAT     H225950   2.733   2.664   9.795
 8570WAT      O25951   8.162   7.869   7.529
 8570WAT     H125952   8.221   7.788   7.531
 8570WAT     H225953   8.067   7.841   7.538
 8571WAT      O25954   9.071   2.243   4.596
 8571WAT     H125955   9.093   2.162   4.649
 8571WAT     H225956   9.121   2.321   4.632
 8572WAT      O25957   4.170   9.434   1.266
 8572WAT     H125958   4.128   9.415   1.355
 8572WAT     H225959   4.185   9.348   1.218
 8573WAT      O25960   3.350   5.854   6.563
 8573WAT     H125961   3.410   5.920   6.519
 8573WAT     H225962   3.372   5.850   6.661
 8574WAT      O25963   7.964   1.988   3.489
 8574WAT     H125964   7.874   1.965   3.527
 8574WAT     H225965   8.018   2.037   3.558
 8575WAT      O25966   8.726   0.312   3.674
 8575WAT     H125967   8.752   0.224   3.634
 8575WAT     H225968   8.677   0.366   3.606
 8576WAT      O25969   8.913   5.088   8.254
 8576WAT     H125970   8.876   5.132   8.336
 8576WAT     H225971   8.838   5.049   8.200
 8577WAT      O25972   7.240   3.836   6.123
 8577WAT     H125973   7.318   3.780   6.095
 8577WAT     H225974   7.272   3.924   6.156
 8578WAT      O25975   0.459   3.146   7.868
 8578WAT     H125976   0.492   3.064   7.915
 8578WAT     H225977   0.531   3.216   7.868
 8579WAT      O25978   8.484   2.267   9.433
 8579WAT     H125979   8.547   2.314   9.371
 8579WAT     H225980   8.427   2.203   9.382
 8580WAT      O25981   1.845   5.716   0.498
 8580WAT     H125982   1.806   5.807   0.487
 8580WAT     H225983   1.789   5.663   0.562
 8581WAT      O25984   7.199   6.667   7.517
 8581WAT     H125985   7.246   6.618   7.444
 8581WAT     H225986   7.102   6.677   7.494
 8582WAT      O25987   9.246   5.225   4.242
 8582WAT     H125988   9.318   5.193   4.303
 8582WAT     H225989   9.178   5.275   4.295
 8583WAT      O25990   1.836   3.448   5.733
 8583WAT     H125991   1.817   3.544   5.757
 8583WAT     H225992   1.925   3.422   5.770
 8584WAT      O25993   0.877   8.322   0.717
 8584WAT     H125994   0.828   8.360   0.639
 8584WAT     H225995   0.849   8.227   0.731
 8585WAT      O25996   9.241   5.219   3.753
 8585WAT     H125997   9.231   5.201   3.850
 8585WAT     H225998   9.290   5.144   3.710
 8586WAT      O25999   6.030   7.964   9.195
 8586WAT     H126000   6.008   7.867   9.199
 8586WAT     H226001   5.970   8.010   9.129
 8587WAT      O26002   4.847   5.806   2.890
 8587WAT     H126003   4.942   5.834   2.895
 8587WAT     H226004   4.829   5.734   2.958
 8588WAT      O26005   5.626   0.573   5.012
 8588WAT     H126006   5.538   0.594   4.969
 8588WAT     H226007   5.687   0.532   4.944
 8589WAT      O26008   9.204   5.807   0.231
 8589WAT     H126009   9.189   5.885   0.171
 8589WAT     H226010   9.236   5.839   0.321
 8590WAT      O26011   2.703   6.694   2.211
 8590WAT     H126012   2.759   6.698   2.129
 8590WAT     H226013   2.611   6.729   2.190
 8591WAT      O26014   9.376   9.217   2.151
 8591WAT     H126015   9.297   9.180   2.199
 8591WAT     H226016   9.349   9.298   2.099
 8592WAT      O26017   2.992   0.662   1.804
 8592WAT     H126018   2.898   0.632   1.818
 8592WAT     H226019   3.002   0.696   1.710
 8593WAT      O26020   2.707   3.272   7.146
 8593WAT     H126021   2.693   3.342   7.216
 8593WAT     H226022   2.693   3.313   7.055
 8594WAT      O26023   5.429   8.198   2.804
 8594WAT     H126024   5.426   8.252   2.888
 8594WAT     H226025   5.455   8.257   2.727
 8595WAT      O26026   3.234   0.854   3.334
 8595WAT     H126027   3.305   0.823   3.398
 8595WAT     H226028   3.174   0.919   3.380
 8596WAT      O26029   8.314   1.699   5.665
 8596WAT     H126030   8.274   1.611   5.640
 8596WAT     H226031   8.402   1.711   5.618
 8597WAT      O26032   7.682   5.322   3.859
 8597WAT     H126033   7.614   5.330   3.786
 8597WAT     H226034   7.754   5.259   3.830
 8598WAT      O26035   8.438   4.115   7.205
 8598WAT     H126036   8.530   4.146   7.231
 8598WAT     H226037   8.410   4.040   7.266
 8599WAT      O26038   9.565   7.361   3.219
 8599WAT     H126039   9.493   7.430   3.235
 8599WAT     H226040   9.532   7.293   3.154
 8600WAT      O26041   6.834   2.873   3.741
 8600WAT     H126042   6.846   2.972   3.729
 8600WAT     H226043   6.748   2.845   3.698
 8601WAT      O26044   1.074   6.867   6.611
 8601WAT     H126045   1.023   6.917   6.680
 8601WAT     H226046   1.141   6.928   6.568
 8602WAT      O26047   6.705   2.890   8.715
 8602WAT     H126048   6.611   2.897   8.684
 8602WAT     H226049   6.728   2.794   8.729
 8603WAT      O26050   9.133   3.833   3.181
 8603WAT     H126051   9.144   3.864   3.275
 8603WAT     H226052   9.178   3.896   3.118
 8604WAT      O26053   0.791   8.681   3.944
 8604WAT     H126054   0.885   8.687   3.911
 8604WAT     H226055   0.783   8.724   4.034
 8605WAT      O26056   7.027   3.384   2.973
 8605WAT     H126057   6.931   3.359   2.963
 8605WAT     H226058   7.084   3.303   2.963
 8606WAT      O26059   8.060   8.161   6.910
 8606WAT     H126060   8.106   8.075   6.934
 8606WAT     H226061   8.063   8.174   6.811
 8607WAT      O26062   1.180   8.040   4.308
 8607WAT     H126063   1.184   8.019   4.406
 8607WAT     H226064   1.269   8.075   4.278
 8608WAT      O26065   3.890   1.932   7.582
 8608WAT     H126066   3.887   2.030   7.561
 8608WAT     H226067   3.961   1.888   7.528
 8609WAT      O26068   3.820   0.783   5.713
 8609WAT     H126069   3.759   0.844   5.764
 8609WAT     H226070   3.875   0.836   5.648
 8610WAT      O26071   4.649   2.910   2.458
 8610WAT     H126072   4.591   2.926   2.378
 8610WAT     H226073   4.721   2.979   2.462
 8611WAT      O26074   3.399   2.314   5.366
 8611WAT     H126075   3.422   2.223   5.331
 8611WAT     H226076   3.361   2.306   5.458
 8612WAT      O26077   0.061   4.975   2.152
 8612WAT     H126078   0.130   5.019   2.210
 8612WAT     H226079   0.101   4.895   2.107
 8613WAT      O26080   2.350   4.499   2.740
 8613WAT     H126081   2.302   4.580   2.772
 8613WAT     H226082   2.298   4.455   2.668
 8614WAT      O26083   2.199   6.672   1.361
 8614WAT     H126084   2.205   6.683   1.460
 8614WAT     H226085   2.198   6.762   1.318
 8615WAT      O26086   3.270   8.469   5.213
 8615WAT     H126087   3.286   8.379   5.254
 8615WAT     H226088   3.344   8.489   5.149
 8616WAT      O26089   7.698   2.603   4.242
 8616WAT     H126090   7.635   2.681   4.240
 8616WAT     H226091   7.738   2.590   4.152
 8617WAT      O26092   3.576   3.579   3.706
 8617WAT     H126093   3.512   3.641   3.750
 8617WAT     H226094   3.643   3.632   3.654
 8618WAT      O26095   8.995   3.634   0.129
 8618WAT     H126096   8.955   3.560   0.183
 8618WAT     H226097   9.026   3.707   0.191
 8619WAT      O26098   5.080   7.121   5.305
 8619WAT     H126099   5.026   7.074   5.235
 8619WAT     H226100   5.037   7.109   5.394
 8620WAT      O26101   9.361   6.544   2.156
 8620WAT     H126102   9.383   6.560   2.253
 8620WAT     H226103   9.421   6.473   2.119
 8621WAT      O26104   1.640   1.699   8.853
 8621WAT     H126105   1.671   1.644   8.775
 8621WAT     H226106   1.602   1.785   8.819
 8622WAT      O26107   7.868   6.521   5.030
 8622WAT     H126108   7.788   6.495   5.084
 8622WAT     H226109   7.951   6.491   5.077
 8623WAT      O26110   1.863   5.323   4.651
 8623WAT     H126111   1.843   5.376   4.568
 8623WAT     H226112   1.917   5.378   4.714
 8624WAT      O26113   6.096   4.859   9.595
 8624WAT     H126114   6.135   4.775   9.632
 8624WAT     H226115   6.080   4.924   9.668
 8625WAT      O26116   1.568   8.723   5.263
 8625WAT     H126117   1.651   8.685   5.303
 8625WAT     H226118   1.576   8.722   5.163
 8626WAT      O26119   2.959   8.375   8.223
 8626WAT     H126120   2.902   8.292   8.224
 8626WAT     H226121   2.922   8.439   8.156
 8627WAT      O26122   0.696   9.657   3.377
 8627WAT     H126123   0.733   9.738   3.331
 8627WAT     H226124   0.732   9.575   3.333
 8628WAT      O26125   5.891   8.493   2.190
 8628WAT     H126126   5.864   8.527   2.280
 8628WAT     H226127   5.815   8.442   2.149
 8629WAT      O26128   4.515   7.900   9.606
 8629WAT     H126129   4.448   7.844   9.557
 8629WAT     H226130   4.480   7.994   9.614
 8630WAT      O26131   1.032   4.628   3.362
 8630WAT     H126132   0.944   4.587   3.385
 8630WAT     H226133   1.098   4.607   3.433
 8631WAT      O26134   1.809   0.952   2.587
 8631WAT     H126135   1.846   0.967   2.496
 8631WAT     H226136   1.731   0.888   2.582
 8632WAT      O26137   6.264   0.065   0.093
 8632WAT     H126138   6.313   0.146   0.061
 8632WAT     H226139   6.265  -0.005   0.022
 8633WAT      O26140   8.639   6.388   5.441
 8633WAT     H126141   8.549   6.425   5.465
 8633WAT     H226142   8.658   6.407   5.345
 8634WAT      O26143   4.209   2.797   6.771
 8634WAT     H126144   4.205   2.872   6.836
 8634WAT     H226145   4.237   2.831   6.682
 8635WAT      O26146   3.330   3.208   9.789
 8635WAT     H126147   3.287   3.297   9.800
 8635WAT     H226148   3.360   3.196   9.694
 8636WAT      O26149   7.491   2.190   0.609
 8636WAT     H126150   7.471   2.230   0.519
 8636WAT     H226151   7.470   2.258   0.680
 8637WAT      O26152   7.133   7.295   6.867
 8637WAT     H126153   7.210   7.326   6.811
 8637WAT     H226154   7.163   7.219   6.926
 8638WAT      O26155   3.444   6.054   5.839
 8638WAT     H126156   3.490   6.095   5.918
 8638WAT     H226157   3.406   5.965   5.866
 8639WAT      O26158   2.645   4.737   8.233
 8639WAT     H126159   2.662   4.656   8.290
 8639WAT     H226160   2.563   4.722   8.178
 8640WAT      O26161   3.910   7.520   9.295
 8640WAT     H126162   3.831   7.543   9.239
 8640WAT     H226163   3.991   7.514   9.237
 8641WAT      O26164   2.294   6.947   7.641
 8641WAT     H126165   2.326   6.904   7.557
 8641WAT     H226166   2.222   7.013   7.619
 8642WAT      O26167   3.921   5.991   8.543
 8642WAT     H126168   4.010   5.946   8.549
 8642WAT     H226169   3.932   6.085   8.513
 8643WAT      O26170   2.645   1.464   2.562
 8643WAT     H126171   2.588   1.508   2.632
 8643WAT     H226172   2.589   1.446   2.481
 8644WAT      O26173   9.530   7.716   9.118
 8644WAT     H126174   9.627   7.712   9.094
 8644WAT     H226175   9.480   7.649   9.062
 8645WAT      O26176   3.870   6.806   3.684
 8645WAT     H126177   3.854   6.729   3.746
 8645WAT     H226178   3.883   6.890   3.737
 8646WAT      O26179   9.486   4.643   4.542
 8646WAT     H126180   9.500   4.553   4.584
 8646WAT     H226181   9.458   4.631   4.447
 8647WAT      O26182   3.186   9.208   7.225
 8647WAT     H126183   3.265   9.252   7.182
 8647WAT     H226184   3.119   9.278   7.250
 8648WAT      O26185   1.520   6.504   1.490
 8648WAT     H126186   1.548   6.413   1.459
 8648WAT     H226187   1.594   6.547   1.542
 8649WAT      O26188   7.461   2.069   8.725
 8649WAT     H126189   7.385   2.090   8.663
 8649WAT     H226190   7.464   2.138   8.798
 8650WAT      O26191   7.713   4.218   2.705
 8650WAT     H126192   7.784   4.192   2.771
 8650WAT     H226193   7.728   4.312   2.675
 8651WAT      O26194   9.289   0.554   3.154
 8651WAT     H126195   9.372   0.505   3.182
 8651WAT     H226196   9.314   0.628   3.092
 8652WAT      O26197   8.079   4.569   6.438
 8652WAT     H126198   8.095   4.663   6.470
 8652WAT     H226199   8.074   4.568   6.338
 8653WAT      O26200   2.889   8.063   6.345
 8653WAT     H126201   2.898   8.075   6.246
 8653WAT     H226202   2.968   8.104   6.390
 8654WAT      O26203   1.736   3.718   5.757
 8654WAT     H126204   1.732   3.755   5.850
 8654WAT     H226205   1.643   3.716   5.718
 8655WAT      O26206   1.892   5.061   6.550
 8655WAT     H126207   1.832   5.096   6.477
 8655WAT     H226208   1.838   5.048   6.633
 8656WAT      O26209   7.327   8.890   1.158
 8656WAT     H126210   7.245   8.840   1.187
 8656WAT     H226211   7.300   8.964   1.097
 8657WAT      O26212   4.593   9.115   3.695
 8657WAT     H126213   4.593   9.133   3.793
 8657WAT     H226214   4.656   9.040   3.674
 8658WAT      O26215   8.800   9.236   9.603
 8658WAT     H126216   8.847   9.318   9.570
 8658WAT     H226217   8.702   9.252   9.604
 8659WAT      O26218   8.804   2.685   8.927
 8659WAT     H126219   8.861   2.694   8.845
 8659WAT     H226220   8.851   2.627   8.994
 8660WAT      O26221   7.392   7.126   5.165
 8660WAT     H126222   7.378   7.197   5.096
 8660WAT     H226223   7.329   7.050   5.148
 8661WAT      O26224   0.054   3.864   5.450
 8661WAT     H126225   0.061   3.789   5.517
 8661WAT     H226226  -0.015   3.840   5.382
 8662WAT      O26227   7.162   1.134   2.242
 8662WAT     H126228   7.191   1.039   2.251
 8662WAT     H226229   7.237   1.188   2.203
 8663WAT      O26230   1.785   3.329   5.259
 8663WAT     H126231   1.762   3.391   5.335
 8663WAT     H226232   1.722   3.345   5.184
 8664WAT      O26233   4.437   7.764   7.171
 8664WAT     H126234   4.535   7.764   7.191
 8664WAT     H226235   4.386   7.754   7.257
 8665WAT      O26236   7.017   6.845   4.114
 8665WAT     H126237   7.117   6.855   4.112
 8665WAT     H226238   6.987   6.792   4.035
 8666WAT      O26239   6.453   5.483   4.636
 8666WAT     H126240   6.545   5.522   4.641
 8666WAT     H226241   6.432   5.435   4.720
 8667WAT      O26242   0.646   5.585   5.534
 8667WAT     H126243   0.592   5.530   5.470
 8667WAT     H226244   0.633   5.682   5.514
 8668WAT      O26245   8.439   2.336   2.380
 8668WAT     H126246   8.373   2.352   2.307
 8668WAT     H226247   8.403   2.371   2.467
 8669WAT      O26248   4.280   1.411   2.098
 8669WAT     H126249   4.281   1.358   2.182
 8669WAT     H226250   4.215   1.486   2.106
 8670WAT      O26251   8.825   6.278   6.625
 8670WAT     H126252   8.873   6.361   6.595
 8670WAT     H226253   8.859   6.251   6.715
 8671WAT      O26254   6.611   5.194   4.625
 8671WAT     H126255   6.543   5.231   4.688
 8671WAT     H226256   6.634   5.100   4.650
 8672WAT      O26257   9.245   4.702   1.761
 8672WAT     H126258   9.195   4.783   1.731
 8672WAT     H226259   9.340   4.708   1.732
 8673WAT      O26260   5.102   8.916   2.997
 8673WAT     H126261   5.169   8.846   2.975
 8673WAT     H226262   5.020   8.873   3.034
 8674WAT      O26263   3.936   3.931   8.553
 8674WAT     H126264   3.877   4.012   8.550
 8674WAT     H226265   3.902   3.862   8.489
 8675WAT      O26266   5.337   3.972   8.586
 8675WAT     H126267   5.316   3.982   8.683
 8675WAT     H226268   5.319   4.059   8.539
 8676WAT      O26269   1.784   3.270   3.075
 8676WAT     H126270   1.837   3.208   3.018
 8676WAT     H226271   1.842   3.308   3.147
 8677WAT      O26272   0.227   6.726   7.575
 8677WAT     H126273   0.282   6.810   7.570
 8677WAT     H226274   0.150   6.733   7.512
 8678WAT      O26275   9.662   5.846   6.932
 8678WAT     H126276   9.599   5.773   6.958
 8678WAT     H226277   9.616   5.908   6.868
 8679WAT      O26278   0.449   8.762   5.794
 8679WAT     H126279   0.421   8.807   5.709
 8679WAT     H226280   0.368   8.736   5.846
 8680WAT      O26281   8.881   3.397   1.998
 8680WAT     H126282   8.810   3.431   2.060
 8680WAT     H226283   8.967   3.385   2.048
 8681WAT      O26284   1.773   9.046   6.991
 8681WAT     H126285   1.768   9.027   7.090
 8681WAT     H226286   1.857   9.096   6.972
 8682WAT      O26287   3.208   4.339   5.290
 8682WAT     H126288   3.302   4.373   5.293
 8682WAT     H226289   3.200   4.258   5.349
 8683WAT      O26290   0.153   0.605   4.627
 8683WAT     H126291   0.219   0.532   4.609
 8683WAT     H226292   0.185   0.690   4.583
 8684WAT      O26293   3.035   8.596   7.098
 8684WAT     H126294   3.056   8.652   7.018
 8684WAT     H226295   3.078   8.635   7.179
 8685WAT      O26296   0.886   4.679   9.527
 8685WAT     H126297   0.960   4.634   9.477
 8685WAT     H226298   0.925   4.751   9.586
 8686WAT      O26299   7.006   2.957   8.943
 8686WAT     H126300   6.943   3.033   8.960
 8686WAT     H226301   7.079   2.987   8.882
 8687WAT      O26302   1.374   9.107   4.878
 8687WAT     H126303   1.332   9.028   4.923
 8687WAT     H226304   1.333   9.191   4.913
 8688WAT      O26305   1.515   1.899   0.641
 8688WAT     H126306   1.450   1.911   0.717
 8688WAT     H226307   1.609   1.908   0.676
 8689WAT      O26308   9.792   8.559   9.570
 8689WAT     H126309   9.800   8.466   9.606
 8689WAT     H226310   9.711   8.603   9.610
 8690WAT      O26311   2.274   6.988   0.682
 8690WAT     H126312   2.313   7.073   0.717
 8690WAT     H226313   2.305   6.974   0.587
 8691WAT      O26314   9.324   4.508   7.039
 8691WAT     H126315   9.359   4.557   7.118
 8691WAT     H226316   9.344   4.559   6.956
 8692WAT      O26317   8.548   4.445   7.237
 8692WAT     H126318   8.478   4.432   7.167
 8692WAT     H226319   8.617   4.373   7.229
 8693WAT      O26320   4.297   4.874   2.838
 8693WAT     H126321   4.288   4.879   2.938
 8693WAT     H226322   4.350   4.792   2.814
 8694WAT      O26323   8.031   8.650   7.314
 8694WAT     H126324   8.092   8.727   7.296
 8694WAT     H226325   8.057   8.608   7.401
 8695WAT      O26326   4.398   7.650   0.673
 8695WAT     H126327   4.486   7.642   0.625
 8695WAT     H226328   4.329   7.686   0.610
 8696WAT      O26329   4.846   5.177   3.421
 8696WAT     H126330   4.847   5.186   3.521
 8696WAT     H226331   4.751   5.164   3.390
 8697WAT      O26332   2.368   2.292   0.445
 8697WAT     H126333   2.399   2.359   0.378
 8697WAT     H226334   2.355   2.204   0.400
 8698WAT      O26335   0.728   2.597   1.365
 8698WAT     H126336   0.668   2.519   1.384
 8698WAT     H226337   0.823   2.566   1.364
 8699WAT      O26338   3.850   1.364   1.232
 8699WAT     H126339   3.947   1.389   1.231
 8699WAT     H226340   3.795   1.445   1.252
 8700WAT      O26341   0.749   2.428   8.780
 8700WAT     H126342   0.675   2.492   8.799
 8700WAT     H226343   0.736   2.345   8.835
 8701WAT      O26344   4.706   2.585   4.151
 8701WAT     H126345   4.623   2.640   4.156
 8701WAT     H226346   4.776   2.636   4.101
 8702WAT      O26347   8.021   8.202   0.015
 8702WAT     H126348   7.988   8.174   0.105
 8702WAT     H226349   8.029   8.122  -0.045
 8703WAT      O26350   3.402   0.202   2.237
 8703WAT     H126351   3.414   0.297   2.264
 8703WAT     H226352   3.305   0.178   2.240
 8704WAT      O26353   8.349   2.052   1.245
 8704WAT     H126354   8.311   1.978   1.301
 8704WAT     H226355   8.405   2.111   1.303
 8705WAT      O26356   4.550   4.413   9.077
 8705WAT     H126357   4.594   4.328   9.048
 8705WAT     H226358   4.457   4.393   9.109
 8706WAT      O26359   1.545   9.479   9.183
 8706WAT     H126360   1.634   9.454   9.221
 8706WAT     H226361   1.481   9.496   9.257
 8707WAT      O26362   8.082   2.298   8.006
 8707WAT     H126363   8.024   2.279   7.927
 8707WAT     H226364   8.052   2.384   8.048
 8708WAT      O26365   1.868   0.086   7.101
 8708WAT     H126366   1.923   0.168   7.084
 8708WAT     H226367   1.864   0.068   7.199
 8709WAT      O26368   5.368   9.839   2.012
 8709WAT     H126369   5.377   9.741   1.996
 8709WAT     H226370   5.340   9.855   2.107
 8710WAT      O26371   4.833   6.957   8.121
 8710WAT     H126372   4.754   6.900   8.096
 8710WAT     H226373   4.917   6.914   8.087
 8711WAT      O26374   9.445   1.457   6.614
 8711WAT     H126375   9.424   1.530   6.548
 8711WAT     H226376   9.468   1.373   6.564
 8712WAT      O26377   6.730   9.682   7.062
 8712WAT     H126378   6.699   9.596   7.102
 8712WAT     H226379   6.757   9.668   6.967
 8713WAT      O26380   3.932   8.749   3.735
 8713WAT     H126381   3.921   8.815   3.660
 8713WAT     H226382   3.849   8.694   3.742
 8714WAT      O26383   0.487   3.923   0.401
 8714WAT     H126384   0.546   3.875   0.336
 8714WAT     H226385   0.543   3.971   0.468
 8715WAT      O26386   3.769   4.896   5.126
 8715WAT     H126387   3.848   4.911   5.066
 8715WAT     H226388   3.699   4.965   5.107
 8716WAT      O26389   8.804   1.860   3.597
 8716WAT     H126390   8.885   1.883   3.651
 8716WAT     H226391   8.781   1.764   3.612
 8717WAT      O26392   1.335   9.387   3.818
 8717WAT     H126393   1.269   9.374   3.892
 8717WAT     H226394   1.291   9.371   3.730
 8718WAT      O26395   5.579   6.774   3.044
 8718WAT     H126396   5.611   6.747   3.135
 8718WAT     H226397   5.580   6.694   2.983
 8719WAT      O26398   1.796   2.392   2.980
 8719WAT     H126399   1.727   2.462   2.958
 8719WAT     H226400   1.848   2.369   2.897
 8720WAT      O26401   9.262   8.154   2.576
 8720WAT     H126402   9.252   8.226   2.508
 8720WAT     H226403   9.172   8.119   2.602
 8721WAT      O26404   0.027   4.307   9.421
 8721WAT     H126405  -0.070   4.312   9.396
 8721WAT     H226406   0.071   4.394   9.398
 8722WAT      O26407   0.303   0.252   7.440
 8722WAT     H126408   0.204   0.239   7.437
 8722WAT     H226409   0.324   0.335   7.491
 8723WAT      O26410   9.215   3.922   7.697
 8723WAT     H126411   9.158   4.000   7.672
 8723WAT     H226412   9.279   3.902   7.623
 8724WAT      O26413   5.040   6.402   5.845
 8724WAT     H126414   5.057   6.318   5.793
 8724WAT     H226415   5.072   6.481   5.792
 8725WAT      O26416   2.726   7.907   2.069
 8725WAT     H126417   2.746   7.896   1.972
 8725WAT     H226418   2.794   7.857   2.123
 8726WAT      O26419   3.740   7.337   7.941
 8726WAT     H126420   3.736   7.429   7.980
 8726WAT     H226421   3.795   7.339   7.857
 8727WAT      O26422   3.389   8.982   8.515
 8727WAT     H126423   3.475   8.994   8.564
 8727WAT     H226424   3.313   8.987   8.580
 8728WAT      O26425   0.513   6.318   7.018
 8728WAT     H126426   0.461   6.307   7.103
 8728WAT     H226427   0.475   6.394   6.966
 8729WAT      O26428   8.526   4.609   4.993
 8729WAT     H126429   8.587   4.530   5.000
 8729WAT     H226430   8.543   4.656   4.907
 8730WAT      O26431   3.888   0.779   1.881
 8730WAT     H126432   3.915   0.731   1.797
 8730WAT     H226433   3.794   0.810   1.873
 8731WAT      O26434   4.602   8.948   4.787
 8731WAT     H126435   4.691   8.984   4.813
 8731WAT     H226436   4.577   8.982   4.696
 8732WAT      O26437   5.136   9.348   2.861
 8732WAT     H126438   5.150   9.423   2.796
 8732WAT     H226439   5.054   9.366   2.915
 8733WAT      O26440   2.950   4.895   0.647
 8733WAT     H126441   2.870   4.949   0.672
 8733WAT     H226442   2.944   4.805   0.691
 8734WAT      O26443   4.522   2.774   5.641
 8734WAT     H126444   4.538   2.865   5.604
 8734WAT     H226445   4.609   2.735   5.672
 8735WAT      O26446   3.281   8.838   7.914
 8735WAT     H126447   3.360   8.899   7.923
 8735WAT     H226448   3.312   8.747   7.886
 8736WAT      O26449   9.597   3.012   3.335
 8736WAT     H126450   9.625   2.978   3.425
 8736WAT     H226451   9.538   2.945   3.291
 8737WAT      O26452   9.273   6.084   5.423
 8737WAT     H126453   9.196   6.031   5.389
 8737WAT     H226454   9.256   6.111   5.518
 8738WAT      O26455   6.139   8.862   5.888
 8738WAT     H126456   6.169   8.820   5.802
 8738WAT     H226457   6.064   8.809   5.927
 8739WAT      O26458   5.459   1.147   2.132
 8739WAT     H126459   5.371   1.105   2.111
 8739WAT     H226460   5.461   1.240   2.094
 8740WAT      O26461   3.070   4.052   9.526
 8740WAT     H126462   3.112   4.084   9.610
 8740WAT     H226463   3.110   3.965   9.499
 8741WAT      O26464   7.885   0.201   8.656
 8741WAT     H126465   7.834   0.282   8.626
 8741WAT     H226466   7.915   0.214   8.751
 8742WAT      O26467   2.693   7.114   6.845
 8742WAT     H126468   2.682   7.091   6.942
 8742WAT     H226469   2.733   7.036   6.796
 8743WAT      O26470   8.180   0.406   7.843
 8743WAT     H126471   8.104   0.472   7.845
 8743WAT     H226472   8.265   0.455   7.825
 8744WAT      O26473   8.960   7.274   0.432
 8744WAT     H126474   9.017   7.263   0.513
 8744WAT     H226475   8.936   7.371   0.421
 8745WAT      O26476   6.579   6.443   9.534
 8745WAT     H126477   6.563   6.384   9.455
 8745WAT     H226478   6.673   6.432   9.566
 8746WAT      O26479   9.337   3.092   0.842
 8746WAT     H126480   9.239   3.098   0.825
 8746WAT     H226481   9.356   3.011   0.898
 8747WAT      O26482   1.698   2.738   1.588
 8747WAT     H126483   1.735   2.769   1.676
 8747WAT     H226484   1.751   2.660   1.555
 8748WAT      O26485   4.226   5.564   1.281
 8748WAT     H126486   4.272   5.482   1.313
 8748WAT     H226487   4.259   5.643   1.332
 8749WAT      O26488   2.339   2.475   7.428
 8749WAT     H126489   2.352   2.547   7.361
 8749WAT     H226490   2.423   2.420   7.434
 8750WAT      O26491   0.486   6.082   1.190
 8750WAT     H126492   0.406   6.061   1.245
 8750WAT     H226493   0.528   5.996   1.159
 8751WAT      O26494   5.644   5.200   8.118
 8751WAT     H126495   5.551   5.163   8.110
 8751WAT     H226496   5.689   5.197   8.028
 8752WAT      O26497   3.906   5.589   4.321
 8752WAT     H126498   3.880   5.584   4.417
 8752WAT     H226499   3.874   5.675   4.282
 8753WAT      O26500   7.471   7.811   7.034
 8753WAT     H126501   7.499   7.901   7.066
 8753WAT     H226502   7.374   7.812   7.011
 8754WAT      O26503   5.838   4.169   9.833
 8754WAT     H126504   5.854   4.071   9.831
 8754WAT     H226505   5.888   4.213   9.758
 8755WAT      O26506   3.485   0.163   9.651
 8755WAT     H126507   3.547   0.230   9.693
 8755WAT     H226508   3.539   0.095   9.601
 8756WAT      O26509   1.400   6.020   6.616
 8756WAT     H126510   1.354   6.031   6.704
 8756WAT     H226511   1.339   5.974   6.552
 8757WAT      O26512   2.733   1.435   3.789
 8757WAT     H126513   2.651   1.493   3.787
 8757WAT     H226514   2.774   1.440   3.880
 8758WAT      O26515   2.883   6.734   0.944
 8758WAT     H126516   2.830   6.751   1.027
 8758WAT     H226517   2.854   6.798   0.872
 8759WAT      O26518   0.221   0.730   6.682
 8759WAT     H126519   0.255   0.728   6.588
 8759WAT     H226520   0.269   0.801   6.734
 8760WAT      O26521   2.498   0.788   1.517
 8760WAT     H126522   2.463   0.816   1.428
 8760WAT     H226523   2.549   0.863   1.558
 8761WAT      O26524   9.784   3.040   5.861
 8761WAT     H126525   9.761   3.019   5.957
 8761WAT     H226526   9.772   2.959   5.805
 8762WAT      O26527   2.734   9.348   5.457
 8762WAT     H126528   2.685   9.365   5.371
 8762WAT     H226529   2.744   9.434   5.506
 8763WAT      O26530   7.246   2.019   4.318
 8763WAT     H126531   7.219   1.961   4.240
 8763WAT     H226532   7.310   2.089   4.286
 8764WAT      O26533   6.155   8.218   6.780
 8764WAT     H126534   6.173   8.286   6.851
 8764WAT     H226535   6.157   8.262   6.690
 8765WAT      O26536   9.775   2.365   4.443
 8765WAT     H126537   9.685   2.335   4.413
 8765WAT     H226538   9.830   2.390   4.363
 8766WAT      O26539   3.160   1.778   7.687
 8766WAT     H126540   3.167   1.786   7.786
 8766WAT     H226541   3.214   1.700   7.656
 8767WAT      O26542   6.208   4.602   8.030
 8767WAT     H126543   6.141   4.606   7.956
 8767WAT     H226544   6.163   4.573   8.115
 8768WAT      O26545   4.382   1.979   8.414
 8768WAT     H126546   4.323   2.049   8.373
 8768WAT     H226547   4.379   1.896   8.358
 8769WAT      O26548   3.390   8.448   5.511
 8769WAT     H126549   3.368   8.522   5.448
 8769WAT     H226550   3.426   8.487   5.596
 8770WAT      O26551   3.729   8.508   5.813
 8770WAT     H126552   3.765   8.506   5.720
 8770WAT     H226553   3.639   8.551   5.814
 8771WAT      O26554   7.651   4.942   7.194
 8771WAT     H126555   7.587   4.971   7.122
 8771WAT     H226556   7.608   4.954   7.283
 8772WAT      O26557   5.747   6.057   2.451
 8772WAT     H126558   5.790   6.140   2.416
 8772WAT     H226559   5.781   5.978   2.399
 8773WAT      O26560   9.102   0.208   1.907
 8773WAT     H126561   9.012   0.166   1.918
 8773WAT     H226562   9.092   0.299   1.868
 8774WAT      O26563   0.527   3.172   5.841
 8774WAT     H126564   0.621   3.194   5.816
 8774WAT     H226565   0.499   3.230   5.917
 8775WAT      O26566   8.513   7.725   3.172
 8775WAT     H126567   8.510   7.625   3.178
 8775WAT     H226568   8.420   7.760   3.158
 8776WAT      O26569   3.737   7.453   0.746
 8776WAT     H126570   3.724   7.478   0.650
 8776WAT     H226571   3.825   7.486   0.778
 8777WAT      O26572   8.608   2.900   4.073
 8777WAT     H126573   8.521   2.890   4.121
 8777WAT     H226574   8.674   2.947   4.132
 8778WAT      O26575   1.952   6.962   5.501
 8778WAT     H126576   1.862   6.935   5.535
 8778WAT     H226577   2.017   6.887   5.513
 8779WAT      O26578   9.237   7.251   0.363
 8779WAT     H126579   9.275   7.287   0.278
 8779WAT     H226580   9.138   7.263   0.362
 8780WAT      O26581   7.767   0.877   5.240
 8780WAT     H126582   7.842   0.818   5.211
 8780WAT     H226583   7.794   0.973   5.232
 8781WAT      O26584   7.619   0.197   9.448
 8781WAT     H126585   7.570   0.258   9.510
 8781WAT     H226586   7.552   0.140   9.399
 8782WAT      O26587   6.463   5.393   6.848
 8782WAT     H126588   6.477   5.492   6.845
 8782WAT     H226589   6.548   5.349   6.877
 8783WAT      O26590   3.504   5.535   2.079
 8783WAT     H126591   3.440   5.582   2.018
 8783WAT     H226592   3.495   5.436   2.067
 8784WAT      O26593   6.416   9.713   2.109
 8784WAT     H126594   6.413   9.722   2.009
 8784WAT     H226595   6.352   9.641   2.138
 8785WAT      O26596   4.784   6.121   9.487
 8785WAT     H126597   4.816   6.146   9.395
 8785WAT     H226598   4.790   6.022   9.498
 8786WAT      O26599   2.265   5.422   2.745
 8786WAT     H126600   2.304   5.505   2.705
 8786WAT     H226601   2.335   5.377   2.801
 8787WAT      O26602   8.329   9.415   3.259
 8787WAT     H126603   8.276   9.378   3.183
 8787WAT     H226604   8.314   9.360   3.341
 8788WAT      O26605   2.374   8.473   6.093
 8788WAT     H126606   2.466   8.458   6.056
 8788WAT     H226607   2.370   8.438   6.186
 8789WAT      O26608   1.628   7.835   1.627
 8789WAT     H126609   1.635   7.835   1.726
 8789WAT     H226610   1.673   7.916   1.590
 8790WAT      O26611   8.432   8.579   7.512
 8790WAT     H126612   8.419   8.482   7.536
 8790WAT     H226613   8.446   8.632   7.595
 8791WAT      O26614   5.756   6.859   2.860
 8791WAT     H126615   5.842   6.810   2.844
 8791WAT     H226616   5.696   6.803   2.917
 8792WAT      O26617   9.419   6.237   2.707
 8792WAT     H126618   9.479   6.195   2.639
 8792WAT     H226619   9.472   6.294   2.769
 8793WAT      O26620   9.364   4.593   3.893
 8793WAT     H126621   9.372   4.527   3.967
 8793WAT     H226622   9.349   4.684   3.930
 8794WAT      O26623   5.014   3.193   2.885
 8794WAT     H126624   4.970   3.152   2.965
 8794WAT     H226625   5.043   3.286   2.907
 8795WAT      O26626   2.299   9.293   6.879
 8795WAT     H126627   2.390   9.334   6.871
 8795WAT     H226628   2.229   9.362   6.858
 8796WAT      O26629   9.771   7.250   3.991
 8796WAT     H126630   9.674   7.254   3.968
 8796WAT     H226631   9.820   7.322   3.941
 8797WAT      O26632   5.740   8.062   3.090
 8797WAT     H126633   5.657   8.096   3.046
 8797WAT     H226634   5.808   8.135   3.097
 8798WAT      O26635   8.773   1.312   2.533
 8798WAT     H126636   8.870   1.288   2.539
 8798WAT     H226637   8.723   1.238   2.489
 8799WAT      O26638   7.660   6.675   5.515
 8799WAT     H126639   7.704   6.723   5.440
 8799WAT     H226640   7.705   6.586   5.528
 8800WAT      O26641   2.373   7.931   1.539
 8800WAT     H126642   2.348   7.886   1.453
 8800WAT     H226643   2.382   7.863   1.611
 8801WAT      O26644   0.083   9.332   4.244
 8801WAT     H126645   0.079   9.333   4.144
 8801WAT     H226646  -0.008   9.350   4.281
 8802WAT      O26647   8.619   0.289   4.663
 8802WAT     H126648   8.711   0.294   4.624
 8802WAT     H226649   8.601   0.370   4.719
 8803WAT      O26650   7.386   1.406   2.658
 8803WAT     H126651   7.417   1.441   2.746
 8803WAT     H226652   7.286   1.398   2.658
 8804WAT      O26653   6.088   8.031   8.244
 8804WAT     H126654   6.181   8.069   8.240
 8804WAT     H226655   6.043   8.062   8.328
 8805WAT      O26656   4.989   3.057   8.419
 8805WAT     H126657   4.900   3.087   8.454
 8805WAT     H226658   5.043   3.020   8.495
 8806WAT      O26659   4.836   3.950   7.381
 8806WAT     H126660   4.922   4.000   7.390
 8806WAT     H226661   4.774   4.001   7.320
 8807WAT      O26662   7.161   4.260   6.405
 8807WAT     H126663   7.084   4.324   6.402
 8807WAT     H226664   7.168   4.220   6.496
 8808WAT      O26665   2.697   0.301   0.114
 8808WAT     H126666   2.691   0.219   0.058
 8808WAT     H226667   2.631   0.295   0.189
 8809WAT      O26668   5.024   8.077   3.354
 8809WAT     H126669   5.036   8.045   3.260
 8809WAT     H226670   5.093   8.146   3.375
 8810WAT      O26671   7.696   8.934   2.533
 8810WAT     H126672   7.693   8.871   2.610
 8810WAT     H226673   7.608   8.934   2.486
 8811WAT      O26674   1.793   7.567   5.437
 8811WAT     H126675   1.737   7.613   5.505
 8811WAT     H226676   1.827   7.481   5.474
 8812WAT      O26677   0.242   1.690   5.714
 8812WAT     H126678   0.243   1.786   5.742
 8812WAT     H226679   0.159   1.671   5.662
 8813WAT      O26680   9.568   9.041   0.328
 8813WAT     H126681   9.616   9.127   0.312
 8813WAT     H226682   9.593   9.005   0.418
 8814WAT      O26683   2.972   5.383   5.207
 8814WAT     H126684   3.045   5.398   5.274
 8814WAT     H226685   2.935   5.291   5.218
 8815WAT      O26686   5.166   8.385   9.261
 8815WAT     H126687   5.245   8.421   9.310
 8815WAT     H226688   5.159   8.286   9.276
 8816WAT      O26689   6.535   8.270   3.123
 8816WAT     H126690   6.485   8.189   3.154
 8816WAT     H226691   6.470   8.344   3.103
 8817WAT      O26692   3.240   3.332   8.547
 8817WAT     H126693   3.269   3.358   8.639
 8817WAT     H226694   3.299   3.377   8.479
 8818WAT      O26695   2.624   5.777   1.886
 8818WAT     H126696   2.626   5.677   1.892
 8818WAT     H226697   2.546   5.805   1.830
 8819WAT      O26698   4.268   3.551   9.467
 8819WAT     H126699   4.175   3.545   9.503
 8819WAT     H226700   4.290   3.647   9.449
 8820WAT      O26701   3.804   7.750   9.551
 8820WAT     H126702   3.881   7.696   9.584
 8820WAT     H226703   3.796   7.833   9.607
 8821WAT      O26704   2.127   2.606   0.201
 8821WAT     H126705   2.075   2.626   0.117
 8821WAT     H226706   2.066   2.567   0.270
 8822WAT      O26707   6.815   9.514   0.384
 8822WAT     H126708   6.876   9.564   0.323
 8822WAT     H226709   6.720   9.538   0.362
 8823WAT      O26710   5.402   3.086   8.892
 8823WAT     H126711   5.494   3.103   8.855
 8823WAT     H226712   5.391   2.988   8.910
 8824WAT      O26713   9.683   7.082   0.884
 8824WAT     H126714   9.655   7.174   0.860
 8824WAT     H226715   9.656   7.019   0.812
 8825WAT      O26716   2.195   4.251   4.961
 8825WAT     H126717   2.125   4.197   5.007
 8825WAT     H226718   2.205   4.221   4.866
 8826WAT      O26719   0.194   5.721   4.926
 8826WAT     H126720   0.189   5.811   4.969
 8826WAT     H226721   0.192   5.649   4.996
 8827WAT      O26722   2.326   4.766   7.748
 8827WAT     H126723   2.326   4.693   7.680
 8827WAT     H226724   2.408   4.758   7.805
 8828WAT      O26725   2.602   8.491   3.612
 8828WAT     H126726   2.549   8.533   3.686
 8828WAT     H226727   2.686   8.545   3.597
 8829WAT      O26728   5.495   6.566   1.103
 8829WAT     H126729   5.441   6.649   1.090
 8829WAT     H226730   5.558   6.578   1.180
 8830WAT      O26731   1.066   7.960   6.827
 8830WAT     H126732   0.981   7.907   6.824
 8830WAT     H226733   1.132   7.913   6.886
 8831WAT      O26734   3.630   5.441   2.690
 8831WAT     H126735   3.633   5.533   2.650
 8831WAT     H226736   3.611   5.447   2.787
 8832WAT      O26737   8.308   8.102   1.670
 8832WAT     H126738   8.388   8.050   1.640
 8832WAT     H226739   8.298   8.184   1.613
 8833WAT      O26740   0.033   2.280   4.650
 8833WAT     H126741  -0.030   2.320   4.583
 8833WAT     H226742   0.112   2.341   4.662
 8834WAT      O26743   8.373   1.363   3.153
 8834WAT     H126744   8.330   1.367   3.243
 8834WAT     H226745   8.421   1.449   3.136
 8835WAT      O26746   0.960   1.172   5.916
 8835WAT     H126747   1.045   1.199   5.961
 8835WAT     H226748   0.926   1.087   5.956
 8836WAT      O26749   6.515   2.307   0.971
 8836WAT     H126750   6.557   2.333   1.058
 8836WAT     H226751   6.528   2.209   0.956
 8837WAT      O26752   3.068   8.858   3.595
 8837WAT     H126753   3.144   8.806   3.556
 8837WAT     H226754   3.075   8.953   3.564
 8838WAT      O26755   5.811   5.449   8.271
 8838WAT     H126756   5.732   5.398   8.303
 8838WAT     H226757   5.789   5.496   8.186
 8839WAT      O26758   0.596   0.769   3.338
 8839WAT     H126759   0.650   0.833   3.284
 8839WAT     H226760   0.501   0.799   3.341
 8840WAT      O26761   5.005   3.633   5.524
 8840WAT     H126762   5.030   3.650   5.619
 8840WAT     H226763   4.918   3.583   5.521
 8841WAT      O26764   4.343   3.717   7.329
 8841WAT     H126765   4.334   3.617   7.330
 8841WAT     H226766   4.363   3.748   7.236
 8842WAT      O26767   3.787   7.502   1.710
 8842WAT     H126768   3.703   7.462   1.748
 8842WAT     H226769   3.861   7.435   1.714
 8843WAT      O26770   2.923   8.586   9.449
 8843WAT     H126771   2.947   8.503   9.500
 8843WAT     H226772   2.837   8.622   9.485
 8844WAT      O26773   4.706   1.032   2.713
 8844WAT     H126774   4.638   0.980   2.765
 8844WAT     H226775   4.684   1.028   2.616
 8845WAT      O26776   6.920   5.288   2.438
 8845WAT     H126777   6.829   5.258   2.410
 8845WAT     H226778   6.961   5.220   2.498
 8846WAT      O26779   8.255   5.659   9.716
 8846WAT     H126780   8.355   5.655   9.720
 8846WAT     H226781   8.225   5.750   9.746
 8847WAT      O26782   1.614   7.055   8.083
 8847WAT     H126783   1.577   7.122   8.019
 8847WAT     H226784   1.546   7.036   8.154
 8848WAT      O26785   0.746   2.787   3.128
 8848WAT     H126786   0.648   2.797   3.112
 8848WAT     H226787   0.784   2.721   3.063
 8849WAT      O26788   3.690   3.445   4.080
 8849WAT     H126789   3.655   3.538   4.089
 8849WAT     H226790   3.670   3.410   3.988
 8850WAT      O26791   4.917   0.745   8.273
 8850WAT     H126792   4.862   0.750   8.356
 8850WAT     H226793   5.014   0.758   8.296
 8851WAT      O26794   8.939   5.916   5.958
 8851WAT     H126795   8.892   6.003   5.943
 8851WAT     H226796   9.000   5.897   5.882
 8852WAT      O26797   8.886   1.557   6.873
 8852WAT     H126798   8.857   1.573   6.779
 8852WAT     H226799   8.973   1.603   6.890
 8853WAT      O26800   5.962   0.530   0.525
 8853WAT     H126801   6.001   0.439   0.509
 8853WAT     H226802   6.016   0.598   0.474
 8854WAT      O26803   1.226   3.353   3.321
 8854WAT     H126804   1.148   3.347   3.258
 8854WAT     H226805   1.260   3.447   3.323
 8855WAT      O26806   3.231   8.590   6.337
 8855WAT     H126807   3.269   8.608   6.246
 8855WAT     H226808   3.134   8.565   6.328
 8856WAT      O26809   2.485   0.288   9.617
 8856WAT     H126810   2.457   0.262   9.709
 8856WAT     H226811   2.467   0.385   9.602
 8857WAT      O26812   6.585   5.703   6.298
 8857WAT     H126813   6.558   5.705   6.202
 8857WAT     H226814   6.575   5.610   6.333
 8858WAT      O26815   1.589   3.325   0.560
 8858WAT     H126816   1.623   3.290   0.648
 8858WAT     H226817   1.562   3.421   0.571
 8859WAT      O26818   1.474   7.899   2.346
 8859WAT     H126819   1.557   7.843   2.341
 8859WAT     H226820   1.427   7.897   2.258
 8860WAT      O26821   7.155   0.155   2.483
 8860WAT     H126822   7.088   0.198   2.422
 8860WAT     H226823   7.172   0.061   2.453
 8861WAT      O26824   8.756   3.533   6.432
 8861WAT     H126825   8.850   3.559   6.457
 8861WAT     H226826   8.747   3.529   6.333
 8862WAT      O26827   2.443   3.647   4.749
 8862WAT     H126828   2.382   3.573   4.719
 8862WAT     H226829   2.424   3.669   4.844
 8863WAT      O26830   8.705   7.537   6.997
 8863WAT     H126831   8.630   7.485   7.037
 8863WAT     H226832   8.732   7.495   6.910
 8864WAT      O26833   5.679   3.368   2.980
 8864WAT     H126834   5.761   3.344   2.929
 8864WAT     H226835   5.697   3.364   3.078
 8865WAT      O26836   2.017   7.371   3.173
 8865WAT     H126837   2.031   7.342   3.268
 8865WAT     H226838   1.939   7.321   3.135
 8866WAT      O26839   9.236   1.819   8.285
 8866WAT     H126840   9.272   1.726   8.272
 8866WAT     H226841   9.313   1.883   8.294
 8867WAT      O26842   4.919   2.290   2.169
 8867WAT     H126843   4.919   2.306   2.071
 8867WAT     H226844   4.993   2.228   2.193
 8868WAT      O26845   3.899   0.591   9.843
 8868WAT     H126846   3.806   0.620   9.819
 8868WAT     H226847   3.910   0.594   9.942
 8869WAT      O26848   0.686   4.452   4.477
 8869WAT     H126849   0.752   4.510   4.524
 8869WAT     H226850   0.593   4.488   4.492
 8870WAT      O26851   2.069   4.733   3.070
 8870WAT     H126852   1.973   4.758   3.064
 8870WAT     H226853   2.115   4.756   2.984
 8871WAT      O26854   4.097   5.691   5.820
 8871WAT     H126855   4.114   5.749   5.740
 8871WAT     H226856   4.159   5.718   5.894
 8872WAT      O26857   2.303   0.663   2.581
 8872WAT     H126858   2.236   0.699   2.516
 8872WAT     H226859   2.389   0.644   2.533
 8873WAT      O26860   8.022   2.015   1.452
 8873WAT     H126861   7.942   1.960   1.428
 8873WAT     H226862   8.053   2.067   1.373
 8874WAT      O26863   5.615   8.480   8.637
 8874WAT     H126864   5.671   8.548   8.685
 8874WAT     H226865   5.675   8.413   8.594
 8875WAT      O26866   7.268   6.734   0.424
 8875WAT     H126867   7.249   6.678   0.505
 8875WAT     H226868   7.185   6.784   0.398
 8876WAT      O26869   2.652   7.484   4.547
 8876WAT     H126870   2.689   7.577   4.556
 8876WAT     H226871   2.562   7.489   4.504
 8877WAT      O26872   6.877   4.044   3.082
 8877WAT     H126873   6.847   3.950   3.063
 8877WAT     H226874   6.844   4.072   3.172
 8878WAT      O26875   5.154   3.316   3.653
 8878WAT     H126876   5.197   3.344   3.738
 8878WAT     H226877   5.137   3.218   3.655
 8879WAT      O26878   5.318   0.352   8.114
 8879WAT     H126879   5.406   0.331   8.157
 8879WAT     H226880   5.281   0.437   8.151
 8880WAT      O26881   8.298   1.646   3.799
 8880WAT     H126882   8.305   1.745   3.805
 8880WAT     H226883   8.293   1.619   3.702
 8881WAT      O26884   5.899   2.080   2.853
 8881WAT     H126885   5.900   2.179   2.861
 8881WAT     H226886   5.985   2.050   2.811
 8882WAT      O26887   6.017   5.787   4.128
 8882WAT     H126888   5.999   5.879   4.094
 8882WAT     H226889   5.931   5.740   4.145
 8883WAT      O26890   2.340   8.099   3.485
 8883WAT     H126891   2.361   8.195   3.501
 8883WAT     H226892   2.395   8.065   3.409
 8884WAT      O26893   4.903   4.233   1.043
 8884WAT     H126894   4.850   4.193   0.968
 8884WAT     H226895   5.000   4.211   1.030
 8885WAT      O26896   2.026   8.282   5.388
 8885WAT     H126897   2.012   8.361   5.448
 8885WAT     H226898   2.107   8.232   5.418
 8886WAT      O26899   1.580   0.411   6.729
 8886WAT     H126900   1.643   0.337   6.705
 8886WAT     H226901   1.517   0.427   6.654
 8887WAT      O26902   7.807   9.800   3.398
 8887WAT     H126903   7.808   9.814   3.497
 8887WAT     H226904   7.873   9.729   3.373
 8888WAT      O26905   7.930   8.230   4.908
 8888WAT     H126906   7.966   8.162   4.972
 8888WAT     H226907   7.890   8.306   4.960
 8889WAT      O26908   1.531   4.168   1.537
 8889WAT     H126909   1.478   4.230   1.479
 8889WAT     H226910   1.472   4.095   1.570
 8890WAT      O26911   4.769   3.722   6.517
 8890WAT     H126912   4.722   3.810   6.521
 8890WAT     H226913   4.742   3.673   6.435
 8891WAT      O26914   3.920   0.621   2.816
 8891WAT     H126915   4.018   0.642   2.821
 8891WAT     H226916   3.873   0.692   2.765
 8892WAT      O26917   1.230   7.064   2.030
 8892WAT     H126918   1.215   7.131   1.957
 8892WAT     H226919   1.322   7.076   2.067
 8893WAT      O26920   9.077   3.840   4.628
 8893WAT     H126921   9.127   3.812   4.546
 8893WAT     H226922   9.044   3.933   4.616
 8894WAT      O26923   1.426   3.197   9.762
 8894WAT     H126924   1.367   3.232   9.835
 8894WAT     H226925   1.373   3.137   9.703
 8895WAT      O26926   4.906   4.374   9.572
 8895WAT     H126927   4.816   4.417   9.576
 8895WAT     H226928   4.897   4.281   9.536
 8896WAT      O26929   2.360   5.952   4.873
 8896WAT     H126930   2.454   5.973   4.901
 8896WAT     H226931   2.329   5.869   4.919
 8897WAT      O26932   3.176   6.601   2.189
 8897WAT     H126933   3.217   6.692   2.196
 8897WAT     H226934   3.088   6.607   2.142
 8898WAT      O26935   6.910   3.549   0.200
 8898WAT     H126936   6.847   3.615   0.160
 8898WAT     H226937   6.966   3.509   0.128
 8899WAT      O26938   9.206   2.459   9.392
 8899WAT     H126939   9.212   2.505   9.481
 8899WAT     H226940   9.234   2.364   9.402
 8900WAT      O26941   0.407   7.660   6.955
 8900WAT     H126942   0.474   7.590   6.982
 8900WAT     H226943   0.394   7.724   7.031
 8901WAT      O26944   6.609   5.685   5.312
 8901WAT     H126945   6.514   5.713   5.300
 8901WAT     H226946   6.669   5.749   5.264
 8902WAT      O26947   1.773   8.990   2.019
 8902WAT     H126948   1.769   8.919   2.089
 8902WAT     H226949   1.710   8.970   1.945
 8903WAT      O26950   8.444   3.183   5.479
 8903WAT     H126951   8.409   3.144   5.565
 8903WAT     H226952   8.369   3.225   5.428
 8904WAT      O26953   4.541   2.892   6.361
 8904WAT     H126954   4.455   2.926   6.324
 8904WAT     H226955   4.592   2.968   6.402
 8905WAT      O26956   9.510   1.814   2.471
 8905WAT     H126957   9.455   1.887   2.510
 8905WAT     H226958   9.602   1.816   2.512
 8906WAT      O26959   4.187   4.182   1.384
 8906WAT     H126960   4.244   4.216   1.309
 8906WAT     H226961   4.211   4.229   1.468
 8907WAT      O26962   8.160   9.666   6.834
 8907WAT     H126963   8.200   9.691   6.923
 8907WAT     H226964   8.079   9.609   6.850
 8908WAT      O26965   5.262   5.425   2.041
 8908WAT     H126966   5.243   5.330   2.065
 8908WAT     H226967   5.180   5.481   2.054
 8909WAT      O26968   7.944   9.047   8.830
 8909WAT     H126969   7.912   8.956   8.858
 8909WAT     H226970   7.873   9.092   8.777
 8910WAT      O26971   6.012   7.142   5.384
 8910WAT     H126972   6.048   7.055   5.418
 8910WAT     H226973   6.088   7.200   5.353
 8911WAT      O26974   2.855   6.537   8.494
 8911WAT     H126975   2.828   6.571   8.584
 8911WAT     H226976   2.775   6.499   8.447
 8912WAT      O26977   8.837   1.471   2.319
 8912WAT     H126978   8.810   1.403   2.387
 8912WAT     H226979   8.831   1.562   2.360
 8913WAT      O26980   3.632   7.172   8.678
 8913WAT     H126981   3.648   7.136   8.587
 8913WAT     H226982   3.565   7.246   8.673
 8914WAT      O26983   8.027   3.757   7.421
 8914WAT     H126984   7.960   3.825   7.389
 8914WAT     H226985   8.079   3.795   7.497
 8915WAT      O26986   8.415   5.928   7.468
 8915WAT     H126987   8.348   5.893   7.534
 8915WAT     H226988   8.501   5.948   7.515
 8916WAT      O26989   8.940   8.067   5.563
 8916WAT     H126990   8.976   8.108   5.480
 8916WAT     H226991   8.863   8.122   5.597
 8917WAT      O26992   3.495   1.603   0.108
 8917WAT     H126993   3.534   1.539   0.173
 8917WAT     H226994   3.504   1.566   0.015
 8918WAT      O26995   2.325   9.067   4.502
 8918WAT     H126996   2.284   9.157   4.488
 8918WAT     H226997   2.411   9.061   4.451
 8919WAT      O26998   0.325   7.576   7.513
 8919WAT     H126999   0.360   7.550   7.423
 8919WAT     H227000   0.232   7.611   7.504
 8920WAT      O27001   4.468   1.347   4.924
 8920WAT     H127002   4.371   1.354   4.944
 8920WAT     H227003   4.497   1.252   4.928
 8921WAT      O27004   1.468   1.889   1.015
 8921WAT     H127005   1.537   1.822   0.987
 8921WAT     H227006   1.427   1.861   1.101
 8922WAT      O27007   9.621   3.870   0.511
 8922WAT     H127008   9.678   3.811   0.454
 8922WAT     H227009   9.587   3.946   0.455
 8923WAT      O27010   4.715   0.852   3.197
 8923WAT     H127011   4.668   0.796   3.265
 8923WAT     H227012   4.787   0.798   3.153
 8924WAT      O27013   3.600   3.971   5.412
 8924WAT     H127014   3.672   3.903   5.425
 8924WAT     H227015   3.519   3.927   5.373
 8925WAT      O27016   0.167   6.724   1.082
 8925WAT     H127017   0.266   6.743   1.078
 8925WAT     H227018   0.119   6.791   1.025
 8926WAT      O27019   3.632   8.266   5.335
 8926WAT     H127020   3.668   8.359   5.330
 8926WAT     H227021   3.532   8.269   5.339
 8927WAT      O27022   8.496   8.161   2.778
 8927WAT     H127023   8.448   8.074   2.771
 8927WAT     H227024   8.560   8.159   2.855
 8928WAT      O27025   9.841   3.738   2.331
 8928WAT     H127026   9.924   3.790   2.312
 8928WAT     H227027   9.839   3.656   2.274
 8929WAT      O27028   5.801   0.526   7.084
 8929WAT     H127029   5.774   0.478   7.167
 8929WAT     H227030   5.813   0.461   7.009
 8930WAT      O27031   3.623   0.112   1.397
 8930WAT     H127032   3.644   0.095   1.493
 8930WAT     H227033   3.549   0.051   1.368
 8931WAT      O27034   8.774   6.080   9.497
 8931WAT     H127035   8.838   6.152   9.524
 8931WAT     H227036   8.771   6.010   9.567
 8932WAT      O27037   0.734   0.727   7.962
 8932WAT     H127038   0.688   0.807   8.001
 8932WAT     H227039   0.812   0.758   7.907
 8933WAT      O27040   5.104   1.843   8.685
 8933WAT     H127041   5.117   1.937   8.717
 8933WAT     H227042   5.103   1.842   8.585
 8934WAT      O27043   5.815   1.471   4.881
 8934WAT     H127044   5.780   1.564   4.888
 8934WAT     H227045   5.739   1.406   4.894
 8935WAT      O27046   9.878   1.811   1.224
 8935WAT     H127047   9.857   1.717   1.250
 8935WAT     H227048   9.904   1.864   1.305
 8936WAT      O27049   0.521   3.872   1.746
 8936WAT     H127050   0.506   3.803   1.675
 8936WAT     H227051   0.610   3.915   1.732
 8937WAT      O27052   4.195   1.222   8.783
 8937WAT     H127053   4.155   1.314   8.783
 8937WAT     H227054   4.212   1.192   8.689
 8938WAT      O27055   3.336   9.188   9.749
 8938WAT     H127056   3.272   9.202   9.825
 8938WAT     H227057   3.296   9.126   9.682
 8939WAT      O27058   9.735   4.286   1.669
 8939WAT     H127059   9.731   4.288   1.569
 8939WAT     H227060   9.776   4.200   1.699
 8940WAT      O27061   9.382   6.913   6.163
 8940WAT     H127062   9.309   6.908   6.231
 8940WAT     H227063   9.464   6.953   6.205
 8941WAT      O27064   5.184   2.354   7.494
 8941WAT     H127065   5.162   2.343   7.397
 8941WAT     H227066   5.160   2.270   7.543
 8942WAT      O27067   2.708   9.450   6.259
 8942WAT     H127068   2.730   9.358   6.294
 8942WAT     H227069   2.778   9.478   6.193
 8943WAT      O27070   8.304   4.255   5.117
 8943WAT     H127071   8.394   4.213   5.124
 8943WAT     H227072   8.240   4.207   5.176
 8944WAT      O27073   0.922   3.868   0.540
 8944WAT     H127074   0.882   3.778   0.553
 8944WAT     H227075   0.907   3.899   0.446
 8945WAT      O27076   2.320   9.535   1.923
 8945WAT     H127077   2.310   9.487   1.836
 8945WAT     H227078   2.242   9.515   1.982
 8946WAT      O27079   4.621   5.073   9.776
 8946WAT     H127080   4.644   5.115   9.864
 8946WAT     H227081   4.551   5.003   9.789
 8947WAT      O27082   3.855   0.731   7.741
 8947WAT     H127083   3.897   0.740   7.831
 8947WAT     H227084   3.883   0.644   7.700
 8948WAT      O27085   9.569   4.748   9.038
 8948WAT     H127086   9.603   4.682   8.970
 8948WAT     H227087   9.635   4.757   9.112
 8949WAT      O27088   4.883   7.511   3.959
 8949WAT     H127089   4.811   7.447   3.987
 8949WAT     H227090   4.951   7.463   3.904
 8950WAT      O27091   7.062   9.334   6.182
 8950WAT     H127092   7.074   9.283   6.097
 8950WAT     H227093   7.004   9.414   6.166
 8951WAT      O27094   1.628   5.293   4.202
 8951WAT     H127095   1.709   5.245   4.170
 8951WAT     H227096   1.609   5.371   4.143
 8952WAT      O27097   5.078   8.383   6.910
 8952WAT     H127098   5.076   8.469   6.961
 8952WAT     H227099   4.985   8.358   6.884
 8953WAT      O27100   1.258   1.797   2.491
 8953WAT     H127101   1.291   1.766   2.579
 8953WAT     H227102   1.321   1.864   2.453
 8954WAT      O27103   2.003   6.990   1.042
 8954WAT     H127104   2.021   7.035   0.954
 8954WAT     H227105   2.073   6.920   1.058
 8955WAT      O27106   9.268   1.819   5.955
 8955WAT     H127107   9.290   1.899   5.899
 8955WAT     H227108   9.253   1.740   5.896
 8956WAT      O27109   1.307   2.687   6.641
 8956WAT     H127110   1.262   2.633   6.712
 8956WAT     H227111   1.354   2.625   6.577
 8957WAT      O27112   9.855   8.523   6.288
 8957WAT     H127113   9.889   8.617   6.289
 8957WAT     H227114   9.905   8.469   6.354
 8958WAT      O27115   9.868   0.189   1.967
 8958WAT     H127116   9.826   0.277   1.987
 8958WAT     H227117   9.802   0.130   1.921
 8959WAT      O27118   1.221   2.784   2.670
 8959WAT     H127119   1.212   2.798   2.571
 8959WAT     H227120   1.183   2.862   2.719
 8960WAT      O27121   1.146   1.000   7.338
 8960WAT     H127122   1.147   0.901   7.323
 8960WAT     H227123   1.145   1.019   7.436
 8961WAT      O27124   8.161   3.514   7.796
 8961WAT     H127125   8.086   3.452   7.771
 8961WAT     H227126   8.142   3.558   7.883
 8962WAT      O27127   8.488   9.202   0.078
 8962WAT     H127128   8.540   9.278   0.040
 8962WAT     H227129   8.543   9.118   0.074
 8963WAT      O27130   2.480   0.822   4.590
 8963WAT     H127131   2.492   0.868   4.502
 8963WAT     H227132   2.568   0.785   4.619
 8964WAT      O27133   8.196   2.949   3.603
 8964WAT     H127134   8.149   2.980   3.520
 8964WAT     H227135   8.277   2.896   3.577
 8965WAT      O27136   4.709   4.518   2.356
 8965WAT     H127137   4.794   4.468   2.343
 8965WAT     H227138   4.665   4.533   2.267
 8966WAT      O27139   5.826   2.183   7.795
 8966WAT     H127140   5.759   2.114   7.766
 8966WAT     H227141   5.798   2.272   7.762
 8967WAT      O27142   7.147   7.516   0.055
 8967WAT     H127143   7.145   7.455   0.135
 8967WAT     H227144   7.054   7.527   0.020
 8968WAT      O27145   7.831   6.881   9.675
 8968WAT     H127146   7.838   6.890   9.576
 8968WAT     H227147   7.747   6.927   9.706
 8969WAT      O27148   0.157   1.882   7.931
 8969WAT     H127149   0.079   1.913   7.986
 8969WAT     H227150   0.172   1.948   7.857
 8970WAT      O27151   4.333   6.887   5.954
 8970WAT     H127152   4.335   6.793   5.918
 8970WAT     H227153   4.374   6.889   6.045
 8971WAT      O27154   3.457   2.033   2.766
 8971WAT     H127155   3.511   1.986   2.837
 8971WAT     H227156   3.500   2.120   2.743
 8972WAT      O27157   4.102   0.988   1.993
 8972WAT     H127158   4.043   1.015   1.916
 8972WAT     H227159   4.136   0.896   1.978
 8973WAT      O27160   1.749   9.164   3.297
 8973WAT     H127161   1.784   9.240   3.242
 8973WAT     H227162   1.769   9.078   3.252
 8974WAT      O27163   8.984   3.610   1.585
 8974WAT     H127164   8.968   3.632   1.681
 8974WAT     H227165   9.013   3.514   1.578
 8975WAT      O27166   2.364   2.966   2.984
 8975WAT     H127167   2.344   2.927   3.074
 8975WAT     H227168   2.461   2.989   2.979
 8976WAT      O27169   5.750   1.785   8.385
 8976WAT     H127170   5.761   1.717   8.313
 8976WAT     H227171   5.654   1.814   8.389
 8977WAT      O27172   3.289   7.513   2.454
 8977WAT     H127173   3.252   7.561   2.534
 8977WAT     H227174   3.383   7.544   2.437
 8978WAT      O27175   1.715   0.692   2.281
 8978WAT     H127176   1.778   0.718   2.208
 8978WAT     H227177   1.626   0.734   2.267
 8979WAT      O27178   6.834   0.313   1.529
 8979WAT     H127179   6.767   0.285   1.598
 8979WAT     H227180   6.839   0.412   1.525
 8980WAT      O27181   8.332   0.305   0.677
 8980WAT     H127182   8.342   0.225   0.736
 8980WAT     H227183   8.243   0.347   0.692
 8981WAT      O27184   3.330   9.531   5.693
 8981WAT     H127185   3.421   9.573   5.688
 8981WAT     H227186   3.274   9.579   5.760
 8982WAT      O27187   6.849   5.864   5.207
 8982WAT     H127188   6.787   5.866   5.129
 8982WAT     H227189   6.941   5.841   5.177
 8983WAT      O27190   8.754   9.836   3.630
 8983WAT     H127191   8.790   9.875   3.715
 8983WAT     H227192   8.806   9.754   3.606
 8984WAT      O27193   8.431   9.250   4.742
 8984WAT     H127194   8.525   9.241   4.773
 8984WAT     H227195   8.405   9.347   4.740
 8985WAT      O27196   0.745   3.140   4.946
 8985WAT     H127197   0.832   3.098   4.921
 8985WAT     H227198   0.723   3.117   5.041
 8986WAT      O27199   1.991   6.511   6.965
 8986WAT     H127200   2.081   6.516   6.922
 8986WAT     H227201   1.920   6.527   6.897
 8987WAT      O27202   2.319   2.508   1.360
 8987WAT     H127203   2.278   2.417   1.353
 8987WAT     H227204   2.355   2.534   1.271
 8988WAT      O27205   0.465   9.458   5.766
 8988WAT     H127206   0.446   9.422   5.675
 8988WAT     H227207   0.462   9.558   5.764
 8989WAT      O27208   9.478   6.092   7.353
 8989WAT     H127209   9.507   6.187   7.345
 8989WAT     H227210   9.395   6.086   7.408
 8990WAT      O27211   4.910   3.706   1.793
 8990WAT     H127212   4.845   3.776   1.765
 8990WAT     H227213   4.877   3.660   1.875
 8991WAT      O27214   2.591   2.108   6.199
 8991WAT     H127215   2.589   2.011   6.176
 8991WAT     H227216   2.622   2.161   6.120
 8992WAT      O27217   8.518   3.838   6.702
 8992WAT     H127218   8.582   3.914   6.710
 8992WAT     H227219   8.569   3.752   6.700
 8993WAT      O27220   7.619   1.508   3.168
 8993WAT     H127221   7.570   1.510   3.256
 8993WAT     H227222   7.693   1.440   3.173
 8994WAT      O27223   5.416   9.108   2.096
 8994WAT     H127224   5.438   9.022   2.050
 8994WAT     H227225   5.324   9.103   2.135
 8995WAT      O27226   3.627   6.625   4.496
 8995WAT     H127227   3.682   6.704   4.468
 8995WAT     H227228   3.553   6.611   4.431
 8996WAT      O27229   3.398   2.957   7.562
 8996WAT     H127230   3.426   3.046   7.526
 8996WAT     H227231   3.343   2.909   7.494
 8997WAT      O27232   5.649   1.912   1.918
 8997WAT     H127233   5.624   1.853   1.842
 8997WAT     H227234   5.630   2.007   1.895
 8998WAT      O27235   0.062   7.545   2.205
 8998WAT     H127236  -0.013   7.539   2.139
 8998WAT     H227237   0.149   7.535   2.157
 8999WAT      O27238   6.998   6.063   4.733
 8999WAT     H127239   7.017   6.094   4.826
 8999WAT     H227240   6.899   6.056   4.720
 9000WAT      O27241   6.402   0.258   7.842
 9000WAT     H127242   6.458   0.231   7.764
 9000WAT     H227243   6.461   0.285   7.918
 9001WAT      O27244   7.485   3.632   8.184
 9001WAT     H127245   7.570   3.589   8.155
 9001WAT     H227246   7.503   3.694   8.261
 9002WAT      O27247   3.245   9.496   0.127
 9002WAT     H127248   3.297   9.572   0.089
 9002WAT     H227249   3.170   9.472   0.065
 9003WAT      O27250   3.115   2.982   9.844
 9003WAT     H127251   3.049   2.952   9.913
 9003WAT     H227252   3.208   2.968   9.879
 9004WAT      O27253   6.274   1.953   5.771
 9004WAT     H127254   6.216   2.023   5.814
 9004WAT     H227255   6.348   1.929   5.834
 9005WAT      O27256   7.140   8.700   5.825
 9005WAT     H127257   7.208   8.626   5.832
 9005WAT     H227258   7.160   8.755   5.744
 9006WAT      O27259   4.758   6.697   6.905
 9006WAT     H127260   4.680   6.740   6.951
 9006WAT     H227261   4.836   6.696   6.967
 9007WAT      O27262   2.607   0.414   3.870
 9007WAT     H127263   2.512   0.383   3.873
 9007WAT     H227264   2.632   0.437   3.776
 9008WAT      O27265   7.518   6.517   6.503
 9008WAT     H127266   7.553   6.570   6.426
 9008WAT     H227267   7.482   6.430   6.470
 9009WAT      O27268   1.723   4.050   9.883
 9009WAT     H127269   1.667   3.992   9.824
 9009WAT     H227270   1.736   4.006   9.972
 9010WAT      O27271   5.509   7.154   1.851
 9010WAT     H127272   5.595   7.142   1.801
 9010WAT     H227273   5.473   7.245   1.832
 9011WAT      O27274   8.241   1.736   6.153
 9011WAT     H127275   8.229   1.835   6.142
 9011WAT     H227276   8.209   1.709   6.244
 9012WAT      O27277   4.393   1.880   8.073
 9012WAT     H127278   4.359   1.835   8.155
 9012WAT     H227279   4.486   1.912   8.088
 9013WAT      O27280   5.775   2.512   0.158
 9013WAT     H127281   5.728   2.430   0.192
 9013WAT     H227282   5.858   2.527   0.212
 9014WAT      O27283   0.414   4.851   4.917
 9014WAT     H127284   0.509   4.866   4.888
 9014WAT     H227285   0.397   4.752   4.923
 9015WAT      O27286   0.742   5.390   2.052
 9015WAT     H127287   0.758   5.361   2.146
 9015WAT     H227288   0.644   5.387   2.032
 9016WAT      O27289   7.791   3.397   4.370
 9016WAT     H127290   7.852   3.472   4.345
 9016WAT     H227291   7.753   3.356   4.287
 9017WAT      O27292   4.382   8.167   0.035
 9017WAT     H127293   4.363   8.265   0.044
 9017WAT     H227294   4.313   8.115   0.086
 9018WAT      O27295   8.983   9.633   7.462
 9018WAT     H127296   9.053   9.704   7.474
 9018WAT     H227297   9.028   9.546   7.444
 9019WAT      O27298   6.094   0.264   5.591
 9019WAT     H127299   6.159   0.226   5.525
 9019WAT     H227300   6.009   0.287   5.544
 9020WAT      O27301   5.221   4.292   3.567
 9020WAT     H127302   5.244   4.221   3.500
 9020WAT     H227303   5.122   4.308   3.566
 9021WAT      O27304   7.573   6.917   3.039
 9021WAT     H127305   7.495   6.861   3.067
 9021WAT     H227306   7.539   7.004   3.001
 9022WAT      O27307   5.743   1.288   0.278
 9022WAT     H127308   5.765   1.385   0.277
 9022WAT     H227309   5.820   1.235   0.242
 9023WAT      O27310   1.866   9.259   0.773
 9023WAT     H127311   1.875   9.332   0.841
 9023WAT     H227312   1.778   9.268   0.726
 9024WAT      O27313   6.139   6.390   2.013
 9024WAT     H127314   6.106   6.444   2.090
 9024WAT     H227315   6.070   6.321   1.989
 9025WAT      O27316   7.272   1.139   1.897
 9025WAT     H127317   7.317   1.181   1.977
 9025WAT     H227318   7.177   1.120   1.919
 9026WAT      O27319   0.801   1.941   6.216
 9026WAT     H127320   0.829   1.894   6.133
 9026WAT     H227321   0.880   1.990   6.255
 9027WAT      O27322   7.122   3.538   1.257
 9027WAT     H127323   7.111   3.591   1.172
 9027WAT     H227324   7.092   3.444   1.242
 9028WAT      O27325   4.764   6.214   9.193
 9028WAT     H127326   4.728   6.307   9.191
 9028WAT     H227327   4.864   6.217   9.199
 9029WAT      O27328   1.709   4.946   4.486
 9029WAT     H127329   1.665   5.034   4.466
 9029WAT     H227330   1.807   4.960   4.500
 9030WAT      O27331   4.856   1.119   6.466
 9030WAT     H127332   4.876   1.062   6.386
 9030WAT     H227333   4.942   1.150   6.507
 9031WAT      O27334   7.498   4.342   2.792
 9031WAT     H127335   7.578   4.281   2.793
 9031WAT     H227336   7.470   4.363   2.885
 9032WAT      O27337   7.836   3.016   2.585
 9032WAT     H127338   7.839   2.965   2.671
 9032WAT     H227339   7.761   3.082   2.588
 9033WAT      O27340   7.534   0.517   5.773
 9033WAT     H127341   7.465   0.474   5.831
 9033WAT     H227342   7.539   0.469   5.685
 9034WAT      O27343   4.852   8.036   6.765
 9034WAT     H127344   4.907   8.007   6.843
 9034WAT     H227345   4.859   7.968   6.692
 9035WAT      O27346   7.951   2.625   7.817
 9035WAT     H127347   7.973   2.603   7.912
 9035WAT     H227348   7.869   2.575   7.790
 9036WAT      O27349   8.535   6.785   0.424
 9036WAT     H127350   8.600   6.718   0.459
 9036WAT     H227351   8.567   6.877   0.445
 9037WAT      O27352   0.434   7.739   2.351
 9037WAT     H127353   0.389   7.701   2.270
 9037WAT     H227354   0.435   7.839   2.345
 9038WAT      O27355   7.283   2.745   0.789
 9038WAT     H127356   7.356   2.688   0.752
 9038WAT     H227357   7.308   2.841   0.779
 9039WAT      O27358   9.573   5.082   6.768
 9039WAT     H127359   9.583   4.984   6.752
 9039WAT     H227360   9.633   5.133   6.706
 9040WAT      O27361   3.254   5.103   0.828
 9040WAT     H127362   3.312   5.165   0.881
 9040WAT     H227363   3.162   5.142   0.822
 9041WAT      O27364   3.499   1.769   0.472
 9041WAT     H127365   3.458   1.679   0.458
 9041WAT     H227366   3.429   1.840   0.460
 9042WAT      O27367   8.576   0.131   2.450
 9042WAT     H127368   8.599   0.089   2.538
 9042WAT     H227369   8.599   0.067   2.376
 9043WAT      O27370   2.202   7.578   7.152
 9043WAT     H127371   2.293   7.547   7.178
 9043WAT     H227372   2.136   7.558   7.225
 9044WAT      O27373   0.030   7.816   1.340
 9044WAT     H127374   0.004   7.910   1.315
 9044WAT     H227375  -0.035   7.752   1.299
 9045WAT      O27376   7.939   4.687   7.941
 9045WAT     H127377   7.991   4.759   7.895
 9045WAT     H227378   7.852   4.724   7.974
 9046WAT      O27379   1.545   8.180   9.843
 9046WAT     H127380   1.608   8.182   9.765
 9046WAT     H227381   1.463   8.128   9.819
 9047WAT      O27382   0.374   6.808   6.894
 9047WAT     H127383   0.439   6.884   6.899
 9047WAT     H227384   0.328   6.811   6.805
 9048WAT      O27385   0.676   4.321   1.737
 9048WAT     H127386   0.690   4.413   1.774
 9048WAT     H227387   0.652   4.259   1.811
 9049WAT      O27388   7.427   2.543   9.656
 9049WAT     H127389   7.450   2.454   9.696
 9049WAT     H227390   7.498   2.570   9.591
 9050WAT      O27391   5.486   0.470   0.163
 9050WAT     H127392   5.554   0.538   0.134
 9050WAT     H227393   5.519   0.423   0.244
 9051WAT      O27394   1.499   5.266   5.488
 9051WAT     H127395   1.527   5.265   5.392
 9051WAT     H227396   1.399   5.276   5.494
 9052WAT      O27397   8.032   0.575   1.357
 9052WAT     H127398   8.100   0.502   1.352
 9052WAT     H227399   8.021   0.616   1.267
 9053WAT      O27400   0.855   5.441   6.675
 9053WAT     H127401   0.938   5.466   6.724
 9053WAT     H227402   0.776   5.450   6.737
 9054WAT      O27403   5.726   2.126   2.272
 9054WAT     H127404   5.665   2.047   2.272
 9054WAT     H227405   5.762   2.139   2.365
 9055WAT      O27406   8.021   1.292   8.696
 9055WAT     H127407   8.070   1.362   8.748
 9055WAT     H227408   8.060   1.203   8.716
 9056WAT      O27409   0.820   5.547   9.413
 9056WAT     H127410   0.903   5.601   9.399
 9056WAT     H227411   0.844   5.450   9.415
 9057WAT      O27412   0.433   3.775   8.737
 9057WAT     H127413   0.405   3.738   8.825
 9057WAT     H227414   0.507   3.721   8.699
 9058WAT      O27415   1.332   3.621   3.380
 9058WAT     H127416   1.373   3.585   3.464
 9058WAT     H227417   1.233   3.621   3.389
 9059WAT      O27418   1.744   6.991   2.731
 9059WAT     H127419   1.732   6.891   2.736
 9059WAT     H227420   1.817   7.013   2.666
 9060WAT      O27421   5.464   1.910   0.705
 9060WAT     H127422   5.562   1.925   0.720
 9060WAT     H227423   5.421   1.883   0.791
 9061WAT      O27424   1.410   0.670   3.173
 9061WAT     H127425   1.504   0.667   3.138
 9061WAT     H227426   1.389   0.583   3.218
 9062WAT      O27427   0.218   1.028   3.711
 9062WAT     H127428   0.145   0.972   3.670
 9062WAT     H227429   0.241   1.102   3.648
 9063WAT      O27430   6.153   5.175   3.538
 9063WAT     H127431   6.063   5.130   3.536
 9063WAT     H227432   6.224   5.106   3.553
 9064WAT      O27433   8.388   8.978   0.937
 9064WAT     H127434   8.456   8.905   0.931
 9064WAT     H227435   8.413   9.052   0.874
 9065WAT      O27436   2.327   4.174   3.948
 9065WAT     H127437   2.382   4.234   3.890
 9065WAT     H227438   2.378   4.152   4.032
 9066WAT      O27439   6.832   6.376   4.384
 9066WAT     H127440   6.842   6.450   4.319
 9066WAT     H227441   6.820   6.289   4.335
 9067WAT      O27442   4.510   1.614   4.585
 9067WAT     H127443   4.559   1.700   4.580
 9067WAT     H227444   4.447   1.607   4.507
 9068WAT      O27445   5.457   5.109   6.372
 9068WAT     H127446   5.391   5.052   6.422
 9068WAT     H227447   5.533   5.052   6.342
 9069WAT      O27448   2.981   6.273   4.159
 9069WAT     H127449   2.982   6.369   4.132
 9069WAT     H227450   2.917   6.223   4.102
 9070WAT      O27451   9.653   7.206   8.377
 9070WAT     H127452   9.627   7.111   8.393
 9070WAT     H227453   9.601   7.243   8.300
 9071WAT      O27454   5.077   0.343   8.755
 9071WAT     H127455   5.057   0.440   8.741
 9071WAT     H227456   5.163   0.320   8.710
 9072WAT      O27457   5.671   0.739   5.474
 9072WAT     H127458   5.687   0.810   5.405
 9072WAT     H227459   5.750   0.732   5.534
 9073WAT      O27460   2.874   6.214   6.705
 9073WAT     H127461   2.906   6.145   6.770
 9073WAT     H227462   2.777   6.199   6.687
 9074WAT      O27463   9.856   0.643   2.488
 9074WAT     H127464   9.817   0.694   2.411
 9074WAT     H227465   9.851   0.545   2.469
 9075WAT      O27466   0.330   2.496   2.186
 9075WAT     H127467   0.298   2.589   2.166
 9075WAT     H227468   0.254   2.432   2.174
 9076WAT      O27469   0.313   6.948   9.781
 9076WAT     H127470   0.408   6.961   9.808
 9076WAT     H227471   0.306   6.948   9.682
 9077WAT      O27472   8.908   2.573   2.586
 9077WAT     H127473   9.003   2.587   2.558
 9077WAT     H227474   8.854   2.543   2.507
 9078WAT      O27475   0.257   7.181   7.092
 9078WAT     H127476   0.195   7.113   7.131
 9078WAT     H227477   0.249   7.267   7.143
 9079WAT      O27478   0.744   9.637   8.695
 9079WAT     H127479   0.653   9.676   8.690
 9079WAT     H227480   0.784   9.635   8.604
 9080WAT      O27481   4.270   3.300   8.131
 9080WAT     H127482   4.202   3.227   8.143
 9080WAT     H227483   4.255   3.371   8.200
 9081WAT      O27484   2.203   7.768   8.390
 9081WAT     H127485   2.131   7.802   8.329
 9081WAT     H227486   2.241   7.844   8.443
 9082WAT      O27487   6.718   6.994   7.318
 9082WAT     H127488   6.717   6.947   7.406
 9082WAT     H227489   6.644   7.062   7.316
 9083WAT      O27490   9.686   7.000   7.169
 9083WAT     H127491   9.602   6.961   7.131
 9083WAT     H227492   9.665   7.078   7.226
 9084WAT      O27493   7.423   1.877   3.616
 9084WAT     H127494   7.439   1.804   3.682
 9084WAT     H227495   7.345   1.854   3.558
 9085WAT      O27496   7.042   1.961   3.478
 9085WAT     H127497   7.077   1.911   3.398
 9085WAT     H227498   6.967   1.910   3.519
 9086WAT      O27499   7.152   6.000   9.817
 9086WAT     H127500   7.136   6.075   9.882
 9086WAT     H227501   7.165   5.915   9.867
 9087WAT      O27502   7.028   9.817   6.093
 9087WAT     H127503   7.117   9.845   6.057
 9087WAT     H227504   6.964   9.894   6.086
 9088WAT      O27505   9.266   3.510   1.029
 9088WAT     H127506   9.272   3.525   0.930
 9088WAT     H227507   9.320   3.429   1.054
 9089WAT      O27508   7.628   8.453   5.593
 9089WAT     H127509   7.618   8.551   5.614
 9089WAT     H227510   7.705   8.440   5.531
 9090WAT      O27511   0.369   6.426   9.485
 9090WAT     H127512   0.468   6.415   9.477
 9090WAT     H227513   0.328   6.430   9.394
 9091WAT      O27514   4.769   4.180   6.843
 9091WAT     H127515   4.777   4.270   6.887
 9091WAT     H227516   4.734   4.192   6.750
 9092WAT      O27517   1.307   8.569   4.012
 9092WAT     H127518   1.320   8.646   4.073
 9092WAT     H227519   1.234   8.590   3.947
 9093WAT      O27520   9.200   3.465   5.765
 9093WAT     H127521   9.279   3.524   5.776
 9093WAT     H227522   9.119   3.510   5.803
 9094WAT      O27523   7.965   7.044   0.071
 9094WAT     H127524   7.880   7.002   0.103
 9094WAT     H227525   8.042   6.983   0.090
 9095WAT      O27526   2.122   9.511   1.035
 9095WAT     H127527   2.161   9.553   1.117
 9095WAT     H227528   2.035   9.468   1.058
 9096WAT      O27529   9.705   6.657   7.517
 9096WAT     H127530   9.697   6.568   7.472
 9096WAT     H227531   9.801   6.676   7.537
 9097WAT      O27532   7.316   9.292   4.491
 9097WAT     H127533   7.218   9.286   4.511
 9097WAT     H227534   7.343   9.214   4.435
 9098WAT      O27535   6.332   1.559   8.098
 9098WAT     H127536   6.331   1.515   8.188
 9098WAT     H227537   6.303   1.655   8.108
 9099WAT      O27538   9.809   9.648   9.527
 9099WAT     H127539   9.746   9.724   9.513
 9099WAT     H227540   9.898   9.670   9.485
 9100WAT      O27541   0.374   5.954   3.426
 9100WAT     H127542   0.466   5.969   3.391
 9100WAT     H227543   0.363   6.001   3.514
 9101WAT      O27544   1.604   7.299   5.520
 9101WAT     H127545   1.565   7.221   5.471
 9101WAT     H227546   1.661   7.266   5.595
 9102WAT      O27547   2.156   8.266   3.792
 9102WAT     H127548   2.091   8.274   3.716
 9102WAT     H227549   2.203   8.354   3.804
 9103WAT      O27550   2.400   7.558   4.431
 9103WAT     H127551   2.387   7.638   4.373
 9103WAT     H227552   2.312   7.512   4.445
 9104WAT      O27553   8.167   0.829   7.748
 9104WAT     H127554   8.197   0.814   7.654
 9104WAT     H227555   8.135   0.924   7.758
 9105WAT      O27556   7.801   5.928   6.476
 9105WAT     H127557   7.798   5.966   6.384
 9105WAT     H227558   7.710   5.893   6.501
 9106WAT      O27559   3.510   7.448   5.752
 9106WAT     H127560   3.601   7.478   5.781
 9106WAT     H227561   3.454   7.528   5.731
 9107WAT      O27562   7.093   1.736   1.943
 9107WAT     H127563   7.136   1.791   2.014
 9107WAT     H227564   7.129   1.763   1.853
 9108WAT      O27565   6.987   6.698   2.283
 9108WAT     H127566   7.045   6.746   2.216
 9108WAT     H227567   7.017   6.603   2.291
 9109WAT      O27568   2.604   0.024   2.409
 9109WAT     H127569   2.548  -0.047   2.452
 9109WAT     H227570   2.605   0.010   2.310
 9110WAT      O27571   0.192   6.439   0.989
 9110WAT     H127572   0.232   6.352   0.962
 9110WAT     H227573   0.255   6.513   0.966
 9111WAT      O27574   5.107   2.293   0.955
 9111WAT     H127575   5.084   2.261   1.047
 9111WAT     H227576   5.024   2.323   0.908
 9112WAT      O27577   8.976   1.410   7.758
 9112WAT     H127578   8.891   1.407   7.706
 9112WAT     H227579   9.024   1.322   7.749
 9113WAT      O27580   2.078   6.608   4.863
 9113WAT     H127581   2.003   6.651   4.914
 9113WAT     H227582   2.101   6.520   4.905
 9114WAT      O27583   6.826   8.602   5.520
 9114WAT     H127584   6.925   8.590   5.518
 9114WAT     H227585   6.783   8.522   5.563
 9115WAT      O27586   6.210   2.411   1.904
 9115WAT     H127587   6.304   2.397   1.872
 9115WAT     H227588   6.146   2.387   1.831
 9116WAT      O27589   1.300   0.182   5.301
 9116WAT     H127590   1.249   0.215   5.380
 9116WAT     H227591   1.306   0.082   5.305
 9117WAT      O27592   3.910   9.344   1.143
 9117WAT     H127593   3.821   9.386   1.162
 9117WAT     H227594   3.909   9.304   1.051
 9118WAT      O27595   6.578   7.818   2.963
 9118WAT     H127596   6.535   7.741   3.008
 9118WAT     H227597   6.668   7.835   3.003
 9119WAT      O27598   2.288   7.206   3.119
 9119WAT     H127599   2.313   7.259   3.200
 9119WAT     H227600   2.202   7.158   3.136
 9120WAT      O27601   5.871   4.746   4.772
 9120WAT     H127602   5.936   4.735   4.847
 9120WAT     H227603   5.779   4.721   4.803
 9121WAT      O27604   5.942   2.522   9.810
 9121WAT     H127605   5.871   2.494   9.875
 9121WAT     H227606   5.932   2.619   9.789
 9122WAT      O27607   1.384   6.360   0.795
 9122WAT     H127608   1.432   6.300   0.860
 9122WAT     H227609   1.395   6.455   0.824
 9123WAT      O27610   2.391   8.429   4.666
 9123WAT     H127611   2.390   8.368   4.745
 9123WAT     H227612   2.318   8.497   4.674
 9124WAT      O27613   3.865   9.842   6.817
 9124WAT     H127614   3.828   9.774   6.880
 9124WAT     H227615   3.924   9.906   6.868
 9125WAT      O27616   2.365   0.566   9.628
 9125WAT     H127617   2.412   0.613   9.703
 9125WAT     H227618   2.266   0.572   9.642
 9126WAT      O27619   5.869   2.056   4.188
 9126WAT     H127620   5.961   2.087   4.165
 9126WAT     H227621   5.823   2.127   4.241
 9127WAT      O27622   1.924   5.825   3.834
 9127WAT     H127623   1.975   5.831   3.920
 9127WAT     H227624   1.943   5.906   3.779
 9128WAT      O27625   4.285   5.218   9.155
 9128WAT     H127626   4.265   5.312   9.130
 9128WAT     H227627   4.368   5.187   9.109
 9129WAT      O27628   3.875   7.972   3.927
 9129WAT     H127629   3.777   7.988   3.942
 9129WAT     H227630   3.890   7.875   3.909
 9130WAT      O27631   8.565   2.837   5.632
 9130WAT     H127632   8.519   2.751   5.609
 9130WAT     H227633   8.543   2.906   5.564
 9131WAT      O27634   5.671   4.541   6.792
 9131WAT     H127635   5.588   4.538   6.848
 9131WAT     H227636   5.647   4.519   6.697
 9132WAT      O27637   3.557   2.299   2.743
 9132WAT     H127638   3.614   2.379   2.761
 9132WAT     H227639   3.472   2.328   2.698
 9133WAT      O27640   8.762   8.541   6.385
 9133WAT     H127641   8.742   8.593   6.302
 9133WAT     H227642   8.703   8.574   6.459
 9134WAT      O27643   2.393   6.179   1.494
 9134WAT     H127644   2.396   6.255   1.429
 9134WAT     H227645   2.418   6.094   1.448
 9135WAT      O27646   6.612   3.272   1.131
 9135WAT     H127647   6.551   3.195   1.115
 9135WAT     H227648   6.681   3.276   1.059
 9136WAT      O27649   5.703   1.291   0.709
 9136WAT     H127650   5.740   1.371   0.756
 9136WAT     H227651   5.635   1.321   0.642
 9137WAT      O27652   6.772   5.689   1.709
 9137WAT     H127653   6.811   5.775   1.741
 9137WAT     H227654   6.683   5.674   1.754
 9138WAT      O27655   9.270   0.391   4.633
 9138WAT     H127656   9.186   0.338   4.625
 9138WAT     H227657   9.319   0.363   4.716
 9139WAT      O27658   7.307   7.695   5.544
 9139WAT     H127659   7.348   7.616   5.498
 9139WAT     H227660   7.369   7.729   5.614
 9140WAT      O27661   0.581   6.824   4.156
 9140WAT     H127662   0.678   6.838   4.174
 9140WAT     H227663   0.528   6.897   4.199
 9141WAT      O27664   4.849   3.731   3.731
 9141WAT     H127665   4.921   3.676   3.688
 9141WAT     H227666   4.875   3.827   3.730
 9142WAT      O27667   4.163   3.441   6.980
 9142WAT     H127668   4.122   3.487   6.902
 9142WAT     H227669   4.128   3.481   7.065
 9143WAT      O27670   2.880   3.018   8.054
 9143WAT     H127671   2.869   3.003   7.956
 9143WAT     H227672   2.958   2.965   8.087
 9144WAT      O27673   1.584   9.676   8.317
 9144WAT     H127674   1.513   9.731   8.363
 9144WAT     H227675   1.561   9.666   8.221
 9145WAT      O27676   4.561   6.637   9.136
 9145WAT     H127677   4.498   6.582   9.083
 9145WAT     H227678   4.616   6.578   9.195
 9146WAT      O27679   7.691   2.336   0.933
 9146WAT     H127680   7.772   2.294   0.891
 9146WAT     H227681   7.718   2.418   0.983
 9147WAT      O27682   9.601   6.423   8.196
 9147WAT     H127683   9.509   6.436   8.231
 9147WAT     H227684   9.666   6.425   8.272
 9148WAT      O27685   4.117   8.945   4.882
 9148WAT     H127686   4.191   8.891   4.841
 9148WAT     H227687   4.151   8.992   4.963
 9149WAT      O27688   6.234   5.797   2.921
 9149WAT     H127689   6.210   5.845   3.005
 9149WAT     H227690   6.235   5.698   2.939
 9150WAT      O27691   6.490   0.489   2.676
 9150WAT     H127692   6.535   0.401   2.687
 9150WAT     H227693   6.410   0.478   2.617
 9151WAT      O27694   6.223   9.717   9.768
 9151WAT     H127695   6.172   9.646   9.818
 9151WAT     H227696   6.300   9.675   9.721
 9152WAT      O27697   1.596   7.691   9.014
 9152WAT     H127698   1.504   7.674   8.978
 9152WAT     H227699   1.590   7.737   9.102
 9153WAT      O27700   2.907   2.819   5.510
 9153WAT     H127701   2.963   2.870   5.575
 9153WAT     H227702   2.927   2.849   5.417
 9154WAT      O27703   0.416   7.681   8.096
 9154WAT     H127704   0.514   7.697   8.105
 9154WAT     H227705   0.365   7.753   8.143
 9155WAT      O27706   1.385   7.704   8.120
 9155WAT     H127707   1.326   7.661   8.188
 9155WAT     H227708   1.367   7.803   8.117
 9156WAT      O27709   6.202   2.144   0.598
 9156WAT     H127710   6.141   2.089   0.540
 9156WAT     H227711   6.195   2.112   0.693
 9157WAT      O27712   2.279   9.424   7.987
 9157WAT     H127713   2.271   9.411   7.888
 9157WAT     H227714   2.357   9.372   8.021
 9158WAT      O27715   8.996   9.816   7.064
 9158WAT     H127716   8.923   9.885   7.073
 9158WAT     H227717   8.986   9.769   6.976
 9159WAT      O27718   6.400   4.904   9.347
 9159WAT     H127719   6.349   4.987   9.321
 9159WAT     H227720   6.341   4.824   9.334
 9160WAT      O27721   2.964   7.148   5.550
 9160WAT     H127722   2.960   7.248   5.554
 9160WAT     H227723   2.917   7.117   5.468
 9161WAT      O27724   5.766   5.645   4.305
 9161WAT     H127725   5.683   5.620   4.254
 9161WAT     H227726   5.798   5.565   4.356
 9162WAT      O27727   3.190   5.911   8.360
 9162WAT     H127728   3.180   5.981   8.431
 9162WAT     H227729   3.122   5.927   8.288
 9163WAT      O27730   7.776   2.812   4.513
 9163WAT     H127731   7.871   2.843   4.510
 9163WAT     H227732   7.718   2.886   4.547
 9164WAT      O27733   8.394   6.858   5.283
 9164WAT     H127734   8.346   6.773   5.261
 9164WAT     H227735   8.353   6.934   5.233
 9165WAT      O27736   1.049   3.056   8.348
 9165WAT     H127737   1.055   3.155   8.336
 9165WAT     H227738   1.117   3.011   8.290
 9166WAT      O27739   2.136   5.354   9.133
 9166WAT     H127740   2.199   5.345   9.211
 9166WAT     H227741   2.090   5.267   9.117
 9167WAT      O27742   3.410   1.870   8.355
 9167WAT     H127743   3.501   1.867   8.396
 9167WAT     H227744   3.364   1.782   8.370
 9168WAT      O27745   5.435   3.788   4.760
 9168WAT     H127746   5.375   3.845   4.817
 9168WAT     H227747   5.501   3.740   4.819
 9169WAT      O27748   3.505   9.421   6.481
 9169WAT     H127749   3.532   9.494   6.419
 9169WAT     H227750   3.412   9.391   6.460
 9170WAT      O27751   4.722   8.079   5.466
 9170WAT     H127752   4.667   8.080   5.550
 9170WAT     H227753   4.805   8.025   5.481
 9171WAT      O27754   8.994   2.987   6.814
 9171WAT     H127755   8.987   2.919   6.741
 9171WAT     H227756   9.066   3.053   6.791
 9172WAT      O27757   9.853   5.727   1.112
 9172WAT     H127758   9.821   5.813   1.153
 9172WAT     H227759   9.892   5.746   1.022
 9173WAT      O27760   2.493   8.864   9.414
 9173WAT     H127761   2.409   8.826   9.453
 9173WAT     H227762   2.470   8.932   9.345
 9174WAT      O27763   4.473   4.301   4.483
 9174WAT     H127764   4.450   4.383   4.431
 9174WAT     H227765   4.557   4.261   4.446
 9175WAT      O27766   3.816   6.078   3.048
 9175WAT     H127767   3.759   6.142   3.100
 9175WAT     H227768   3.842   6.001   3.107
 9176WAT      O27769   3.630   6.583   8.829
 9176WAT     H127770   3.609   6.679   8.814
 9176WAT     H227771   3.545   6.530   8.832
 9177WAT      O27772   7.697   1.313   1.107
 9177WAT     H127773   7.631   1.381   1.073
 9177WAT     H227774   7.686   1.302   1.206
 9178WAT      O27775   3.171   1.888   6.159
 9178WAT     H127776   3.154   1.790   6.171
 9178WAT     H227777   3.092   1.940   6.190
 9179WAT      O27778   5.827   1.136   9.578
 9179WAT     H127779   5.839   1.038   9.593
 9179WAT     H227780   5.878   1.164   9.497
 9180WAT      O27781   9.069   8.480   3.735
 9180WAT     H127782   8.972   8.503   3.742
 9180WAT     H227783   9.096   8.481   3.639
 9181WAT      O27784   0.076   8.199   9.330
 9181WAT     H127785   0.033   8.116   9.293
 9181WAT     H227786   0.013   8.275   9.323
 9182WAT      O27787   9.698   0.452   5.785
 9182WAT     H127788   9.756   0.432   5.864
 9182WAT     H227789   9.654   0.541   5.796
 9183WAT      O27790   0.664   3.414   1.880
 9183WAT     H127791   0.685   3.509   1.903
 9183WAT     H227792   0.721   3.386   1.802
 9184WAT      O27793   4.086   3.159   1.012
 9184WAT     H127794   4.081   3.238   1.073
 9184WAT     H227795   4.021   3.170   0.936
 9185WAT      O27796   7.193   1.174   8.515
 9185WAT     H127797   7.132   1.099   8.486
 9185WAT     H227798   7.181   1.190   8.613
 9186WAT      O27799   6.389   8.138   7.606
 9186WAT     H127800   6.310   8.078   7.593
 9186WAT     H227801   6.448   8.100   7.678
 9187WAT      O27802   4.374   3.456   4.229
 9187WAT     H127803   4.351   3.489   4.321
 9187WAT     H227804   4.369   3.532   4.165
 9188WAT      O27805   1.534   9.327   3.434
 9188WAT     H127806   1.442   9.298   3.461
 9188WAT     H227807   1.571   9.260   3.370
 9189WAT      O27808   2.465   8.547   1.106
 9189WAT     H127809   2.455   8.548   1.206
 9189WAT     H227810   2.553   8.506   1.082
 9190WAT      O27811   0.855   4.878   2.900
 9190WAT     H127812   0.935   4.937   2.913
 9190WAT     H227813   0.885   4.786   2.875
 9191WAT      O27814   6.276   1.264   3.132
 9191WAT     H127815   6.345   1.298   3.069
 9191WAT     H227816   6.188   1.257   3.085
 9192WAT      O27817   2.789   1.260   1.819
 9192WAT     H127818   2.714   1.301   1.870
 9192WAT     H227819   2.797   1.163   1.842
 9193WAT      O27820   5.585   3.932   7.458
 9193WAT     H127821   5.659   3.984   7.414
 9193WAT     H227822   5.497   3.968   7.429
 9194WAT      O27823   2.569   4.412   3.079
 9194WAT     H127824   2.568   4.432   2.981
 9194WAT     H227825   2.657   4.370   3.103
 9195WAT      O27826   7.233   3.450   7.175
 9195WAT     H127827   7.304   3.382   7.193
 9195WAT     H227828   7.259   3.504   7.095
 9196WAT      O27829   6.913   3.020   2.727
 9196WAT     H127830   6.993   3.006   2.668
 9196WAT     H227831   6.833   2.977   2.685
 9197WAT      O27832   8.913   3.896   1.525
 9197WAT     H127833   8.957   3.810   1.552
 9197WAT     H227834   8.821   3.876   1.492
 9198WAT      O27835   7.123   1.445   2.731
 9198WAT     H127836   7.074   1.376   2.785
 9198WAT     H227837   7.073   1.532   2.734
 9199WAT      O27838   6.290   5.618   6.148
 9199WAT     H127839   6.255   5.583   6.235
 9199WAT     H227840   6.238   5.578   6.073
 9200WAT      O27841   7.777   3.668   0.195
 9200WAT     H127842   7.848   3.620   0.248
 9200WAT     H227843   7.756   3.755   0.241
 9201WAT      O27844   6.379   6.873   6.608
 9201WAT     H127845   6.403   6.857   6.512
 9201WAT     H227846   6.339   6.790   6.646
 9202WAT      O27847   2.571   7.180   5.064
 9202WAT     H127848   2.612   7.242   4.997
 9202WAT     H227849   2.547   7.094   5.020
 9203WAT      O27850   3.664   5.352   6.538
 9203WAT     H127851   3.748   5.378   6.489
 9203WAT     H227852   3.670   5.256   6.565
 9204WAT      O27853   1.830   6.173   0.493
 9204WAT     H127854   1.845   6.171   0.394
 9204WAT     H227855   1.917   6.185   0.540
 9205WAT      O27856   9.789   2.148   0.917
 9205WAT     H127857   9.889   2.145   0.908
 9205WAT     H227858   9.755   2.056   0.935
 9206WAT      O27859   6.522   7.301   5.682
 9206WAT     H127860   6.597   7.318   5.745
 9206WAT     H227861   6.537   7.213   5.636
 9207WAT      O27862   8.903   5.026   4.169
 9207WAT     H127863   8.861   4.947   4.123
 9207WAT     H227864   8.957   4.994   4.247
 9208WAT      O27865   7.805   9.682   7.816
 9208WAT     H127866   7.868   9.614   7.779
 9208WAT     H227867   7.844   9.774   7.804
 9209WAT      O27868   1.295   9.378   7.856
 9209WAT     H127869   1.207   9.334   7.873
 9209WAT     H227870   1.365   9.308   7.843
 9210WAT      O27871   9.708   3.042   0.961
 9210WAT     H127872   9.740   2.952   0.991
 9210WAT     H227873   9.673   3.093   1.041
 9211WAT      O27874   9.836   2.893   2.647
 9211WAT     H127875   9.742   2.858   2.648
 9211WAT     H227876   9.889   2.843   2.579
 9212WAT      O27877   9.470   9.018   1.322
 9212WAT     H127878   9.439   8.968   1.403
 9212WAT     H227879   9.554   8.977   1.287
 9213WAT      O27880   4.565   5.355   7.007
 9213WAT     H127881   4.555   5.299   6.924
 9213WAT     H227882   4.548   5.298   7.087
 9214WAT      O27883   0.650   2.061   8.977
 9214WAT     H127884   0.667   2.089   8.883
 9214WAT     H227885   0.737   2.059   9.027
 9215WAT      O27886   1.739   2.539   4.885
 9215WAT     H127887   1.781   2.510   4.800
 9215WAT     H227888   1.743   2.639   4.892
 9216WAT      O27889   7.047   2.532   5.693
 9216WAT     H127890   7.120   2.532   5.625
 9216WAT     H227891   7.086   2.512   5.783
 9217WAT      O27892   0.268   6.608   9.113
 9217WAT     H127893   0.192   6.635   9.053
 9217WAT     H227894   0.232   6.557   9.191
 9218WAT      O27895   8.401   5.090   0.619
 9218WAT     H127896   8.301   5.089   0.610
 9218WAT     H227897   8.429   5.023   0.688
 9219WAT      O27898   6.453   4.150   3.060
 9219WAT     H127899   6.512   4.132   2.981
 9219WAT     H227900   6.360   4.120   3.040
 9220WAT      O27901   6.333   9.073   2.296
 9220WAT     H127902   6.370   9.102   2.208
 9220WAT     H227903   6.373   9.129   2.369
 9221WAT      O27904   2.153   9.396   5.588
 9221WAT     H127905   2.216   9.401   5.511
 9221WAT     H227906   2.083   9.327   5.570
 9222WAT      O27907   9.000   3.086   8.718
 9222WAT     H127908   8.909   3.049   8.732
 9222WAT     H227909   9.033   3.127   8.803
 9223WAT      O27910   2.272   1.535   9.173
 9223WAT     H127911   2.309   1.530   9.266
 9223WAT     H227912   2.334   1.589   9.116
 9224WAT      O27913   0.703   4.230   2.330
 9224WAT     H127914   0.647   4.158   2.370
 9224WAT     H227915   0.751   4.194   2.250
 9225WAT      O27916   3.120   1.302   8.116
 9225WAT     H127917   3.118   1.401   8.104
 9225WAT     H227918   3.071   1.277   8.200
 9226WAT      O27919   4.290   2.130   8.724
 9226WAT     H127920   4.313   2.218   8.684
 9226WAT     H227921   4.373   2.085   8.756
 9227WAT      O27922   2.888   6.228   2.876
 9227WAT     H127923   2.877   6.169   2.956
 9227WAT     H227924   2.823   6.201   2.806
 9228WAT      O27925   0.039   8.447   4.448
 9228WAT     H127926   0.101   8.424   4.373
 9228WAT     H227927   0.013   8.363   4.496
 9229WAT      O27928   1.495   4.049   7.212
 9229WAT     H127929   1.586   4.017   7.237
 9229WAT     H227930   1.502   4.116   7.138
 9230WAT      O27931   8.895   2.849   3.157
 9230WAT     H127932   8.796   2.845   3.173
 9230WAT     H227933   8.919   2.938   3.120
 9231WAT      O27934   2.371   8.822   0.216
 9231WAT     H127935   2.440   8.894   0.226
 9231WAT     H227936   2.392   8.746   0.279
 9232WAT      O27937   9.060   6.106   4.182
 9232WAT     H127938   8.986   6.112   4.115
 9232WAT     H227939   9.107   6.018   4.171
 9233WAT      O27940   5.852   6.536   8.835
 9233WAT     H127941   5.787   6.607   8.808
 9233WAT     H227942   5.875   6.480   8.756
 9234WAT      O27943   7.819   0.706   3.492
 9234WAT     H127944   7.860   0.714   3.582
 9234WAT     H227945   7.829   0.612   3.459
 9235WAT      O27946   3.303   6.882   7.682
 9235WAT     H127947   3.243   6.892   7.602
 9235WAT     H227948   3.371   6.955   7.682
 9236WAT      O27949   2.264   5.096   4.948
 9236WAT     H127950   2.252   4.997   4.961
 9236WAT     H227951   2.216   5.125   4.866
 9237WAT      O27952   2.922   0.049   8.350
 9237WAT     H127953   3.015   0.042   8.388
 9237WAT     H227954   2.910  -0.018   8.278
 9238WAT      O27955   4.069   0.627   4.822
 9238WAT     H127956   4.009   0.689   4.772
 9238WAT     H227957   4.025   0.538   4.830
 9239WAT      O27958   8.088   1.449   9.057
 9239WAT     H127959   8.041   1.369   9.093
 9239WAT     H227960   8.166   1.471   9.116
 9240WAT      O27961   0.660   6.343   2.669
 9240WAT     H127962   0.634   6.257   2.713
 9240WAT     H227963   0.735   6.385   2.720
 9241WAT      O27964   7.763   2.193   1.543
 9241WAT     H127965   7.802   2.104   1.518
 9241WAT     H227966   7.719   2.186   1.632
 9242WAT      O27967   3.705   9.223   1.445
 9242WAT     H127968   3.716   9.168   1.528
 9242WAT     H227969   3.608   9.232   1.424
 9243WAT      O27970   7.708   7.359   8.903
 9243WAT     H127971   7.696   7.443   8.850
 9243WAT     H227972   7.621   7.310   8.909
 9244WAT      O27973   1.716   1.758   0.966
 9244WAT     H127974   1.762   1.695   1.028
 9244WAT     H227975   1.777   1.781   0.890
 9245WAT      O27976   0.888   5.078   0.854
 9245WAT     H127977   0.910   4.992   0.809
 9245WAT     H227978   0.800   5.112   0.819
 9246WAT      O27979   6.887   5.585   2.152
 9246WAT     H127980   6.972   5.578   2.100
 9246WAT     H227981   6.906   5.566   2.249
 9247WAT      O27982   5.363   9.219   4.337
 9247WAT     H127983   5.437   9.262   4.389
 9247WAT     H227984   5.347   9.126   4.371
 9248WAT      O27985   6.935   5.600   6.111
 9248WAT     H127986   6.856   5.580   6.053
 9248WAT     H227987   7.000   5.658   6.062
 9249WAT      O27988   7.685   6.621   6.303
 9249WAT     H127989   7.727   6.676   6.231
 9249WAT     H227990   7.753   6.602   6.374
 9250WAT      O27991   7.704   4.752   0.658
 9250WAT     H127992   7.743   4.666   0.625
 9250WAT     H227993   7.604   4.747   0.653
 9251WAT      O27994   3.743   7.402   8.504
 9251WAT     H127995   3.780   7.329   8.562
 9251WAT     H227996   3.724   7.483   8.560
 9252WAT      O27997   5.721   4.160   8.663
 9252WAT     H127998   5.684   4.080   8.710
 9252WAT     H227999   5.649   4.204   8.609
 9253WAT      O28000   1.560   4.156   5.559
 9253WAT     H128001   1.633   4.089   5.572
 9253WAT     H228002   1.500   4.127   5.484
 9254WAT      O28003   1.246   9.135   7.691
 9254WAT     H128004   1.200   9.087   7.616
 9254WAT     H228005   1.181   9.199   7.733
 9255WAT      O28006   1.300   3.947   4.663
 9255WAT     H128007   1.237   4.018   4.633
 9255WAT     H228008   1.253   3.885   4.726
 9256WAT      O28009   5.672   9.682   1.494
 9256WAT     H128010   5.668   9.633   1.407
 9256WAT     H228011   5.582   9.720   1.516
 9257WAT      O28012   4.415   7.155   6.448
 9257WAT     H128013   4.443   7.165   6.543
 9257WAT     H228014   4.329   7.203   6.433
 9258WAT      O28015   9.171   7.939   7.654
 9258WAT     H128016   9.216   8.013   7.604
 9258WAT     H228017   9.072   7.946   7.640
 9259WAT      O28018   1.892   1.317   2.986
 9259WAT     H128019   1.920   1.232   2.942
 9259WAT     H228020   1.792   1.321   2.991
 9260WAT      O28021   6.060   2.022   8.769
 9260WAT     H128022   6.035   1.926   8.761
 9260WAT     H228023   5.992   2.078   8.722
 9261WAT      O28024   2.471   0.634   1.114
 9261WAT     H128025   2.554   0.656   1.165
 9261WAT     H228026   2.391   0.668   1.163
 9262WAT      O28027   0.850   3.896   8.099
 9262WAT     H128028   0.756   3.902   8.066
 9262WAT     H228029   0.907   3.961   8.048
 9263WAT      O28030   8.147   3.928   7.595
 9263WAT     H128031   8.183   3.865   7.664
 9263WAT     H228032   8.065   3.972   7.629
 9264WAT      O28033   8.660   8.406   1.840
 9264WAT     H128034   8.589   8.463   1.881
 9264WAT     H228035   8.746   8.456   1.840
 9265WAT      O28036   9.424   6.293   1.113
 9265WAT     H128037   9.364   6.287   1.193
 9265WAT     H228038   9.515   6.258   1.138
 9266WAT      O28039   0.065   4.034   0.505
 9266WAT     H128040   0.055   4.012   0.602
 9266WAT     H228041  -0.017   4.080   0.472
 9267WAT      O28042   0.499   3.747   1.129
 9267WAT     H128043   0.574   3.701   1.177
 9267WAT     H228044   0.413   3.729   1.177
 9268WAT      O28045   4.622   9.404   3.935
 9268WAT     H128046   4.712   9.361   3.920
 9268WAT     H228047   4.562   9.382   3.859
 9269WAT      O28048   7.746   6.425   8.946
 9269WAT     H128049   7.748   6.345   8.886
 9269WAT     H228050   7.837   6.442   8.982
 9270WAT      O28051   3.878   3.108   1.496
 9270WAT     H128052   3.969   3.088   1.460
 9270WAT     H228053   3.817   3.032   1.476
 9271WAT      O28054   1.417   3.484   8.772
 9271WAT     H128055   1.385   3.509   8.863
 9271WAT     H228056   1.515   3.462   8.776
 9272WAT      O28057   6.172   3.209   0.881
 9272WAT     H128058   6.210   3.119   0.904
 9272WAT     H228059   6.074   3.210   0.901
 9273WAT      O28060   5.425   2.830   0.164
 9273WAT     H128061   5.351   2.772   0.130
 9273WAT     H228062   5.397   2.874   0.249
 9274WAT      O28063   2.600   8.579   1.800
 9274WAT     H128064   2.544   8.655   1.834
 9274WAT     H228065   2.696   8.595   1.822
 9275WAT      O28066   1.171   5.233   7.611
 9275WAT     H128067   1.094   5.241   7.673
 9275WAT     H228068   1.257   5.246   7.661
 9276WAT      O28069   5.054   5.444   4.914
 9276WAT     H128070   5.151   5.423   4.902
 9276WAT     H228071   5.016   5.476   4.828
 9277WAT      O28072   1.339   0.149   1.392
 9277WAT     H128073   1.361   0.237   1.350
 9277WAT     H228074   1.394   0.137   1.475
 9278WAT      O28075   6.455   0.123   4.738
 9278WAT     H128076   6.550   0.098   4.720
 9278WAT     H228077   6.396   0.079   4.671
 9279WAT      O28078   7.055   9.035   1.245
 9279WAT     H128079   7.062   9.067   1.151
 9279WAT     H228080   7.066   9.112   1.307
 9280WAT      O28081   2.586   7.944   6.988
 9280WAT     H128082   2.668   7.888   6.978
 9280WAT     H228083   2.510   7.901   6.938
 9281WAT      O28084   4.013   9.065   3.870
 9281WAT     H128085   3.968   9.134   3.814
 9281WAT     H228086   4.076   9.012   3.813
 9282WAT      O28087   7.897   3.930   1.726
 9282WAT     H128088   7.888   3.993   1.649
 9282WAT     H228089   7.969   3.864   1.707
 9283WAT      O28090   1.483   3.034   5.139
 9283WAT     H128091   1.429   2.974   5.197
 9283WAT     H228092   1.481   3.000   5.045
 9284WAT      O28093   0.264   1.846   4.353
 9284WAT     H128094   0.324   1.891   4.287
 9284WAT     H228095   0.228   1.914   4.417
 9285WAT      O28096   4.794   4.216   3.110
 9285WAT     H128097   4.856   4.138   3.102
 9285WAT     H228098   4.799   4.253   3.203
 9286WAT      O28099   5.187   4.795   2.762
 9286WAT     H128100   5.235   4.725   2.709
 9286WAT     H228101   5.134   4.752   2.835
 9287WAT      O28102   7.593   7.902   9.282
 9287WAT     H128103   7.529   7.978   9.281
 9287WAT     H228104   7.675   7.926   9.230
 9288WAT      O28105   9.208   1.814   2.840
 9288WAT     H128106   9.300   1.797   2.805
 9288WAT     H228107   9.168   1.727   2.871
 9289WAT      O28108   8.969   8.422   8.503
 9289WAT     H128109   8.871   8.438   8.485
 9289WAT     H228110   8.984   8.418   8.601
 9290WAT      O28111   9.710   8.267   7.858
 9290WAT     H128112   9.744   8.183   7.900
 9290WAT     H228113   9.777   8.341   7.871
 9291WAT      O28114   1.295   9.602   4.238
 9291WAT     H128115   1.366   9.603   4.168
 9291WAT     H228116   1.211   9.562   4.201
 9292WAT      O28117   5.601   5.257   3.394
 9292WAT     H128118   5.572   5.165   3.419
 9292WAT     H228119   5.549   5.288   3.314
 9293WAT      O28120   0.129   3.923   6.027
 9293WAT     H128121   0.166   3.909   5.935
 9293WAT     H228122   0.050   3.985   6.022
 9294WAT      O28123   0.173   5.849   8.778
 9294WAT     H128124   0.246   5.826   8.714
 9294WAT     H228125   0.208   5.913   8.847
 9295WAT      O28126   4.045   3.920   4.183
 9295WAT     H128127   4.016   3.858   4.256
 9295WAT     H228128   4.131   3.964   4.208
 9296WAT      O28129   2.243   1.232   4.790
 9296WAT     H128130   2.275   1.138   4.777
 9296WAT     H228131   2.161   1.232   4.847
 9297WAT      O28132   9.199   2.655   2.787
 9297WAT     H128133   9.207   2.729   2.720
 9297WAT     H228134   9.104   2.650   2.819
 9298WAT      O28135   5.707   8.349   4.444
 9298WAT     H128136   5.745   8.258   4.425
 9298WAT     H228137   5.695   8.398   4.358
 9299WAT      O28138   8.358   8.513   3.702
 9299WAT     H128139   8.267   8.529   3.742
 9299WAT     H228140   8.426   8.507   3.774
 9300WAT      O28141   5.263   7.278   3.574
 9300WAT     H128142   5.355   7.260   3.609
 9300WAT     H228143   5.204   7.200   3.593
 9301WAT      O28144   7.707   9.706   8.302
 9301WAT     H128145   7.792   9.698   8.250
 9301WAT     H228146   7.640   9.641   8.266
 9302WAT      O28147   1.103   6.867   6.232
 9302WAT     H128148   1.161   6.947   6.236
 9302WAT     H228149   1.155   6.786   6.258
 9303WAT      O28150   8.467   8.480   8.984
 9303WAT     H128151   8.542   8.438   9.036
 9303WAT     H228152   8.450   8.572   9.019
 9304WAT      O28153   0.968   9.397   8.260
 9304WAT     H128154   1.028   9.334   8.212
 9304WAT     H228155   0.877   9.395   8.219
 9305WAT      O28156   5.456   1.011  -0.003
 9305WAT     H128157   5.513   1.093  -0.003
 9305WAT     H228158   5.413   1.000   0.087
 9306WAT      O28159   4.016   0.584   5.556
 9306WAT     H128160   3.988   0.617   5.647
 9306WAT     H228161   3.942   0.600   5.491
 9307WAT      O28162   3.398   0.337   1.708
 9307WAT     H128163   3.326   0.390   1.752
 9307WAT     H228164   3.471   0.399   1.678
 9308WAT      O28165   7.072   6.616   5.636
 9308WAT     H128166   7.058   6.709   5.671
 9308WAT     H228167   6.996   6.593   5.574
 9309WAT      O28168   6.884   7.525   2.397
 9309WAT     H128169   6.903   7.521   2.299
 9309WAT     H228170   6.870   7.620   2.425
 9310WAT      O28171   1.062   4.005   6.811
 9310WAT     H128172   1.003   4.080   6.838
 9310WAT     H228173   1.008   3.921   6.805
 9311WAT      O28174   8.400   6.196   1.746
 9311WAT     H128175   8.320   6.142   1.772
 9311WAT     H228176   8.379   6.249   1.664
 9312WAT      O28177   8.341   9.228   9.561
 9312WAT     H128178   8.342   9.146   9.503
 9312WAT     H228179   8.299   9.206   9.648
 9313WAT      O28180   3.467   9.017   6.281
 9313WAT     H128181   3.567   9.019   6.286
 9313WAT     H228182   3.430   9.092   6.336
 9314WAT      O28183   7.905   2.788   0.799
 9314WAT     H128184   7.850   2.705   0.801
 9314WAT     H228185   8.001   2.764   0.816
 9315WAT      O28186   1.146   2.772   9.525
 9315WAT     H128187   1.077   2.837   9.493
 9315WAT     H228188   1.178   2.799   9.616
 9316WAT      O28189   8.591   2.727   8.009
 9316WAT     H128190   8.516   2.667   8.035
 9316WAT     H228191   8.651   2.680   7.945
 9317WAT      O28192   6.160   0.634   9.708
 9317WAT     H128193   6.115   0.715   9.744
 9317WAT     H228194   6.239   0.611   9.765
 9318WAT      O28195   0.648   6.517   8.874
 9318WAT     H128196   0.551   6.533   8.893
 9318WAT     H228197   0.659   6.427   8.832
 9319WAT      O28198   5.186   0.792   1.355
 9319WAT     H128199   5.187   0.745   1.443
 9319WAT     H228200   5.166   0.889   1.369
 9320WAT      O28201   2.856   3.256   6.250
 9320WAT     H128202   2.944   3.227   6.213
 9320WAT     H228203   2.866   3.276   6.348
 9321WAT      O28204   9.779   0.928   0.180
 9321WAT     H128205   9.729   0.999   0.130
 9321WAT     H228206   9.801   0.963   0.272
 9322WAT      O28207   3.178   3.571   5.964
 9322WAT     H128208   3.236   3.490   5.973
 9322WAT     H228209   3.236   3.652   5.952
 9323WAT      O28210   0.269   7.273   3.728
 9323WAT     H128211   0.248   7.349   3.790
 9323WAT     H228212   0.349   7.297   3.672
 9324WAT      O28213   5.496   3.135   2.927
 9324WAT     H128214   5.530   3.218   2.971
 9324WAT     H228215   5.522   3.136   2.830
 9325WAT      O28216   2.361   4.002   8.116
 9325WAT     H128217   2.347   3.937   8.191
 9325WAT     H228218   2.410   4.082   8.150
 9326WAT      O28219   9.328   6.337   0.873
 9326WAT     H128220   9.235   6.302   0.876
 9326WAT     H228221   9.376   6.313   0.958
 9327WAT      O28222   1.921   5.222   5.359
 9327WAT     H128223   1.931   5.149   5.292
 9327WAT     H228224   1.975   5.200   5.441
 9328WAT      O28225   1.207   6.477   7.446
 9328WAT     H128226   1.254   6.472   7.358
 9328WAT     H228227   1.159   6.564   7.453
 9329WAT      O28228   5.885   8.491   9.206
 9329WAT     H128229   5.868   8.427   9.131
 9329WAT     H228230   5.804   8.546   9.223
 9330WAT      O28231   0.211   5.035   7.757
 9330WAT     H128232   0.263   5.043   7.842
 9330WAT     H228233   0.271   4.998   7.686
 9331WAT      O28234   2.298   4.995   0.941
 9331WAT     H128235   2.316   5.053   1.021
 9331WAT     H228236   2.269   5.052   0.864
 9332WAT      O28237   9.559   6.479   8.936
 9332WAT     H128238   9.650   6.473   8.977
 9332WAT     H228239   9.552   6.412   8.862
 9333WAT      O28240   9.712   1.902   1.022
 9333WAT     H128241   9.657   1.826   0.988
 9333WAT     H228242   9.795   1.867   1.065
 9334WAT      O28243   8.774   8.859   8.049
 9334WAT     H128244   8.855   8.829   8.098
 9334WAT     H228245   8.722   8.779   8.017
 9335WAT      O28246   1.009   5.864   6.251
 9335WAT     H128247   1.004   5.841   6.348
 9335WAT     H228248   1.085   5.929   6.236
 9336WAT      O28249   0.302   3.088   6.282
 9336WAT     H128250   0.289   3.064   6.186
 9336WAT     H228251   0.350   3.013   6.329
 9337WAT      O28252   0.481   6.376   4.067
 9337WAT     H128253   0.555   6.443   4.057
 9337WAT     H228254   0.490   6.330   4.155
 9338WAT      O28255   3.760   2.328   8.754
 9338WAT     H128256   3.707   2.256   8.710
 9338WAT     H228257   3.856   2.300   8.759
 9339WAT      O28258   6.549   7.684   3.741
 9339WAT     H128259   6.624   7.638   3.789
 9339WAT     H228260   6.497   7.739   3.806
 9340WAT      O28261   5.351   4.737   2.039
 9340WAT     H128262   5.424   4.806   2.032
 9340WAT     H228263   5.327   4.706   1.947
 9341WAT      O28264   5.454   6.409   8.227
 9341WAT     H128265   5.390   6.486   8.231
 9341WAT     H228266   5.403   6.325   8.211
 9342WAT      O28267   0.168   3.031   6.060
 9342WAT     H128268   0.187   3.127   6.037
 9342WAT     H228269   0.075   3.008   6.033
 9343WAT      O28270   2.302   1.155   3.006
 9343WAT     H128271   2.354   1.201   2.933
 9343WAT     H228272   2.294   1.216   3.085
 9344WAT      O28273   0.995   8.364   5.264
 9344WAT     H128274   1.000   8.305   5.345
 9344WAT     H228275   0.983   8.459   5.293
 9345WAT      O28276   9.457   0.895   0.070
 9345WAT     H128277   9.475   0.912   0.166
 9345WAT     H228278   9.382   0.830   0.061
 9346WAT      O28279   2.969   0.379   9.114
 9346WAT     H128280   2.891   0.317   9.116
 9346WAT     H228281   3.007   0.382   9.022
 9347WAT      O28282   7.207   9.513   1.183
 9347WAT     H128283   7.152   9.475   1.109
 9347WAT     H228284   7.147   9.542   1.258
 9348WAT      O28285   4.925   9.260   6.223
 9348WAT     H128286   4.986   9.183   6.202
 9348WAT     H228287   4.979   9.335   6.262
 9349WAT      O28288   7.406   5.273   9.150
 9349WAT     H128289   7.397   5.187   9.100
 9349WAT     H228290   7.422   5.254   9.247
 9350WAT      O28291   1.182   4.738   9.624
 9350WAT     H128292   1.184   4.709   9.528
 9350WAT     H228293   1.152   4.662   9.681
 9351WAT      O28294   2.124   3.216   5.487
 9351WAT     H128295   2.178   3.232   5.569
 9351WAT     H228296   2.173   3.156   5.424
 9352WAT      O28297   7.868   4.085   5.497
 9352WAT     H128298   7.887   4.002   5.549
 9352WAT     H228299   7.849   4.160   5.560
 9353WAT      O28300   2.997   8.110   5.193
 9353WAT     H128301   3.029   8.177   5.126
 9353WAT     H228302   2.921   8.058   5.155
 9354WAT      O28303   3.945   1.551   3.141
 9354WAT     H128304   3.925   1.466   3.190
 9354WAT     H228305   3.940   1.628   3.204
 9355WAT      O28306   6.879   5.737   6.944
 9355WAT     H128307   6.895   5.835   6.930
 9355WAT     H228308   6.781   5.720   6.951
 9356WAT      O28309   2.838   4.841   5.079
 9356WAT     H128310   2.863   4.907   5.008
 9356WAT     H228311   2.842   4.748   5.041
 9357WAT      O28312   6.476   2.981   0.119
 9357WAT     H128313   6.494   2.884   0.103
 9357WAT     H228314   6.396   3.010   0.067
 9358WAT      O28315   2.859   1.874   5.003
 9358WAT     H128316   2.846   1.896   5.100
 9358WAT     H228317   2.787   1.811   4.974
 9359WAT      O28318   3.424   5.550   7.693
 9359WAT     H128319   3.361   5.555   7.615
 9359WAT     H228320   3.516   5.575   7.662
 9360WAT      O28321   6.893   2.309   5.046
 9360WAT     H128322   6.924   2.371   4.974
 9360WAT     H228323   6.970   2.258   5.082
 9361WAT      O28324   3.387   8.122   2.488
 9361WAT     H128325   3.355   8.045   2.433
 9361WAT     H228326   3.413   8.090   2.579
 9362WAT      O28327   5.411   1.029   7.961
 9362WAT     H128328   5.510   1.043   7.956
 9362WAT     H228329   5.381   0.974   7.883
 9363WAT      O28330   3.862   4.582   7.710
 9363WAT     H128331   3.811   4.543   7.633
 9363WAT     H228332   3.842   4.530   7.793
 9364WAT      O28333   4.991   8.557   7.737
 9364WAT     H128334   4.992   8.615   7.818
 9364WAT     H228335   4.899   8.522   7.722
 9365WAT      O28336   3.989   6.300   3.059
 9365WAT     H128337   3.920   6.229   3.045
 9365WAT     H228338   4.003   6.350   2.974
 9366WAT      O28339   5.842   6.662   1.019
 9366WAT     H128340   5.849   6.563   1.002
 9366WAT     H228341   5.854   6.712   0.933
 9367WAT      O28342   9.366   2.597   5.581
 9367WAT     H128343   9.438   2.528   5.583
 9367WAT     H228344   9.277   2.553   5.577
 9368WAT      O28345   2.896   3.332   1.089
 9368WAT     H128346   2.877   3.235   1.105
 9368WAT     H228347   2.880   3.353   0.993
 9369WAT      O28348   8.608   5.137   0.914
 9369WAT     H128349   8.597   5.125   1.013
 9369WAT     H228350   8.588   5.050   0.868
 9370WAT      O28351   6.282   9.661   0.713
 9370WAT     H128352   6.194   9.658   0.761
 9370WAT     H228353   6.307   9.569   0.683
 9371WAT      O28354   4.097   6.086   5.849
 9371WAT     H128355   4.036   6.007   5.850
 9371WAT     H228356   4.059   6.159   5.907
 9372WAT      O28357   3.557   3.381   1.794
 9372WAT     H128358   3.607   3.442   1.732
 9372WAT     H228359   3.469   3.422   1.817
 9373WAT      O28360   1.601   3.301   5.735
 9373WAT     H128361   1.539   3.324   5.810
 9373WAT     H228362   1.678   3.365   5.734
 9374WAT      O28363   9.233   9.174   0.308
 9374WAT     H128364   9.144   9.219   0.310
 9374WAT     H228365   9.294   9.218   0.374
 9375WAT      O28366   2.262   7.295   1.584
 9375WAT     H128367   2.225   7.288   1.491
 9375WAT     H228368   2.233   7.215   1.637
 9376WAT      O28369   0.242   9.350   4.473
 9376WAT     H128370   0.167   9.366   4.409
 9376WAT     H228371   0.205   9.315   4.559
 9377WAT      O28372   7.732   1.375   6.266
 9377WAT     H128373   7.727   1.424   6.179
 9377WAT     H228374   7.798   1.300   6.259
 9378WAT      O28375   4.293   8.769   2.192
 9378WAT     H128376   4.360   8.837   2.220
 9378WAT     H228377   4.338   8.679   2.185
 9379WAT      O28378   4.191   4.218   0.923
 9379WAT     H128379   4.249   4.164   0.985
 9379WAT     H228380   4.105   4.240   0.969
 9380WAT      O28381   1.531   2.334   8.769
 9380WAT     H128382   1.476   2.417   8.758
 9380WAT     H228383   1.545   2.317   8.867
 9381WAT      O28384   3.289   8.589   4.790
 9381WAT     H128385   3.339   8.512   4.749
 9381WAT     H228386   3.250   8.646   4.718
 9382WAT      O28387   8.511   0.469   9.182
 9382WAT     H128388   8.492   0.567   9.175
 9382WAT     H228389   8.437   0.424   9.231
 9383WAT      O28390   0.635   7.747   4.199
 9383WAT     H128391   0.724   7.757   4.242
 9383WAT     H228392   0.644   7.692   4.115
 9384WAT      O28393   5.365   3.874   4.511
 9384WAT     H128394   5.402   3.848   4.600
 9384WAT     H228395   5.268   3.895   4.520
 9385WAT      O28396   2.506   8.569   1.366
 9385WAT     H128397   2.605   8.579   1.369
 9385WAT     H228398   2.469   8.576   1.459
 9386WAT      O28399   7.717   5.802   2.153
 9386WAT     H128400   7.623   5.832   2.134
 9386WAT     H228401   7.775   5.822   2.074
 9387WAT      O28402   6.069   4.459   8.228
 9387WAT     H128403   6.048   4.550   8.266
 9387WAT     H228404   5.983   4.413   8.205
 9388WAT      O28405   6.815   5.492   9.608
 9388WAT     H128406   6.854   5.406   9.577
 9388WAT     H228407   6.744   5.475   9.676
 9389WAT      O28408   3.477   6.789   9.882
 9389WAT     H128409   3.413   6.762   9.954
 9389WAT     H228410   3.467   6.728   9.804
 9390WAT      O28411   7.339   6.731   8.730
 9390WAT     H128412   7.264   6.781   8.772
 9390WAT     H228413   7.323   6.722   8.631
 9391WAT      O28414   2.963   5.357   9.829
 9391WAT     H128415   2.908   5.424   9.779
 9391WAT     H228416   3.049   5.342   9.781
 9392WAT      O28417   2.177   9.533   6.855
 9392WAT     H128418   2.095   9.572   6.815
 9392WAT     H228419   2.256   9.590   6.831
 9393WAT      O28420   5.764   8.540   6.665
 9393WAT     H128421   5.668   8.569   6.658
 9393WAT     H228422   5.813   8.565   6.581
 9394WAT      O28423   5.587   9.723   9.729
 9394WAT     H128424   5.535   9.705   9.812
 9394WAT     H228425   5.525   9.736   9.652
 9395WAT      O28426   1.838   3.839   6.869
 9395WAT     H128427   1.909   3.804   6.808
 9395WAT     H228428   1.832   3.782   6.951
 9396WAT      O28429   7.214   0.021   0.459
 9396WAT     H128430   7.132  -0.003   0.512
 9396WAT     H228431   7.295  -0.015   0.504
 9397WAT      O28432   6.241   0.885   0.092
 9397WAT     H128433   6.284   0.820   0.155
 9397WAT     H228434   6.297   0.893   0.010
 9398WAT      O28435   6.441   7.186   6.348
 9398WAT     H128436   6.346   7.176   6.378
 9398WAT     H228437   6.469   7.281   6.357
 9399WAT      O28438   3.777   6.453   6.979
 9399WAT     H128439   3.871   6.487   6.985
 9399WAT     H228440   3.777   6.353   6.983
 9400WAT      O28441   0.597   3.418   6.813
 9400WAT     H128442   0.544   3.501   6.826
 9400WAT     H228443   0.539   3.338   6.826
 9401WAT      O28444   9.368   6.953   5.900
 9401WAT     H128445   9.378   6.946   5.999
 9401WAT     H228446   9.459   6.958   5.858
 9402WAT      O28447   3.499   5.437   2.920
 9402WAT     H128448   3.469   5.367   2.985
 9402WAT     H228449   3.489   5.527   2.962
 9403WAT      O28450   3.271   6.948   7.096
 9403WAT     H128451   3.286   6.853   7.123
 9403WAT     H228452   3.261   6.954   6.997
 9404WAT      O28453   0.887   6.821   4.518
 9404WAT     H128454   0.837   6.896   4.561
 9404WAT     H228455   0.961   6.857   4.462
 9405WAT      O28456   5.360   9.032   6.684
 9405WAT     H128457   5.444   9.029   6.737
 9405WAT     H228458   5.327   8.939   6.668
 9406WAT      O28459   5.127   2.187   7.226
 9406WAT     H128460   5.117   2.250   7.149
 9406WAT     H228461   5.046   2.129   7.233
 9407WAT      O28462   5.429   5.798   1.964
 9407WAT     H128463   5.381   5.873   2.008
 9407WAT     H228464   5.390   5.781   1.873
 9408WAT      O28465   3.321   4.986   3.682
 9408WAT     H128466   3.413   5.005   3.715
 9408WAT     H228467   3.266   5.070   3.687
 9409WAT      O28468   4.046   1.223   2.989
 9409WAT     H128469   3.949   1.229   2.965
 9409WAT     H228470   4.089   1.148   2.939
 9410WAT      O28471   1.512   7.140   0.599
 9410WAT     H128472   1.466   7.138   0.688
 9410WAT     H228473   1.610   7.127   0.613
 9411WAT      O28474   5.008   0.016   2.378
 9411WAT     H128475   4.977  -0.077   2.395
 9411WAT     H228476   4.929   0.076   2.366
 9412WAT      O28477   9.241   0.370   9.853
 9412WAT     H128478   9.269   0.371   9.948
 9412WAT     H228479   9.215   0.277   9.826
 9413WAT      O28480   1.372   8.594   1.845
 9413WAT     H128481   1.450   8.532   1.845
 9413WAT     H228482   1.344   8.612   1.751
 9414WAT      O28483   2.999   0.196   0.790
 9414WAT     H128484   2.930   0.173   0.721
 9414WAT     H228485   3.085   0.220   0.744
 9415WAT      O28486   6.505   9.536   2.852
 9415WAT     H128487   6.411   9.528   2.886
 9415WAT     H228488   6.504   9.548   2.753
 9416WAT      O28489   5.993   5.810   7.000
 9416WAT     H128490   6.031   5.725   7.038
 9416WAT     H228491   6.004   5.810   6.900
 9417WAT      O28492   3.378   8.596   7.838
 9417WAT     H128493   3.404   8.556   7.926
 9417WAT     H228494   3.316   8.534   7.790
 9418WAT      O28495   0.618   8.782   7.053
 9418WAT     H128496   0.561   8.755   7.131
 9418WAT     H228497   0.610   8.714   6.981
 9419WAT      O28498   3.924   8.359   8.612
 9419WAT     H128499   3.828   8.377   8.590
 9419WAT     H228500   3.983   8.414   8.552
 9420WAT      O28501   8.710   0.831   6.388
 9420WAT     H128502   8.802   0.871   6.389
 9420WAT     H228503   8.685   0.803   6.480
 9421WAT      O28504   0.840   9.618   4.690
 9421WAT     H128505   0.879   9.615   4.598
 9421WAT     H228506   0.768   9.687   4.693
 9422WAT      O28507   7.824   5.210   3.128
 9422WAT     H128508   7.828   5.206   3.227
 9422WAT     H228509   7.915   5.193   3.090
 9423WAT      O28510   6.064   2.418   1.665
 9423WAT     H128511   6.138   2.371   1.618
 9423WAT     H228512   5.977   2.397   1.620
 9424WAT      O28513   6.522   8.838   5.596
 9424WAT     H128514   6.429   8.869   5.617
 9424WAT     H228515   6.588   8.894   5.646
 9425WAT      O28516   0.540   4.257   1.492
 9425WAT     H128517   0.602   4.277   1.568
 9425WAT     H228518   0.459   4.210   1.527
 9426WAT      O28519   5.952   1.137   0.660
 9426WAT     H128520   5.871   1.192   0.680
 9426WAT     H228521   6.032   1.197   0.654
 9427WAT      O28522   4.693   8.370   1.040
 9427WAT     H128523   4.599   8.373   1.073
 9427WAT     H228524   4.723   8.274   1.033
 9428WAT      O28525   4.432   1.303   7.062
 9428WAT     H128526   4.525   1.281   7.089
 9428WAT     H228527   4.431   1.390   7.013
 9429WAT      O28528   2.850   4.269   8.077
 9429WAT     H128529   2.816   4.180   8.046
 9429WAT     H228530   2.945   4.261   8.105
 9430WAT      O28531   8.652   6.108   9.038
 9430WAT     H128532   8.698   6.052   9.106
 9430WAT     H228533   8.553   6.092   9.042
 9431WAT      O28534   4.640   9.040   1.686
 9431WAT     H128535   4.695   9.106   1.737
 9431WAT     H228536   4.551   9.081   1.664
 9432WAT      O28537   4.010   1.499   7.945
 9432WAT     H128538   4.015   1.541   8.036
 9432WAT     H228539   4.087   1.529   7.890
 9433WAT      O28540   2.587   5.463   3.294
 9433WAT     H128541   2.552   5.407   3.369
 9433WAT     H228542   2.521   5.462   3.218
 9434WAT      O28543   5.782   7.294   1.494
 9434WAT     H128544   5.740   7.375   1.453
 9434WAT     H228545   5.870   7.277   1.450
 9435WAT      O28546   9.091   2.858   2.119
 9435WAT     H128547   9.024   2.911   2.067
 9435WAT     H228548   9.108   2.903   2.207
 9436WAT      O28549   2.923   1.958   2.594
 9436WAT     H128550   2.945   1.907   2.511
 9436WAT     H228551   2.840   1.920   2.635
 9437WAT      O28552   6.271   6.199   7.413
 9437WAT     H128553   6.215   6.279   7.436
 9437WAT     H228554   6.343   6.226   7.349
 9438WAT      O28555   2.830   2.735   5.950
 9438WAT     H128556   2.819   2.788   5.866
 9438WAT     H228557   2.740   2.714   5.988
 9439WAT      O28558   7.120   3.132   2.941
 9439WAT     H128559   7.094   3.092   2.853
 9439WAT     H228560   7.054   3.105   3.011
 9440WAT      O28561   4.265   5.781   3.710
 9440WAT     H128562   4.363   5.771   3.693
 9440WAT     H228563   4.251   5.832   3.795
 9441WAT      O28564   7.770   5.914   7.031
 9441WAT     H128565   7.869   5.924   7.021
 9441WAT     H228566   7.739   5.832   6.983
 9442WAT      O28567   8.620   1.319   8.509
 9442WAT     H128568   8.608   1.225   8.538
 9442WAT     H228569   8.645   1.375   8.588
 9443WAT      O28570   2.241   2.496   8.670
 9443WAT     H128571   2.304   2.535   8.737
 9443WAT     H228572   2.227   2.560   8.596
 9444WAT      O28573   7.041   9.258   1.436
 9444WAT     H128574   6.963   9.296   1.387
 9444WAT     H228575   7.097   9.332   1.473
 9445WAT      O28576   1.696   5.988   2.013
 9445WAT     H128577   1.762   5.919   1.984
 9445WAT     H228578   1.693   6.062   1.946
 9446WAT      O28579   5.130   7.722   3.892
 9446WAT     H128580   5.070   7.700   3.969
 9446WAT     H228581   5.220   7.747   3.928
 9447WAT      O28582   6.313   4.031   4.846
 9447WAT     H128583   6.279   3.942   4.876
 9447WAT     H228584   6.237   4.085   4.810
 9448WAT      O28585   2.653   7.795   7.862
 9448WAT     H128586   2.705   7.719   7.823
 9448WAT     H228587   2.714   7.855   7.914
 9449WAT      O28588   1.816   5.001   1.252
 9449WAT     H128589   1.902   5.051   1.247
 9449WAT     H228590   1.741   5.060   1.222
 9450WAT      O28591   7.241   0.295   8.087
 9450WAT     H128592   7.225   0.216   8.028
 9450WAT     H228593   7.301   0.360   8.041
 9451WAT      O28594   4.805   0.060   3.889
 9451WAT     H128595   4.736  -0.012   3.897
 9451WAT     H228596   4.872   0.051   3.963
 9452WAT      O28597   5.447   1.092   1.067
 9452WAT     H128598   5.540   1.127   1.055
 9452WAT     H228599   5.394   1.158   1.120
 9453WAT      O28600   8.544   7.695   9.621
 9453WAT     H128601   8.445   7.699   9.633
 9453WAT     H228602   8.569   7.747   9.539
 9454WAT      O28603   6.917   6.671   3.943
 9454WAT     H128604   6.897   6.573   3.945
 9454WAT     H228605   6.860   6.715   3.874
 9455WAT      O28606   3.937   8.209   1.748
 9455WAT     H128607   3.986   8.242   1.667
 9455WAT     H228608   3.925   8.285   1.812
 9456WAT      O28609   8.573   1.667   7.901
 9456WAT     H128610   8.584   1.578   7.857
 9456WAT     H228611   8.644   1.679   7.970
 9457WAT      O28612   8.406   7.646   0.101
 9457WAT     H128613   8.505   7.639   0.095
 9457WAT     H228614   8.369   7.565   0.147
 9458WAT      O28615   0.455   0.601   3.800
 9458WAT     H128616   0.467   0.650   3.886
 9458WAT     H228617   0.495   0.654   3.725
 9459WAT      O28618   1.670   1.205   2.569
 9459WAT     H128619   1.722   1.123   2.593
 9459WAT     H228620   1.727   1.266   2.515
 9460WAT      O28621   9.696   3.840   4.227
 9460WAT     H128622   9.642   3.797   4.155
 9460WAT     H228623   9.700   3.939   4.212
 9461WAT      O28624   0.082   6.123   7.137
 9461WAT     H128625  -0.009   6.101   7.172
 9461WAT     H228626   0.078   6.209   7.086
 9462WAT      O28627   9.527   5.082   7.140
 9462WAT     H128628   9.548   4.987   7.162
 9462WAT     H228629   9.428   5.095   7.140
 9463WAT      O28630   6.728   1.863   4.079
 9463WAT     H128631   6.646   1.851   4.135
 9463WAT     H228632   6.730   1.792   4.009
 9464WAT      O28633   5.792   2.364   2.155
 9464WAT     H128634   5.805   2.340   2.059
 9464WAT     H228635   5.765   2.282   2.206
 9465WAT      O28636   6.935   0.479   9.183
 9465WAT     H128637   7.010   0.443   9.127
 9465WAT     H228638   6.916   0.574   9.155
 9466WAT      O28639   0.823   2.532   3.892
 9466WAT     H128640   0.893   2.573   3.834
 9466WAT     H228641   0.806   2.592   3.970
 9467WAT      O28642   6.552   7.934   8.220
 9467WAT     H128643   6.533   8.031   8.207
 9467WAT     H228644   6.487   7.895   8.284
 9468WAT      O28645   7.117   2.197   8.283
 9468WAT     H128646   7.165   2.285   8.281
 9468WAT     H228647   7.111   2.161   8.190
 9469WAT      O28648   1.017   9.745   0.234
 9469WAT     H128649   0.963   9.770   0.314
 9469WAT     H228650   1.098   9.803   0.229
 9470WAT      O28651   9.652   2.999   0.213
 9470WAT     H128652   9.738   3.012   0.263
 9470WAT     H228653   9.580   2.974   0.278
 9471WAT      O28654   4.779   8.007   8.686
 9471WAT     H128655   4.732   7.990   8.599
 9471WAT     H228656   4.713   8.002   8.761
 9472WAT      O28657   1.285   4.618   7.474
 9472WAT     H128658   1.317   4.554   7.544
 9472WAT     H228659   1.229   4.569   7.407
 9473WAT      O28660   3.112   3.633   3.089
 9473WAT     H128661   3.201   3.669   3.061
 9473WAT     H228662   3.118   3.534   3.102
 9474WAT      O28663   1.206   0.179   2.172
 9474WAT     H128664   1.266   0.107   2.209
 9474WAT     H228665   1.125   0.137   2.132
 9475WAT      O28666   7.125   8.200   9.043
 9475WAT     H128667   7.105   8.253   9.126
 9475WAT     H228668   7.061   8.124   9.035
 9476WAT      O28669   0.775   6.034   1.411
 9476WAT     H128670   0.704   6.100   1.432
 9476WAT     H228671   0.849   6.079   1.361
 9477WAT      O28672   5.279   1.414   4.968
 9477WAT     H128673   5.325   1.496   5.001
 9477WAT     H228674   5.284   1.410   4.869
 9478WAT      O28675   5.462   7.185   6.429
 9478WAT     H128676   5.474   7.141   6.339
 9478WAT     H228677   5.545   7.172   6.483
 9479WAT      O28678   4.034   2.711   1.401
 9479WAT     H128679   4.101   2.648   1.361
 9479WAT     H228680   3.952   2.713   1.344
 9480WAT      O28681   3.301   1.666   8.528
 9480WAT     H128682   3.317   1.717   8.613
 9480WAT     H228683   3.372   1.598   8.515
 9481WAT      O28684   4.357   1.731   8.315
 9481WAT     H128685   4.320   1.645   8.279
 9481WAT     H228686   4.457   1.731   8.305
 9482WAT      O28687   3.639   4.204   9.544
 9482WAT     H128688   3.582   4.181   9.623
 9482WAT     H228689   3.658   4.302   9.544
 9483WAT      O28690   8.652   5.290   4.576
 9483WAT     H128691   8.609   5.380   4.567
 9483WAT     H228692   8.671   5.254   4.485
 9484WAT      O28693   9.198   8.532   6.037
 9484WAT     H128694   9.099   8.532   6.021
 9484WAT     H228695   9.231   8.626   6.044
 9485WAT      O28696   1.231   7.264   1.852
 9485WAT     H128697   1.214   7.265   1.754
 9485WAT     H228698   1.200   7.350   1.893
 9486WAT      O28699   4.134   5.335   9.427
 9486WAT     H128700   4.225   5.297   9.413
 9486WAT     H228701   4.073   5.305   9.354
 9487WAT      O28702   1.982   7.865   4.257
 9487WAT     H128703   2.050   7.931   4.225
 9487WAT     H228704   1.994   7.778   4.210
 9488WAT      O28705   6.406   6.354   8.680
 9488WAT     H128706   6.505   6.361   8.671
 9488WAT     H228707   6.364   6.441   8.653
 9489WAT      O28708   1.213   5.249   2.091
 9489WAT     H128709   1.115   5.232   2.081
 9489WAT     H228710   1.228   5.316   2.163
 9490WAT      O28711   7.519   7.562   7.798
 9490WAT     H128712   7.477   7.624   7.732
 9490WAT     H228713   7.546   7.612   7.880
 9491WAT      O28714   1.614   6.945   9.573
 9491WAT     H128715   1.613   6.873   9.503
 9491WAT     H228716   1.635   6.905   9.662
 9492WAT      O28717   3.858   5.840   4.223
 9492WAT     H128718   3.795   5.843   4.300
 9492WAT     H228719   3.935   5.901   4.241
 9493WAT      O28720   0.204   0.948   1.681
 9493WAT     H128721   0.180   0.908   1.769
 9493WAT     H228722   0.153   0.902   1.608
 9494WAT      O28723   9.529   8.528   3.612
 9494WAT     H128724   9.547   8.430   3.621
 9494WAT     H228725   9.607   8.580   3.647
 9495WAT      O28726   2.351   5.563   2.140
 9495WAT     H128727   2.432   5.511   2.167
 9495WAT     H228728   2.298   5.586   2.222
 9496WAT      O28729   6.106   5.190   0.262
 9496WAT     H128730   6.104   5.110   0.202
 9496WAT     H228731   6.030   5.185   0.327
 9497WAT      O28732   8.927   8.415   0.613
 9497WAT     H128733   8.834   8.451   0.618
 9497WAT     H228734   8.953   8.374   0.700
 9498WAT      O28735   8.898   4.045   6.503
 9498WAT     H128736   8.911   4.040   6.404
 9498WAT     H228737   8.943   4.127   6.538
 9499WAT      O28738   7.525   7.913   3.119
 9499WAT     H128739   7.531   7.999   3.171
 9499WAT     H228740   7.606   7.905   3.061
 9500WAT      O28741   0.213   6.038   5.746
 9500WAT     H128742   0.218   6.106   5.673
 9500WAT     H228743   0.161   5.959   5.714
 9501WAT      O28744   3.399   0.728   6.067
 9501WAT     H128745   3.479   0.723   6.127
 9501WAT     H228746   3.353   0.816   6.080
 9502WAT      O28747   8.911   1.654   1.674
 9502WAT     H128748   8.855   1.732   1.702
 9502WAT     H228749   8.999   1.686   1.640
 9503WAT      O28750   5.693   1.915   6.346
 9503WAT     H128751   5.737   1.977   6.281
 9503WAT     H228752   5.636   1.849   6.296
 9504WAT      O28753   7.068   0.916   5.856
 9504WAT     H128754   7.033   1.000   5.815
 9504WAT     H228755   7.094   0.852   5.784
 9505WAT      O28756   7.551   7.481   5.838
 9505WAT     H128757   7.458   7.492   5.873
 9505WAT     H228758   7.553   7.404   5.774
 9506WAT      O28759   0.221   1.058   5.670
 9506WAT     H128760   0.126   1.076   5.646
 9506WAT     H228761   0.237   1.082   5.765
 9507WAT      O28762   4.379   2.884   2.034
 9507WAT     H128763   4.329   2.961   1.995
 9507WAT     H228764   4.425   2.913   2.118
 9508WAT      O28765   6.502   9.659   2.611
 9508WAT     H128766   6.464   9.701   2.528
 9508WAT     H228767   6.562   9.725   2.657
 9509WAT      O28768   6.254   9.061   2.942
 9509WAT     H128769   6.233   9.044   3.038
 9509WAT     H228770   6.279   9.157   2.929
 9510WAT      O28771   3.050   9.433   5.254
 9510WAT     H128772   3.071   9.515   5.307
 9510WAT     H228773   3.043   9.457   5.157
 9511WAT      O28774   3.353   0.706   4.541
 9511WAT     H128775   3.356   0.662   4.631
 9511WAT     H228776   3.307   0.645   4.476
 9512WAT      O28777   3.966   1.049   3.969
 9512WAT     H128778   4.055   1.003   3.965
 9512WAT     H228779   3.899   0.988   4.010
 9513WAT      O28780   7.624   6.364   8.076
 9513WAT     H128781   7.666   6.375   8.166
 9513WAT     H228782   7.645   6.273   8.041
 9514WAT      O28783   3.818   9.285   9.527
 9514WAT     H128784   3.729   9.274   9.570
 9514WAT     H228785   3.884   9.319   9.594
 9515WAT      O28786   9.198   1.706   5.073
 9515WAT     H128787   9.291   1.708   5.110
 9515WAT     H228788   9.186   1.780   5.007
 9516WAT      O28789   8.770   1.567   9.872
 9516WAT     H128790   8.835   1.509   9.920
 9516WAT     H228791   8.732   1.518   9.793
 9517WAT      O28792   7.858   7.806   5.976
 9517WAT     H128793   7.828   7.713   5.994
 9517WAT     H228794   7.842   7.863   6.057
 9518WAT      O28795   0.544   3.273   4.459
 9518WAT     H128796   0.638   3.294   4.488
 9518WAT     H228797   0.544   3.189   4.405
 9519WAT      O28798   8.944   5.765   8.688
 9519WAT     H128799   8.960   5.701   8.764
 9519WAT     H228800   8.920   5.713   8.606
 9520WAT      O28801   5.686   0.304   3.804
 9520WAT     H128802   5.677   0.236   3.731
 9520WAT     H228803   5.728   0.387   3.768
 9521WAT      O28804   9.705   3.036   4.361
 9521WAT     H128805   9.725   3.106   4.429
 9521WAT     H228806   9.613   3.050   4.324
 9522WAT      O28807   3.952   3.584   7.821
 9522WAT     H128808   3.942   3.680   7.847
 9522WAT     H228809   4.042   3.551   7.850
 9523WAT      O28810   5.950   6.051   4.051
 9523WAT     H128811   5.978   6.017   3.961
 9523WAT     H228812   5.854   6.078   4.049
 9524WAT      O28813   8.890   6.534   9.335
 9524WAT     H128814   8.953   6.608   9.358
 9524WAT     H228815   8.940   6.447   9.331
 9525WAT      O28816   9.051   9.358   0.679
 9525WAT     H128817   9.006   9.272   0.705
 9525WAT     H228818   9.027   9.429   0.745
 9526WAT      O28819   3.240   0.933   5.219
 9526WAT     H128820   3.337   0.912   5.213
 9526WAT     H228821   3.192   0.857   5.263
 9527WAT      O28822   3.641   7.006   5.531
 9527WAT     H128823   3.731   6.972   5.559
 9527WAT     H228824   3.630   7.101   5.561
 9528WAT      O28825   2.808   3.140   4.916
 9528WAT     H128826   2.860   3.118   4.833
 9528WAT     H228827   2.815   3.063   4.980
 9529WAT      O28828   2.353   7.208   6.672
 9529WAT     H128829   2.278   7.215   6.738
 9529WAT     H228830   2.359   7.114   6.638
 9530WAT      O28831   9.610   8.696   6.351
 9530WAT     H128832   9.688   8.635   6.362
 9530WAT     H228833   9.626   8.779   6.404
 9531WAT      O28834   7.511   3.341   6.914
 9531WAT     H128835   7.484   3.253   6.877
 9531WAT     H228836   7.569   3.327   6.994
 9532WAT      O28837   4.544   0.806   2.887
 9532WAT     H128838   4.532   0.790   2.985
 9532WAT     H228839   4.478   0.874   2.856
 9533WAT      O28840   9.714   7.191   9.240
 9533WAT     H128841   9.797   7.196   9.184
 9533WAT     H228842   9.711   7.103   9.287
 9534WAT      O28843   9.625   0.684   9.430
 9534WAT     H128844   9.683   0.709   9.353
 9534WAT     H228845   9.659   0.728   9.513
 9535WAT      O28846   2.484   6.600   1.345
 9535WAT     H128847   2.521   6.621   1.435
 9535WAT     H228848   2.384   6.607   1.346
 9536WAT      O28849   9.805   4.552   8.918
 9536WAT     H128850   9.726   4.526   8.861
 9536WAT     H228851   9.881   4.491   8.898
 9537WAT      O28852   7.261   1.499   0.901
 9537WAT     H128853   7.325   1.567   0.865
 9537WAT     H228854   7.180   1.495   0.842
 9538WAT      O28855   0.167   6.814   4.947
 9538WAT     H128856   0.239   6.834   5.013
 9538WAT     H228857   0.085   6.866   4.971
 9539WAT      O28858   3.109   6.754   1.519
 9539WAT     H128859   3.106   6.849   1.489
 9539WAT     H228860   3.080   6.748   1.615
 9540WAT      O28861   3.835   3.002   3.282
 9540WAT     H128862   3.753   3.006   3.338
 9540WAT     H228863   3.853   2.907   3.255
 9541WAT      O28864   0.492   9.650   6.741
 9541WAT     H128865   0.532   9.647   6.650
 9541WAT     H228866   0.401   9.611   6.740
 9542WAT      O28867   8.062   4.142   5.283
 9542WAT     H128868   8.028   4.138   5.377
 9542WAT     H228869   7.987   4.169   5.221
 9543WAT      O28870   3.052   3.783   2.718
 9543WAT     H128871   3.056   3.821   2.810
 9543WAT     H228872   3.044   3.684   2.722
 9544WAT      O28873   6.065   3.504   8.396
 9544WAT     H128874   6.079   3.405   8.394
 9544WAT     H228875   6.097   3.543   8.310
 9545WAT      O28876   3.800   7.085   2.277
 9545WAT     H128877   3.837   7.090   2.183
 9545WAT     H228878   3.780   6.990   2.300
 9546WAT      O28879   0.669   7.644   2.492
 9546WAT     H128880   0.588   7.691   2.458
 9546WAT     H228881   0.701   7.578   2.424
 9547WAT      O28882   2.564   3.811   6.295
 9547WAT     H128883   2.500   3.831   6.221
 9547WAT     H228884   2.658   3.819   6.261
 9548WAT      O28885   1.896   9.241   5.271
 9548WAT     H128886   1.819   9.287   5.315
 9548WAT     H228887   1.960   9.310   5.237
 9549WAT      O28888   2.829   5.242   2.021
 9549WAT     H128889   2.890   5.321   2.018
 9549WAT     H228890   2.874   5.164   1.977
 9550WAT      O28891   2.038   6.760   8.156
 9550WAT     H128892   2.046   6.688   8.087
 9550WAT     H228893   1.971   6.828   8.126
 9551WAT      O28894   5.953   4.139   8.345
 9551WAT     H128895   5.898   4.062   8.378
 9551WAT     H228896   6.021   4.106   8.280
 9552WAT      O28897   2.269   7.349   0.218
 9552WAT     H128898   2.289   7.399   0.135
 9552WAT     H228899   2.244   7.413   0.291
 9553WAT      O28900   5.356   7.988   8.379
 9553WAT     H128901   5.349   8.020   8.473
 9553WAT     H228902   5.280   8.025   8.326
 9554WAT      O28903   0.573   6.774   2.369
 9554WAT     H128904   0.556   6.676   2.355
 9554WAT     H228905   0.612   6.814   2.285
 9555WAT      O28906   2.385   0.613   3.738
 9555WAT     H128907   2.311   0.677   3.760
 9555WAT     H228908   2.378   0.585   3.642
 9556WAT      O28909   5.475   3.195   5.721
 9556WAT     H128910   5.548   3.197   5.653
 9556WAT     H228911   5.513   3.176   5.811
 9557WAT      O28912   3.116   4.515   5.795
 9557WAT     H128913   3.080   4.565   5.874
 9557WAT     H228914   3.214   4.497   5.809
 9558WAT      O28915   2.778   1.672   6.118
 9558WAT     H128916   2.834   1.603   6.164
 9558WAT     H228917   2.835   1.751   6.094
 9559WAT      O28918   0.090   0.001   0.369
 9559WAT     H128919  -0.006   0.025   0.385
 9559WAT     H228920   0.144   0.085   0.359
 9560WAT      O28921   7.880   4.359   6.796
 9560WAT     H128922   7.951   4.367   6.726
 9560WAT     H228923   7.915   4.307   6.873
 9561WAT      O28924   6.196   5.672   4.358
 9561WAT     H128925   6.129   5.743   4.380
 9561WAT     H228926   6.174   5.632   4.269
 9562WAT      O28927   8.735   5.139   9.493
 9562WAT     H128928   8.712   5.051   9.451
 9562WAT     H228929   8.832   5.159   9.478
 9563WAT      O28930   3.663   2.511   4.176
 9563WAT     H128931   3.699   2.546   4.089
 9563WAT     H228932   3.566   2.535   4.184
 9564WAT      O28933   3.055   5.085   0.474
 9564WAT     H128934   3.009   5.025   0.539
 9564WAT     H228935   3.002   5.169   0.463
 9565WAT      O28936   7.786   8.589   9.572
 9565WAT     H128937   7.800   8.498   9.611
 9565WAT     H228938   7.717   8.584   9.500
 9566WAT      O28939   8.558   6.411   6.932
 9566WAT     H128940   8.581   6.339   6.866
 9566WAT     H228941   8.463   6.440   6.917
 9567WAT      O28942   8.824   7.450   9.020
 9567WAT     H128943   8.905   7.422   9.070
 9567WAT     H228944   8.803   7.382   8.950
 9568WAT      O28945   1.306   4.461   8.710
 9568WAT     H128946   1.364   4.387   8.676
 9568WAT     H228947   1.215   4.454   8.669
 9569WAT      O28948   9.254   7.650   0.830
 9569WAT     H128949   9.164   7.628   0.792
 9569WAT     H228950   9.242   7.700   0.916
 9570WAT      O28951   4.555   5.570   2.655
 9570WAT     H128952   4.636   5.627   2.658
 9570WAT     H228953   4.499   5.594   2.575
 9571WAT      O28954   0.188   4.851   0.722
 9571WAT     H128955   0.194   4.863   0.821
 9571WAT     H228956   0.092   4.849   0.695
 9572WAT      O28957   6.786   7.594   3.841
 9572WAT     H128958   6.845   7.559   3.769
 9572WAT     H228959   6.836   7.596   3.927
 9573WAT      O28960   5.444   4.067   2.024
 9573WAT     H128961   5.478   4.036   1.936
 9573WAT     H228962   5.466   4.164   2.036
 9574WAT      O28963   6.533   1.493   2.137
 9574WAT     H128964   6.628   1.485   2.168
 9574WAT     H228965   6.528   1.469   2.040
 9575WAT      O28966   8.434   1.543   1.273
 9575WAT     H128967   8.521   1.502   1.246
 9575WAT     H228968   8.451   1.612   1.344
 9576WAT      O28969   1.402   5.755   9.247
 9576WAT     H128970   1.490   5.725   9.283
 9576WAT     H228971   1.353   5.677   9.209
 9577WAT      O28972   7.266   2.671   6.350
 9577WAT     H128973   7.356   2.706   6.325
 9577WAT     H228974   7.262   2.658   6.449
 9578WAT      O28975   5.308   5.561   5.955
 9578WAT     H128976   5.311   5.504   5.872
 9578WAT     H228977   5.397   5.558   6.000
 9579WAT      O28978   6.571   6.807   3.071
 9579WAT     H128979   6.565   6.806   3.171
 9579WAT     H228980   6.627   6.730   3.041
 9580WAT      O28981   5.071   0.733   5.097
 9580WAT     H128982   4.977   0.700   5.094
 9580WAT     H228983   5.130   0.661   5.133
 9581WAT      O28984   2.337   8.332   1.356
 9581WAT     H128985   2.389   8.416   1.377
 9581WAT     H228986   2.393   8.252   1.379
 9582WAT      O28987   4.172   2.325   6.410
 9582WAT     H128988   4.163   2.417   6.449
 9582WAT     H228989   4.085   2.277   6.418
 9583WAT      O28990   2.859   6.592   1.451
 9583WAT     H128991   2.861   6.529   1.529
 9583WAT     H228992   2.950   6.630   1.436
 9584WAT      O28993   3.210   2.440   3.294
 9584WAT     H128994   3.208   2.376   3.370
 9584WAT     H228995   3.137   2.418   3.229
 9585WAT      O28996   2.253   4.111   4.699
 9585WAT     H128997   2.200   4.033   4.732
 9585WAT     H228998   2.349   4.100   4.725
 9586WAT      O28999   5.306   5.295   6.239
 9586WAT     H129000   5.347   5.382   6.211
 9586WAT     H229001   5.371   5.243   6.293
 9587WAT      O29002   5.065   1.687   6.821
 9587WAT     H129003   5.113   1.608   6.860
 9587WAT     H229004   5.110   1.715   6.736
 9588WAT      O29005   8.961   1.015   1.276
 9588WAT     H129006   9.019   0.933   1.273
 9588WAT     H229007   9.015   1.095   1.248
 9589WAT      O29008   9.407   3.859   4.965
 9589WAT     H129009   9.332   3.830   5.023
 9589WAT     H229010   9.469   3.918   5.016
 9590WAT      O29011   8.854   5.391   5.482
 9590WAT     H129012   8.790   5.384   5.405
 9590WAT     H229013   8.871   5.488   5.502
 9591WAT      O29014   6.651   5.198   2.455
 9591WAT     H129015   6.641   5.162   2.548
 9591WAT     H229016   6.619   5.292   2.452
 9592WAT      O29017   0.766   8.525   0.859
 9592WAT     H129018   0.687   8.482   0.902
 9592WAT     H229019   0.824   8.455   0.817
 9593WAT      O29020   4.732   7.564   9.515
 9593WAT     H129021   4.688   7.500   9.577
 9593WAT     H229022   4.750   7.650   9.562
 9594WAT      O29023   6.142   7.019   3.827
 9594WAT     H129024   6.075   6.958   3.870
 9594WAT     H229025   6.233   6.977   3.831
 9595WAT      O29026   6.668   0.989   9.663
 9595WAT     H129027   6.574   0.956   9.673
 9595WAT     H229028   6.674   1.050   9.584
 9596WAT      O29029   9.531   1.517   9.431
 9596WAT     H129030   9.556   1.588   9.497
 9596WAT     H229031   9.567   1.541   9.341
 9597WAT      O29032   8.099   8.590   2.909
 9597WAT     H129033   8.036   8.520   2.874
 9597WAT     H229034   8.192   8.569   2.879
 9598WAT      O29035   9.286   1.724   7.626
 9598WAT     H129036   9.190   1.742   7.647
 9598WAT     H229037   9.344   1.775   7.690
 9599WAT      O29038   7.797   4.623   1.396
 9599WAT     H129039   7.825   4.532   1.427
 9599WAT     H229040   7.715   4.651   1.447
 9600WAT      O29041   6.848   6.156   4.225
 9600WAT     H129042   6.860   6.058   4.207
 9600WAT     H229043   6.799   6.198   4.149
 9601WAT      O29044   4.543   0.225   6.088
 9601WAT     H129045   4.550   0.126   6.074
 9601WAT     H229046   4.458   0.245   6.138
 9602WAT      O29047   2.443   6.674   4.302
 9602WAT     H129048   2.503   6.740   4.348
 9602WAT     H229049   2.499   6.606   4.255
 9603WAT      O29050   9.507   7.914   6.543
 9603WAT     H129051   9.527   7.822   6.510
 9603WAT     H229052   9.515   7.979   6.468
 9604WAT      O29053   4.667   3.118   1.267
 9604WAT     H129054   4.638   3.214   1.265
 9604WAT     H229055   4.589   3.060   1.289
 9605WAT      O29056   8.232   7.497   2.619
 9605WAT     H129057   8.226   7.550   2.703
 9605WAT     H229058   8.305   7.533   2.561
 9606WAT      O29059   7.338   8.001   8.568
 9606WAT     H129060   7.348   8.100   8.577
 9606WAT     H229061   7.401   7.967   8.500
 9607WAT      O29062   9.449   4.255   7.828
 9607WAT     H129063   9.360   4.238   7.870
 9607WAT     H229064   9.518   4.196   7.871
 9608WAT      O29065   3.192   6.712   1.185
 9608WAT     H129066   3.227   6.733   1.276
 9608WAT     H229067   3.146   6.623   1.187
 9609WAT      O29068   1.594   6.190   2.973
 9609WAT     H129069   1.522   6.155   2.913
 9609WAT     H229070   1.564   6.277   3.013
 9610WAT      O29071   3.729   7.613   3.741
 9610WAT     H129072   3.706   7.551   3.666
 9610WAT     H229073   3.689   7.703   3.723
 9611WAT      O29074   9.188   4.605   4.795
 9611WAT     H129075   9.184   4.543   4.873
 9611WAT     H229076   9.168   4.554   4.711
 9612WAT      O29077   8.648   6.397   1.675
 9612WAT     H129078   8.639   6.304   1.712
 9612WAT     H229079   8.626   6.395   1.577
 9613WAT      O29080   8.999   7.359   4.522
 9613WAT     H129081   9.096   7.378   4.538
 9613WAT     H229082   8.990   7.289   4.451
 9614WAT      O29083   1.390   5.574   3.929
 9614WAT     H129084   1.474   5.534   3.965
 9614WAT     H229085   1.362   5.523   3.847
 9615WAT      O29086   6.097   7.758   3.177
 9615WAT     H129087   6.154   7.826   3.131
 9615WAT     H229088   6.013   7.802   3.209
 9616WAT      O29089   5.001   9.075   6.666
 9616WAT     H129090   5.029   9.070   6.762
 9616WAT     H229091   4.991   8.983   6.629
 9617WAT      O29092   6.096   4.532   1.702
 9617WAT     H129093   6.121   4.460   1.767
 9617WAT     H229094   6.012   4.577   1.733
 9618WAT      O29095   5.044   2.778   0.506
 9618WAT     H129096   4.953   2.766   0.546
 9618WAT     H229097   5.038   2.836   0.425
 9619WAT      O29098   0.666   9.263   6.914
 9619WAT     H129099   0.653   9.293   6.819
 9619WAT     H229100   0.745   9.309   6.954
 9620WAT      O29101   3.092   9.515   5.001
 9620WAT     H129102   3.093   9.464   4.914
 9620WAT     H229103   3.054   9.606   4.985
 9621WAT      O29104   1.883   1.269   3.588
 9621WAT     H129105   1.981   1.262   3.569
 9621WAT     H229106   1.869   1.296   3.683
 9622WAT      O29107   5.255   1.544   4.655
 9622WAT     H129108   5.213   1.531   4.565
 9622WAT     H229109   5.204   1.612   4.707
 9623WAT      O29110   1.352   4.679   0.600
 9623WAT     H129111   1.374   4.761   0.653
 9623WAT     H229112   1.425   4.611   0.610
 9624WAT      O29113   3.003   9.244   6.779
 9624WAT     H129114   2.957   9.162   6.813
 9624WAT     H229115   3.083   9.264   6.835
 9625WAT      O29116   8.390   6.801   0.855
 9625WAT     H129117   8.475   6.749   0.865
 9625WAT     H229118   8.312   6.742   0.878
 9626WAT      O29119   7.349   1.517   0.172
 9626WAT     H129120   7.271   1.577   0.152
 9626WAT     H229121   7.388   1.541   0.261
 9627WAT      O29122   8.761   9.726   9.583
 9627WAT     H129123   8.831   9.796   9.594
 9627WAT     H229124   8.699   9.752   9.509
 9628WAT      O29125   1.190   8.260   3.969
 9628WAT     H129126   1.144   8.294   3.887
 9628WAT     H229127   1.272   8.314   3.986
 9629WAT      O29128   5.775   0.301   3.453
 9629WAT     H129129   5.763   0.344   3.364
 9629WAT     H229130   5.694   0.248   3.477
 9630WAT      O29131   0.614   7.083   8.364
 9630WAT     H129132   0.515   7.071   8.369
 9630WAT     H229133   0.637   7.143   8.287
 9631WAT      O29134   7.031   0.790   3.178
 9631WAT     H129135   7.064   0.818   3.088
 9631WAT     H229136   6.942   0.831   3.195
 9632WAT      O29137   2.859   9.427   9.269
 9632WAT     H129138   2.902   9.339   9.284
 9632WAT     H229139   2.807   9.425   9.184
 9633WAT      O29140   7.595   6.339   5.021
 9633WAT     H129141   7.519   6.396   4.990
 9633WAT     H229142   7.642   6.383   5.097
 9634WAT      O29143   0.553   8.989   5.323
 9634WAT     H129144   0.579   9.025   5.234
 9634WAT     H229145   0.493   8.910   5.311
 9635WAT      O29146   2.958   3.429   4.201
 9635WAT     H129147   2.951   3.504   4.267
 9635WAT     H229148   2.882   3.434   4.136
 9636WAT      O29149   8.514   6.165   2.415
 9636WAT     H129150   8.524   6.074   2.456
 9636WAT     H229151   8.486   6.156   2.320
 9637WAT      O29152   7.234   3.714   6.776
 9637WAT     H129153   7.223   3.807   6.813
 9637WAT     H229154   7.155   3.692   6.720
 9638WAT      O29155   7.722   5.103   6.274
 9638WAT     H129156   7.693   5.140   6.362
 9638WAT     H229157   7.750   5.007   6.286
 9639WAT      O29158   3.107   8.646   5.686
 9639WAT     H129159   3.030   8.707   5.669
 9639WAT     H229160   3.188   8.699   5.712
 9640WAT      O29161   8.991   9.196   8.626
 9640WAT     H129162   9.072   9.186   8.684
 9640WAT     H229163   8.967   9.293   8.620
 9641WAT      O29164   9.437   2.668   0.200
 9641WAT     H129165   9.384   2.708   0.125
 9641WAT     H229166   9.535   2.686   0.185
 9642WAT      O29167   9.119   3.285   7.125
 9642WAT     H129168   9.078   3.200   7.159
 9642WAT     H229169   9.047   3.350   7.102
 9643WAT      O29170   9.070   0.449   3.757
 9643WAT     H129171   9.029   0.359   3.772
 9643WAT     H229172   9.001   0.520   3.774
 9644WAT      O29173   5.085   4.925   7.956
 9644WAT     H129174   5.153   4.858   7.984
 9644WAT     H229175   5.098   5.011   8.006
 9645WAT      O29176   1.327   4.164   7.395
 9645WAT     H129177   1.323   4.084   7.455
 9645WAT     H229178   1.352   4.134   7.303
 9646WAT      O29179   3.166   4.599   8.152
 9646WAT     H129180   3.260   4.565   8.145
 9646WAT     H229181   3.140   4.644   8.067
 9647WAT      O29182   1.028   8.950   5.671
 9647WAT     H129183   1.076   9.028   5.710
 9647WAT     H229184   0.930   8.967   5.671
 9648WAT      O29185   7.949   1.746   5.285
 9648WAT     H129186   7.977   1.831   5.241
 9648WAT     H229187   8.030   1.694   5.312
 9649WAT      O29188   8.824   8.660   4.557
 9649WAT     H129189   8.884   8.721   4.504
 9649WAT     H229190   8.864   8.568   4.559
 9650WAT      O29191   0.327   0.434   6.167
 9650WAT     H129192   0.261   0.501   6.200
 9650WAT     H229193   0.291   0.390   6.085
 9651WAT      O29194   7.195   7.233   1.918
 9651WAT     H129195   7.284   7.197   1.946
 9651WAT     H229196   7.124   7.195   1.977
 9652WAT      O29197   9.888   5.961   1.806
 9652WAT     H129198   9.901   5.867   1.838
 9652WAT     H229199   9.897   6.025   1.883
 9653WAT      O29200   8.483   9.765   6.369
 9653WAT     H129201   8.417   9.699   6.404
 9653WAT     H229202   8.556   9.779   6.436
 9654WAT      O29203   7.405   7.592   4.444
 9654WAT     H129204   7.362   7.561   4.359
 9654WAT     H229205   7.355   7.671   4.480
 9655WAT      O29206   8.946   1.985   0.635
 9655WAT     H129207   8.883   1.944   0.701
 9655WAT     H229208   8.967   2.079   0.662
 9656WAT      O29209   4.229   2.808   2.340
 9656WAT     H129210   4.153   2.778   2.281
 9656WAT     H229211   4.293   2.732   2.353
 9657WAT      O29212   2.051   6.975   9.647
 9657WAT     H129213   2.127   6.925   9.605
 9657WAT     H229214   2.061   7.073   9.626
 9658WAT      O29215   4.029   1.653   4.537
 9658WAT     H129216   3.982   1.565   4.543
 9658WAT     H229217   3.975   1.716   4.481
 9659WAT      O29218   7.222   4.221   0.020
 9659WAT     H129219   7.257   4.132   0.051
 9659WAT     H229220   7.299   4.282   0.000
 9660WAT      O29221   5.817   3.997   3.721
 9660WAT     H129222   5.846   4.073   3.779
 9660WAT     H229223   5.718   3.987   3.725
 9661WAT      O29224   2.377   2.729   8.043
 9661WAT     H129225   2.285   2.760   8.017
 9661WAT     H229226   2.370   2.645   8.096
 9662WAT      O29227   8.896   9.504   7.993
 9662WAT     H129228   8.797   9.492   7.988
 9662WAT     H229229   8.942   9.421   7.961
 9663WAT      O29230   7.016   6.275   7.447
 9663WAT     H129231   6.962   6.237   7.522
 9663WAT     H229232   7.043   6.201   7.384
 9664WAT      O29233   1.147   2.674   5.446
 9664WAT     H129234   1.099   2.587   5.459
 9664WAT     H229235   1.213   2.687   5.520
 9665WAT      O29236   5.956   4.893   2.192
 9665WAT     H129237   5.873   4.853   2.232
 9665WAT     H229238   5.983   4.841   2.111
 9666WAT      O29239   8.911   9.408   5.906
 9666WAT     H129240   8.965   9.391   5.989
 9666WAT     H229241   8.856   9.491   5.919
 9667WAT      O29242   9.144   0.275   5.517
 9667WAT     H129243   9.153   0.232   5.607
 9667WAT     H229244   9.220   0.338   5.502
 9668WAT      O29245   5.476   1.554   3.066
 9668WAT     H129246   5.484   1.470   3.011
 9668WAT     H229247   5.536   1.546   3.146
 9669WAT      O29248   7.604   7.293   1.069
 9669WAT     H129249   7.642   7.376   1.110
 9669WAT     H229250   7.640   7.283   0.976
 9670WAT      O29251   6.447   9.166   5.816
 9670WAT     H129252   6.523   9.107   5.789
 9670WAT     H229253   6.416   9.218   5.737
 9671WAT      O29254   2.290   5.619   6.914
 9671WAT     H129255   2.273   5.574   6.826
 9671WAT     H229256   2.204   5.651   6.953
 9672WAT      O29257   3.350   9.756   6.853
 9672WAT     H129258   3.262   9.785   6.815
 9672WAT     H229259   3.424   9.805   6.807
 9673WAT      O29260   7.290   0.509   1.468
 9673WAT     H129261   7.327   0.419   1.491
 9673WAT     H229262   7.203   0.498   1.420
 9674WAT      O29263   2.832   7.364   4.086
 9674WAT     H129264   2.804   7.340   4.179
 9674WAT     H229265   2.825   7.463   4.073
 9675WAT      O29266   7.695   3.483   3.456
 9675WAT     H129267   7.634   3.407   3.476
 9675WAT     H229268   7.732   3.473   3.364
 9676WAT      O29269   1.553   7.079   5.371
 9676WAT     H129270   1.468   7.044   5.331
 9676WAT     H229271   1.626   7.077   5.302
 9677WAT      O29272   3.051   3.279   7.803
 9677WAT     H129273   3.052   3.302   7.900
 9677WAT     H229274   3.138   3.235   7.779
 9678WAT      O29275   0.058   1.845   2.119
 9678WAT     H129276  -0.040   1.864   2.129
 9678WAT     H229277   0.110   1.930   2.134
 9679WAT      O29278   1.463   8.447   8.467
 9679WAT     H129279   1.425   8.356   8.447
 9679WAT     H229280   1.394   8.504   8.511
 9680WAT      O29281   5.602   5.279   0.194
 9680WAT     H129282   5.631   5.312   0.105
 9680WAT     H229283   5.659   5.202   0.222
 9681WAT      O29284   0.518   8.586   8.524
 9681WAT     H129285   0.478   8.675   8.542
 9681WAT     H229286   0.455   8.514   8.556
 9682WAT      O29287   1.828   4.674   7.885
 9682WAT     H129288   1.923   4.671   7.853
 9682WAT     H229289   1.779   4.744   7.833
 9683WAT      O29290   7.485   2.605   5.276
 9683WAT     H129291   7.561   2.540   5.281
 9683WAT     H229292   7.464   2.638   5.368
 9684WAT      O29293   3.533   8.405   2.238
 9684WAT     H129294   3.469   8.460   2.292
 9684WAT     H229295   3.613   8.459   2.216
 9685WAT      O29296   3.362   7.734   5.829
 9685WAT     H129297   3.338   7.831   5.832
 9685WAT     H229298   3.419   7.716   5.749
 9686WAT      O29299   7.501   9.810   2.653
 9686WAT     H129300   7.454   9.898   2.653
 9686WAT     H229301   7.438   9.738   2.682
 9687WAT      O29302   4.514   3.520   9.376
 9687WAT     H129303   4.422   3.538   9.412
 9687WAT     H229304   4.512   3.525   9.276
 9688WAT      O29305   0.056   7.376   7.842
 9688WAT     H129306   0.110   7.293   7.831
 9688WAT     H229307   0.107   7.443   7.895
 9689WAT      O29308   6.974   0.289   4.933
 9689WAT     H129309   7.015   0.278   4.843
 9689WAT     H229310   6.898   0.354   4.928
 9690WAT      O29311   1.427   6.939   1.021
 9690WAT     H129312   1.404   7.037   1.019
 9690WAT     H229313   1.502   6.921   0.957
 9691WAT      O29314   5.966   6.112   1.721
 9691WAT     H129315   6.003   6.019   1.719
 9691WAT     H229316   5.928   6.135   1.631
 9692WAT      O29317   7.111   2.708   9.371
 9692WAT     H129318   7.203   2.680   9.347
 9692WAT     H229319   7.045   2.651   9.322
 9693WAT      O29320   7.165   9.387   0.717
 9693WAT     H129321   7.223   9.307   0.705
 9693WAT     H229322   7.122   9.411   0.630
 9694WAT      O29323   9.438   3.553   2.877
 9694WAT     H129324   9.398   3.463   2.857
 9694WAT     H229325   9.384   3.599   2.947
 9695WAT      O29326   7.165   8.676   2.137
 9695WAT     H129327   7.072   8.657   2.169
 9695WAT     H229328   7.227   8.604   2.168
 9696WAT      O29329   5.106   0.312   3.140
 9696WAT     H129330   5.112   0.408   3.168
 9696WAT     H229331   5.068   0.307   3.048
 9697WAT      O29332   7.825   2.469   6.551
 9697WAT     H129333   7.923   2.477   6.535
 9697WAT     H229334   7.806   2.484   6.648
 9698WAT      O29335   6.736   4.106   0.323
 9698WAT     H129336   6.709   4.062   0.409
 9698WAT     H229337   6.833   4.089   0.306
 9699WAT      O29338   0.531   6.813   3.586
 9699WAT     H129339   0.564   6.791   3.677
 9699WAT     H229340   0.509   6.729   3.536
 9700WAT      O29341   5.951   2.870   8.552
 9700WAT     H129342   5.865   2.825   8.528
 9700WAT     H229343   5.933   2.953   8.603
 9701WAT      O29344   7.863   1.559   8.116
 9701WAT     H129345   7.764   1.561   8.098
 9701WAT     H229346   7.895   1.650   8.139
 9702WAT      O29347   7.934   0.706   7.340
 9702WAT     H129348   7.910   0.798   7.308
 9702WAT     H229349   7.971   0.653   7.264
 9703WAT      O29350   4.332   8.826   6.842
 9703WAT     H129351   4.411   8.841   6.902
 9703WAT     H229352   4.256   8.790   6.896
 9704WAT      O29353   8.617   0.929   7.680
 9704WAT     H129354   8.617   0.892   7.587
 9704WAT     H229355   8.672   0.870   7.740
 9705WAT      O29356   2.735   3.117   5.894
 9705WAT     H129357   2.704   3.158   5.808
 9705WAT     H229358   2.723   3.018   5.890
 9706WAT      O29359   2.998   0.508   3.372
 9706WAT     H129360   2.911   0.555   3.360
 9706WAT     H229361   3.064   0.543   3.305
 9707WAT      O29362   5.361   5.249   9.224
 9707WAT     H129363   5.337   5.249   9.321
 9707WAT     H229364   5.365   5.155   9.191
 9708WAT      O29365   0.290   0.848   8.797
 9708WAT     H129366   0.343   0.922   8.755
 9708WAT     H229367   0.205   0.885   8.833
 9709WAT      O29368   8.062   6.173   2.088
 9709WAT     H129369   7.997   6.118   2.140
 9709WAT     H229370   8.123   6.222   2.150
 9710WAT      O29371   0.767   8.943   9.872
 9710WAT     H129372   0.867   8.939   9.862
 9710WAT     H229373   0.744   8.964   9.967
 9711WAT      O29374   2.419   6.621   7.233
 9711WAT     H129375   2.418   6.523   7.214
 9711WAT     H229376   2.427   6.671   7.147
 9712WAT      O29377   1.971   8.339   1.146
 9712WAT     H129378   2.001   8.337   1.241
 9712WAT     H229379   1.982   8.248   1.105
 9713WAT      O29380   1.704   7.870   7.200
 9713WAT     H129381   1.608   7.885   7.225
 9713WAT     H229382   1.747   7.810   7.267
 9714WAT      O29383   8.686   2.064   5.194
 9714WAT     H129384   8.717   2.064   5.099
 9714WAT     H229385   8.587   2.079   5.197
 9715WAT      O29386   5.509   7.034   9.522
 9715WAT     H129387   5.458   7.104   9.572
 9715WAT     H229388   5.542   7.073   9.436
 9716WAT      O29389   0.364   1.690   4.955
 9716WAT     H129390   0.457   1.672   4.985
 9716WAT     H229391   0.365   1.739   4.868
 9717WAT      O29392   1.742   0.576   0.766
 9717WAT     H129393   1.750   0.526   0.680
 9717WAT     H229394   1.645   0.590   0.787
 9718WAT      O29395   5.269   1.878   1.871
 9718WAT     H129396   5.306   1.827   1.949
 9718WAT     H229397   5.182   1.919   1.898
 9719WAT      O29398   3.824   0.438   0.237
 9719WAT     H129399   3.896   0.507   0.249
 9719WAT     H229400   3.739   0.484   0.211
 9720WAT      O29401   3.135   2.838   5.841
 9720WAT     H129402   3.105   2.893   5.920
 9720WAT     H229403   3.089   2.749   5.844
 9721WAT      O29404   2.361   7.547   6.062
 9721WAT     H129405   2.279   7.540   6.005
 9721WAT     H229406   2.335   7.574   6.154
 9722WAT      O29407   5.636   9.261   1.737
 9722WAT     H129408   5.700   9.184   1.731
 9722WAT     H229409   5.548   9.233   1.700
 9723WAT      O29410   1.310   9.845   9.528
 9723WAT     H129411   1.224   9.803   9.559
 9723WAT     H229412   1.379   9.774   9.517
 9724WAT      O29413   8.977   1.447   1.849
 9724WAT     H129414   9.075   1.450   1.868
 9724WAT     H229415   8.949   1.533   1.805
 9725WAT      O29416   2.717   4.254   1.198
 9725WAT     H129417   2.641   4.194   1.224
 9725WAT     H229418   2.753   4.227   1.109
 9726WAT      O29419   7.517   2.134   8.094
 9726WAT     H129420   7.459   2.181   8.028
 9726WAT     H229421   7.604   2.183   8.103
 9727WAT      O29422   7.529   8.795   3.248
 9727WAT     H129423   7.504   8.756   3.336
 9727WAT     H229424   7.619   8.763   3.221
 9728WAT      O29425   4.715   7.816   5.242
 9728WAT     H129426   4.785   7.832   5.172
 9728WAT     H229427   4.758   7.792   5.328
 9729WAT      O29428   5.652   5.030   9.251
 9729WAT     H129429   5.661   5.000   9.346
 9729WAT     H229430   5.558   5.016   9.220
 9730WAT      O29431   5.737   8.285   8.477
 9730WAT     H129432   5.669   8.255   8.410
 9730WAT     H229433   5.802   8.211   8.494
 9731WAT      O29434   3.172   8.240   9.065
 9731WAT     H129435   3.127   8.196   9.143
 9731WAT     H229436   3.226   8.318   9.098
 9732WAT      O29437   4.605   0.839   7.875
 9732WAT     H129438   4.628   0.795   7.788
 9732WAT     H229439   4.618   0.937   7.866
 9733WAT      O29440   2.300   5.684   0.026
 9733WAT     H129441   2.369   5.707  -0.042
 9733WAT     H229442   2.282   5.585   0.022
 9734WAT      O29443   0.861   0.324   3.160
 9734WAT     H129444   0.764   0.302   3.174
 9734WAT     H229445   0.906   0.332   3.249
 9735WAT      O29446   4.736   6.594   3.867
 9735WAT     H129447   4.824   6.617   3.909
 9735WAT     H229448   4.717   6.497   3.880
 9736WAT      O29449   4.579   2.123   7.505
 9736WAT     H129450   4.556   2.134   7.602
 9736WAT     H229451   4.659   2.065   7.496
 9737WAT      O29452   7.119   2.140   1.279
 9737WAT     H129453   7.054   2.158   1.205
 9737WAT     H229454   7.074   2.154   1.367
 9738WAT      O29455   4.694   5.142   1.011
 9738WAT     H129456   4.662   5.204   1.083
 9738WAT     H229457   4.778   5.097   1.040
 9739WAT      O29458   4.953   9.248   5.580
 9739WAT     H129459   4.991   9.271   5.490
 9739WAT     H229460   4.954   9.149   5.593
 9740WAT      O29461   0.246   8.061   8.021
 9740WAT     H129462   0.259   8.160   8.020
 9740WAT     H229463   0.307   8.019   7.953
 9741WAT      O29464   2.615   9.124   4.357
 9741WAT     H129465   2.626   9.033   4.317
 9741WAT     H229466   2.619   9.193   4.284
 9742WAT      O29467   4.666   6.588   1.948
 9742WAT     H129468   4.741   6.527   1.921
 9742WAT     H229469   4.645   6.572   2.045
 9743WAT      O29470   0.892   5.973   1.912
 9743WAT     H129471   0.844   5.887   1.890
 9743WAT     H229472   0.844   6.049   1.870
 9744WAT      O29473   8.559   6.958   8.593
 9744WAT     H129474   8.566   6.937   8.691
 9744WAT     H229475   8.630   6.908   8.543
 9745WAT      O29476   6.518   8.339   8.572
 9745WAT     H129477   6.536   8.437   8.579
 9745WAT     H229478   6.584   8.297   8.510
 9746WAT      O29479   0.868   5.419   3.034
 9746WAT     H129480   0.778   5.462   3.032
 9746WAT     H229481   0.867   5.344   3.101
 9747WAT      O29482   8.613   9.115   7.101
 9747WAT     H129483   8.541   9.118   7.031
 9747WAT     H229484   8.608   9.198   7.157
 9748WAT      O29485   6.273   0.078   0.398
 9748WAT     H129486   6.352   0.046   0.346
 9748WAT     H229487   6.292   0.068   0.496
 9749WAT      O29488   4.366   6.075   1.853
 9749WAT     H129489   4.333   6.167   1.834
 9749WAT     H229490   4.400   6.033   1.768
 9750WAT      O29491   4.921   0.624   2.783
 9750WAT     H129492   4.930   0.593   2.878
 9750WAT     H229493   5.002   0.596   2.732
 9751WAT      O29494   5.451   5.705   2.734
 9751WAT     H129495   5.430   5.607   2.743
 9751WAT     H229496   5.367   5.758   2.740
 9752WAT      O29497   1.747   0.950   5.218
 9752WAT     H129498   1.662   0.964   5.270
 9752WAT     H229499   1.821   0.925   5.281
 9753WAT      O29500   0.048   4.842   1.530
 9753WAT     H129501   0.031   4.916   1.464
 9753WAT     H229502  -0.037   4.792   1.547
 9754WAT      O29503   9.484   9.300   1.275
 9754WAT     H129504   9.454   9.207   1.297
 9754WAT     H229505   9.558   9.297   1.207
 9755WAT      O29506   5.827   7.555   5.454
 9755WAT     H129507   5.776   7.470   5.439
 9755WAT     H229508   5.900   7.561   5.386
 9756WAT      O29509   2.899   2.553   2.192
 9756WAT     H129510   2.931   2.555   2.097
 9756WAT     H229511   2.964   2.503   2.248
 9757WAT      O29512   6.360   5.771   4.815
 9757WAT     H129513   6.340   5.739   4.907
 9757WAT     H229514   6.335   5.700   4.749
 9758WAT      O29515   0.681   8.448   6.229
 9758WAT     H129516   0.712   8.469   6.136
 9758WAT     H229517   0.627   8.525   6.264
 9759WAT      O29518   8.504   8.762   0.114
 9759WAT     H129519   8.583   8.805   0.159
 9759WAT     H229520   8.519   8.664   0.107
 9760WAT      O29521   7.582   5.329   9.671
 9760WAT     H129522   7.490   5.334   9.711
 9760WAT     H229523   7.631   5.414   9.689
 9761WAT      O29524   7.409   1.569   5.558
 9761WAT     H129525   7.353   1.648   5.580
 9761WAT     H229526   7.420   1.563   5.458
 9762WAT      O29527   5.847   1.796   8.660
 9762WAT     H129528   5.790   1.867   8.701
 9762WAT     H229529   5.812   1.774   8.569
 9763WAT      O29530   6.509   1.673   0.514
 9763WAT     H129531   6.480   1.607   0.584
 9763WAT     H229532   6.430   1.727   0.484
 9764WAT      O29533   2.657   3.628   9.711
 9764WAT     H129534   2.642   3.617   9.810
 9764WAT     H229535   2.733   3.571   9.682
 9765WAT      O29536   6.363   3.061   5.611
 9765WAT     H129537   6.315   3.129   5.667
 9765WAT     H229538   6.430   3.106   5.553
 9766WAT      O29539   5.664   1.113   7.582
 9766WAT     H129540   5.671   1.098   7.681
 9766WAT     H229541   5.740   1.068   7.536
 9767WAT      O29542   8.780   0.043   0.267
 9767WAT     H129543   8.810   0.010   0.357
 9767WAT     H229544   8.772  -0.034   0.204
 9768WAT      O29545   2.251   0.638   1.315
 9768WAT     H129546   2.291   0.557   1.357
 9768WAT     H229547   2.186   0.610   1.244
 9769WAT      O29548   0.056   3.503   2.973
 9769WAT     H129549   0.077   3.552   3.058
 9769WAT     H229550   0.142   3.475   2.929
 9770WAT      O29551   1.880   4.320   4.713
 9770WAT     H129552   1.789   4.355   4.693
 9770WAT     H229553   1.943   4.397   4.728
 9771WAT      O29554   8.361   6.925   0.616
 9771WAT     H129555   8.388   6.873   0.697
 9771WAT     H229556   8.359   6.864   0.536
 9772WAT      O29557   4.275   8.281   8.356
 9772WAT     H129558   4.280   8.217   8.432
 9772WAT     H229559   4.366   8.316   8.336
 9773WAT      O29560   6.428   4.309   2.277
 9773WAT     H129561   6.498   4.372   2.312
 9773WAT     H229562   6.450   4.284   2.182
 9774WAT      O29563   5.712   5.080   2.300
 9774WAT     H129564   5.753   5.132   2.225
 9774WAT     H229565   5.710   4.983   2.275
 9775WAT      O29566   0.595   2.401   6.367
 9775WAT     H129567   0.564   2.489   6.402
 9775WAT     H229568   0.618   2.410   6.270
 9776WAT      O29569   8.614   6.023   3.686
 9776WAT     H129570   8.587   5.951   3.621
 9776WAT     H229571   8.625   5.984   3.777
 9777WAT      O29572   7.378   5.806   0.650
 9777WAT     H129573   7.409   5.713   0.635
 9777WAT     H229574   7.446   5.870   0.614
 9778WAT      O29575   2.063   3.516   9.141
 9778WAT     H129576   2.157   3.495   9.115
 9778WAT     H229577   2.041   3.472   9.228
 9779WAT      O29578   2.104   2.720   0.558
 9779WAT     H129579   2.063   2.802   0.597
 9779WAT     H229580   2.201   2.716   0.584
 9780WAT      O29581   2.765   9.203   1.483
 9780WAT     H129582   2.724   9.271   1.421
 9780WAT     H229583   2.787   9.246   1.570
 9781WAT      O29584   9.460   3.147   4.467
 9781WAT     H129585   9.458   3.195   4.555
 9781WAT     H229586   9.395   3.191   4.405
 9782WAT      O29587   9.878   9.216   9.609
 9782WAT     H129588   9.899   9.268   9.526
 9782WAT     H229589   9.797   9.159   9.593
 9783WAT      O29590   3.071   2.861   8.144
 9783WAT     H129591   3.073   2.909   8.231
 9783WAT     H229592   3.165   2.850   8.110
 9784WAT      O29593   9.533   6.720   2.652
 9784WAT     H129594   9.605   6.777   2.613
 9784WAT     H229595   9.575   6.650   2.710
 9785WAT      O29596   9.497   8.759   3.996
 9785WAT     H129597   9.459   8.683   3.944
 9785WAT     H229598   9.453   8.845   3.967
 9786WAT      O29599   6.853   5.487   4.983
 9786WAT     H129600   6.952   5.478   4.987
 9786WAT     H229601   6.827   5.535   4.899
 9787WAT      O29602   5.600   5.154   8.915
 9787WAT     H129603   5.564   5.245   8.936
 9787WAT     H229604   5.611   5.145   8.816
 9788WAT      O29605   2.550   0.281   3.140
 9788WAT     H129606   2.555   0.191   3.096
 9788WAT     H229607   2.560   0.352   3.071
 9789WAT      O29608   8.720   6.454   5.783
 9789WAT     H129609   8.771   6.528   5.740
 9789WAT     H229610   8.725   6.372   5.726
 9790WAT      O29611   7.975   5.099   5.483
 9790WAT     H129612   7.883   5.068   5.460
 9790WAT     H229613   7.970   5.182   5.538
 9791WAT      O29614   9.883   6.381   4.718
 9791WAT     H129615   9.878   6.384   4.818
 9791WAT     H229616   9.800   6.420   4.680
 9792WAT      O29617   4.814   9.650   5.598
 9792WAT     H129618   4.755   9.604   5.532
 9792WAT     H229619   4.759   9.712   5.655
 9793WAT      O29620   0.463   2.231   5.600
 9793WAT     H129621   0.379   2.274   5.632
 9793WAT     H229622   0.444   2.175   5.519
 9794WAT      O29623   3.287   8.117   3.998
 9794WAT     H129624   3.227   8.036   3.992
 9794WAT     H229625   3.299   8.143   4.093
 9795WAT      O29626   1.983   1.846   5.772
 9795WAT     H129627   1.978   1.944   5.790
 9795WAT     H229628   1.919   1.822   5.699
 9796WAT      O29629   9.103   7.331   3.677
 9796WAT     H129630   9.073   7.425   3.660
 9796WAT     H229631   9.097   7.278   3.593
 9797WAT      O29632   8.940   6.305   2.116
 9797WAT     H129633   8.884   6.267   2.190
 9797WAT     H229634   9.000   6.376   2.154
 9798WAT      O29635   5.296   7.256   2.262
 9798WAT     H129636   5.266   7.324   2.196
 9798WAT     H229637   5.386   7.221   2.236
 9799WAT      O29638   8.597   9.286   1.610
 9799WAT     H129639   8.590   9.384   1.629
 9799WAT     H229640   8.633   9.272   1.518
 9800WAT      O29641   8.263   3.345   7.393
 9800WAT     H129642   8.282   3.284   7.470
 9800WAT     H229643   8.257   3.291   7.309
 9801WAT      O29644   7.177   5.513   3.131
 9801WAT     H129645   7.249   5.560   3.080
 9801WAT     H229646   7.167   5.420   3.096
 9802WAT      O29647   0.771   1.545   3.173
 9802WAT     H129648   0.683   1.591   3.176
 9802WAT     H229649   0.765   1.458   3.222
 9803WAT      O29650   9.691   7.342   0.842
 9803WAT     H129651   9.747   7.319   0.922
 9803WAT     H229652   9.611   7.394   0.872
 9804WAT      O29653   6.827   0.173   6.915
 9804WAT     H129654   6.845   0.218   7.002
 9804WAT     H229655   6.904   0.191   6.853
 9805WAT      O29656   8.489   7.126   4.532
 9805WAT     H129657   8.527   7.218   4.545
 9805WAT     H229658   8.392   7.127   4.557
 9806WAT      O29659   2.255   1.707   0.536
 9806WAT     H129660   2.311   1.648   0.595
 9806WAT     H229661   2.179   1.654   0.498
 9807WAT      O29662   0.367   1.367   9.328
 9807WAT     H129663   0.414   1.417   9.256
 9807WAT     H229664   0.359   1.425   9.409
 9808WAT      O29665   6.394   3.462   3.659
 9808WAT     H129666   6.399   3.561   3.651
 9808WAT     H229667   6.475   3.429   3.708
 9809WAT      O29668   9.386   4.330   2.532
 9809WAT     H129669   9.451   4.297   2.463
 9809WAT     H229670   9.331   4.403   2.493
 9810WAT      O29671   1.015   1.856   0.839
 9810WAT     H129672   1.001   1.868   0.741
 9810WAT     H229673   1.109   1.880   0.863
 9811WAT      O29674   6.238   2.509   2.924
 9811WAT     H129675   6.234   2.455   3.008
 9811WAT     H229676   6.231   2.449   2.844
 9812WAT      O29677   9.374   5.788   2.060
 9812WAT     H129678   9.275   5.780   2.063
 9812WAT     H229679   9.407   5.755   1.971
 9813WAT      O29680   7.697   4.004   8.097
 9813WAT     H129681   7.679   3.939   8.023
 9813WAT     H229682   7.681   4.097   8.066
 9814WAT      O29683   7.613   4.497   5.083
 9814WAT     H129684   7.527   4.507   5.032
 9814WAT     H229685   7.669   4.427   5.040
 9815WAT      O29686   5.814   5.413   6.970
 9815WAT     H129687   5.770   5.497   6.938
 9815WAT     H229688   5.907   5.434   7.002
 9816WAT      O29689   8.780   9.209   6.452
 9816WAT     H129690   8.764   9.304   6.426
 9816WAT     H229691   8.736   9.190   6.540
 9817WAT      O29692   3.163   5.492   6.158
 9817WAT     H129693   3.240   5.430   6.174
 9817WAT     H229694   3.081   5.438   6.139
 9818WAT      O29695   3.088   7.310   1.527
 9818WAT     H129696   3.075   7.339   1.432
 9818WAT     H229697   3.013   7.345   1.583
 9819WAT      O29698   9.782   6.774   8.755
 9819WAT     H129699   9.725   6.747   8.678
 9819WAT     H229700   9.790   6.873   8.758
 9820WAT      O29701   3.729   2.013   1.305
 9820WAT     H129702   3.691   2.105   1.310
 9820WAT     H229703   3.680   1.953   1.368
 9821WAT      O29704   1.309   9.014   1.474
 9821WAT     H129705   1.398   9.056   1.493
 9821WAT     H229706   1.250   9.081   1.428
 9822WAT      O29707   2.146   9.757   1.850
 9822WAT     H129708   2.067   9.742   1.791
 9822WAT     H229709   2.195   9.671   1.863
 9823WAT      O29710   8.504   7.777   4.472
 9823WAT     H129711   8.512   7.809   4.567
 9823WAT     H229712   8.594   7.775   4.430
 9824WAT      O29713   5.065   2.460   4.733
 9824WAT     H129714   5.103   2.507   4.813
 9824WAT     H229715   5.044   2.526   4.661
 9825WAT      O29716   9.023   0.874   9.849
 9825WAT     H129717   9.112   0.831   9.860
 9825WAT     H229718   8.951   0.805   9.856
 9826WAT      O29719   0.274   5.804   1.253
 9826WAT     H129720   0.198   5.758   1.207
 9826WAT     H229721   0.360   5.782   1.207
 9827WAT      O29722   0.535   0.790   0.138
 9827WAT     H129723   0.471   0.838   0.197
 9827WAT     H229724   0.619   0.844   0.128
 9828WAT      O29725   3.271   1.595   0.883
 9828WAT     H129726   3.339   1.522   0.874
 9828WAT     H229727   3.196   1.579   0.819
 9829WAT      O29728   5.725   4.369   4.825
 9829WAT     H129729   5.805   4.419   4.861
 9829WAT     H229730   5.694   4.303   4.893
 9830WAT      O29731   2.182   1.767   8.536
 9830WAT     H129732   2.162   1.677   8.576
 9830WAT     H229733   2.271   1.799   8.569
 9831WAT      O29734   8.427   8.003   0.507
 9831WAT     H129735   8.357   7.961   0.449
 9831WAT     H229736   8.388   8.081   0.556
 9832WAT      O29737   4.405   1.302   8.133
 9832WAT     H129738   4.450   1.213   8.129
 9832WAT     H229739   4.452   1.366   8.073
 9833WAT      O29740   1.281   0.682   2.172
 9833WAT     H129741   1.328   0.726   2.248
 9833WAT     H229742   1.258   0.588   2.196
 9834WAT      O29743   2.269   1.494   6.737
 9834WAT     H129744   2.190   1.544   6.702
 9834WAT     H229745   2.314   1.445   6.662
 9835WAT      O29746   2.292   1.611   6.039
 9835WAT     H129747   2.240   1.545   5.986
 9835WAT     H229748   2.367   1.565   6.086
 9836WAT      O29749   5.855   8.289   6.167
 9836WAT     H129750   5.765   8.318   6.201
 9836WAT     H229751   5.850   8.275   6.068
 9837WAT      O29752   9.178   2.910   6.291
 9837WAT     H129753   9.164   2.954   6.202
 9837WAT     H229754   9.209   2.978   6.357
 9838WAT      O29755   0.867   5.495   1.122
 9838WAT     H129756   0.943   5.560   1.127
 9838WAT     H229757   0.900   5.407   1.090
 9839WAT      O29758   4.880   0.700   6.293
 9839WAT     H129759   4.793   0.737   6.260
 9839WAT     H229760   4.878   0.600   6.287
 9840WAT      O29761   1.500   4.682   2.812
 9840WAT     H129762   1.490   4.779   2.791
 9840WAT     H229763   1.528   4.633   2.729
 9841WAT      O29764   4.949   0.706   1.931
 9841WAT     H129765   4.977   0.632   1.869
 9841WAT     H229766   4.851   0.723   1.920
 9842WAT      O29767   9.422   8.390   9.212
 9842WAT     H129768   9.490   8.435   9.155
 9842WAT     H229769   9.332   8.400   9.171
 9843WAT      O29770   2.772   3.786   1.715
 9843WAT     H129771   2.837   3.730   1.766
 9843WAT     H229772   2.679   3.760   1.741
 9844WAT      O29773   8.967   3.375   2.609
 9844WAT     H129774   9.029   3.403   2.682
 9844WAT     H229775   9.019   3.358   2.526
 9845WAT      O29776   8.257   9.210   1.933
 9845WAT     H129777   8.228   9.170   1.846
 9845WAT     H229778   8.356   9.205   1.940
 9846WAT      O29779   3.688   9.148   0.671
 9846WAT     H129780   3.750   9.116   0.600
 9846WAT     H229781   3.603   9.181   0.630
 9847WAT      O29782   0.142   7.547   5.438
 9847WAT     H129783   0.156   7.451   5.463
 9847WAT     H229784   0.230   7.590   5.420
 9848WAT      O29785   9.181   8.152   9.451
 9848WAT     H129786   9.184   8.074   9.514
 9848WAT     H229787   9.246   8.138   9.377
 9849WAT      O29788   2.129   9.453   2.108
 9849WAT     H129789   2.040   9.432   2.066
 9849WAT     H229790   2.117   9.521   2.180
 9850WAT      O29791   6.325   6.196   8.011
 9850WAT     H129792   6.281   6.178   8.099
 9850WAT     H229793   6.255   6.211   7.941
 9851WAT      O29794   9.683   8.324   2.373
 9851WAT     H129795   9.760   8.304   2.434
 9851WAT     H229796   9.614   8.251   2.382
 9852WAT      O29797   7.012   7.423   8.492
 9852WAT     H129798   7.006   7.362   8.413
 9852WAT     H229799   7.045   7.513   8.463
 9853WAT      O29800   5.447   1.340   3.375
 9853WAT     H129801   5.404   1.422   3.413
 9853WAT     H229802   5.400   1.314   3.290
 9854WAT      O29803   6.314   1.490   9.004
 9854WAT     H129804   6.348   1.584   9.013
 9854WAT     H229805   6.384   1.426   9.035
 9855WAT      O29806   8.380   0.790   7.300
 9855WAT     H129807   8.419   0.882   7.296
 9855WAT     H229808   8.346   0.765   7.209
 9856WAT      O29809   9.055   6.206   7.225
 9856WAT     H129810   9.069   6.250   7.314
 9856WAT     H229811   8.976   6.248   7.180
 9857WAT      O29812   5.698   4.546   2.224
 9857WAT     H129813   5.671   4.465   2.172
 9857WAT     H229814   5.797   4.548   2.233
 9858WAT      O29815   3.548   1.556   8.590
 9858WAT     H129816   3.635   1.569   8.638
 9858WAT     H229817   3.509   1.467   8.615
 9859WAT      O29818   3.927   6.873   3.401
 9859WAT     H129819   3.972   6.787   3.423
 9859WAT     H229820   3.902   6.919   3.487
 9860WAT      O29821   3.910   3.847   6.210
 9860WAT     H129822   3.862   3.792   6.142
 9860WAT     H229823   3.851   3.863   6.289
 9861WAT      O29824   6.110   9.279   3.290
 9861WAT     H129825   6.017   9.255   3.319
 9861WAT     H229826   6.145   9.351   3.349
 9862WAT      O29827   3.369   8.555   2.372
 9862WAT     H129828   3.361   8.638   2.316
 9862WAT     H229829   3.362   8.579   2.469
 9863WAT      O29830   4.264   5.765   6.036
 9863WAT     H129831   4.312   5.852   6.026
 9863WAT     H229832   4.307   5.711   6.108
 9864WAT      O29833   1.678   4.809   8.912
 9864WAT     H129834   1.664   4.900   8.951
 9864WAT     H229835   1.631   4.742   8.968
 9865WAT      O29836   8.192   0.963   4.571
 9865WAT     H129837   8.161   0.971   4.665
 9865WAT     H229838   8.112   0.950   4.511
 9866WAT      O29839   2.579   7.965   2.432
 9866WAT     H129840   2.593   7.910   2.350
 9866WAT     H229841   2.662   7.965   2.487
 9867WAT      O29842   3.118   6.641   9.311
 9867WAT     H129843   3.040   6.606   9.362
 9867WAT     H229844   3.096   6.640   9.213
 9868WAT      O29845   2.390   6.465   3.208
 9868WAT     H129846   2.429   6.554   3.231
 9868WAT     H229847   2.292   6.466   3.225
 9869WAT      O29848   5.839   1.477   4.311
 9869WAT     H129849   5.777   1.427   4.251
 9869WAT     H229850   5.832   1.441   4.404
 9870WAT      O29851   3.199   5.311   0.383
 9870WAT     H129852   3.196   5.216   0.414
 9870WAT     H229853   3.277   5.324   0.322
 9871WAT      O29854   4.258   2.408   8.921
 9871WAT     H129855   4.239   2.464   9.002
 9871WAT     H229856   4.355   2.381   8.923
 9872WAT      O29857   1.373   4.667   2.527
 9872WAT     H129858   1.464   4.659   2.568
 9872WAT     H229859   1.329   4.577   2.526
 9873WAT      O29860   0.228   6.448   4.061
 9873WAT     H129861   0.327   6.434   4.061
 9873WAT     H229862   0.206   6.535   4.106
 9874WAT      O29863   3.922   4.646   0.954
 9874WAT     H129864   3.880   4.577   0.895
 9874WAT     H229865   3.856   4.718   0.974
 9875WAT      O29866   5.042   7.814   3.436
 9875WAT     H129867   5.042   7.912   3.414
 9875WAT     H229868   5.042   7.760   3.352
 9876WAT      O29869   9.812   7.122   3.570
 9876WAT     H129870   9.738   7.074   3.525
 9876WAT     H229871   9.848   7.066   3.645
 9877WAT      O29872   8.755   6.827   8.432
 9877WAT     H129873   8.747   6.740   8.383
 9877WAT     H229874   8.799   6.895   8.372
 9878WAT      O29875   8.446   1.202   9.153
 9878WAT     H129876   8.499   1.210   9.069
 9878WAT     H229877   8.361   1.152   9.134
 9879WAT      O29878   3.191  -0.001   3.768
 9879WAT     H129879   3.252   0.073   3.738
 9879WAT     H229880   3.122   0.036   3.830
 9880WAT      O29881   6.508   4.242   2.031
 9880WAT     H129882   6.510   4.280   1.939
 9880WAT     H229883   6.541   4.147   2.029
 9881WAT      O29884   4.400   2.267   2.499
 9881WAT     H129885   4.369   2.278   2.404
 9881WAT     H229886   4.490   2.224   2.500
 9882WAT      O29887   0.087   3.124   8.614
 9882WAT     H129888   0.073   3.038   8.565
 9882WAT     H229889   0.003   3.149   8.662
 9883WAT      O29890   9.129   4.390   3.006
 9883WAT     H129891   9.153   4.486   3.019
 9883WAT     H229892   9.162   4.359   2.917
 9884WAT      O29893   9.092   3.652   3.484
 9884WAT     H129894   8.997   3.647   3.516
 9884WAT     H229895   9.116   3.747   3.466
 9885WAT      O29896   0.063   8.756   1.063
 9885WAT     H129897   0.006   8.798   0.992
 9885WAT     H229898   0.048   8.802   1.150
 9886WAT      O29899   5.840   5.675   8.638
 9886WAT     H129900   5.772   5.733   8.682
 9886WAT     H229901   5.879   5.723   8.559
 9887WAT      O29902   4.882   6.192   2.676
 9887WAT     H129903   4.877   6.260   2.603
 9887WAT     H229904   4.791   6.153   2.691
 9888WAT      O29905   2.927   9.216   2.833
 9888WAT     H129906   2.940   9.126   2.790
 9888WAT     H229907   2.855   9.210   2.901
 9889WAT      O29908   4.231   7.795   5.549
 9889WAT     H129909   4.148   7.804   5.492
 9889WAT     H229910   4.286   7.878   5.541
 9890WAT      O29911   3.328   6.218   2.578
 9890WAT     H129912   3.337   6.310   2.614
 9890WAT     H229913   3.235   6.185   2.596
 9891WAT      O29914   3.143   9.082   2.254
 9891WAT     H129915   3.079   9.052   2.183
 9891WAT     H229916   3.093   9.108   2.336
 9892WAT      O29917   3.411   7.671   3.800
 9892WAT     H129918   3.464   7.755   3.785
 9892WAT     H229919   3.400   7.622   3.714
 9893WAT      O29920   9.853   8.766   2.469
 9893WAT     H129921   9.865   8.760   2.568
 9893WAT     H229922   9.761   8.801   2.449
 9894WAT      O29923   8.853   2.775   3.800
 9894WAT     H129924   8.937   2.821   3.771
 9894WAT     H229925   8.774   2.825   3.767
 9895WAT      O29926   3.951   2.678   8.456
 9895WAT     H129927   3.904   2.590   8.443
 9895WAT     H229928   3.907   2.729   8.529
 9896WAT      O29929   6.547   4.638   5.834
 9896WAT     H129930   6.546   4.723   5.886
 9896WAT     H229931   6.483   4.573   5.875
 9897WAT      O29932   9.456   6.569   9.478
 9897WAT     H129933   9.534   6.548   9.538
 9897WAT     H229934   9.372   6.567   9.531
 9898WAT      O29935   6.620   0.248   1.681
 9898WAT     H129936   6.613   0.229   1.779
 9898WAT     H229937   6.558   0.322   1.657
 9899WAT      O29938   2.465   7.877   2.167
 9899WAT     H129939   2.555   7.894   2.126
 9899WAT     H229940   2.437   7.783   2.150
 9900WAT      O29941   7.009   3.413   7.290
 9900WAT     H129942   6.928   3.454   7.248
 9900WAT     H229943   7.091   3.443   7.242
 9901WAT      O29944   1.068   5.066   9.541
 9901WAT     H129945   1.092   5.121   9.621
 9901WAT     H229946   1.041   4.975   9.571
 9902WAT      O29947   6.010   0.986   4.189
 9902WAT     H129948   6.002   1.066   4.249
 9902WAT     H229949   5.980   1.011   4.097
 9903WAT      O29950   1.586   4.486   6.449
 9903WAT     H129951   1.627   4.575   6.433
 9903WAT     H229952   1.506   4.495   6.508
 9904WAT      O29953   0.986   7.867   6.419
 9904WAT     H129954   0.973   7.948   6.477
 9904WAT     H229955   1.083   7.853   6.403
 9905WAT      O29956   6.479   1.163   7.970
 9905WAT     H129957   6.563   1.188   8.018
 9905WAT     H229958   6.451   1.239   7.910
 9906WAT      O29959   9.011   9.654   9.285
 9906WAT     H129960   8.978   9.594   9.212
 9906WAT     H229961   8.982   9.747   9.267
 9907WAT      O29962   3.718   9.430   5.118
 9907WAT     H129963   3.631   9.429   5.167
 9907WAT     H229964   3.729   9.517   5.070
 9908WAT      O29965   3.668   1.723   0.665
 9908WAT     H129966   3.591   1.755   0.609
 9908WAT     H229967   3.729   1.800   0.686
 9909WAT      O29968   3.808   3.273   7.864
 9909WAT     H129969   3.880   3.244   7.801
 9909WAT     H229970   3.824   3.233   7.954
 9910WAT      O29971   2.730   6.289   7.434
 9910WAT     H129972   2.819   6.256   7.464
 9910WAT     H229973   2.690   6.224   7.370
 9911WAT      O29974   5.697   6.988   9.239
 9911WAT     H129975   5.673   7.078   9.203
 9911WAT     H229976   5.643   6.918   9.192
 9912WAT      O29977   4.634   3.638   0.418
 9912WAT     H129978   4.629   3.721   0.474
 9912WAT     H229979   4.712   3.583   0.447
 9913WAT      O29980   3.479   3.957   4.381
 9913WAT     H129981   3.388   3.924   4.407
 9913WAT     H229982   3.488   3.952   4.281
 9914WAT      O29983   0.496   8.104   8.977
 9914WAT     H129984   0.577   8.128   9.031
 9914WAT     H229985   0.523   8.080   8.884
 9915WAT      O29986   4.574   3.238   1.557
 9915WAT     H129987   4.657   3.254   1.611
 9915WAT     H229988   4.596   3.242   1.460
 9916WAT      O29989   9.039   0.368   6.419
 9916WAT     H129990   9.024   0.275   6.452
 9916WAT     H229991   9.058   0.428   6.497
 9917WAT      O29992   2.524   4.319   8.822
 9917WAT     H129993   2.431   4.291   8.845
 9917WAT     H229994   2.521   4.402   8.765
 9918WAT      O29995   9.268   0.660   4.715
 9918WAT     H129996   9.261   0.573   4.665
 9918WAT     H229997   9.321   0.725   4.661
 9919WAT      O29998   8.297   0.394   7.543
 9919WAT     H129999   8.326   0.323   7.607
 9919WAT     H230000   8.363   0.469   7.544
 9920WAT      O30001   9.573   6.189   6.095
 9920WAT     H130002   9.593   6.107   6.041
 9920WAT     H230003   9.538   6.261   6.035
 9921WAT      O30004   9.581   2.762   2.657
 9921WAT     H130005   9.541   2.767   2.748
 9921WAT     H230006   9.526   2.816   2.593
 9922WAT      O30007   3.524   3.443   3.081
 9922WAT     H130008   3.508   3.438   2.983
 9922WAT     H230009   3.612   3.401   3.103
 9923WAT      O30010   1.761   8.012   9.358
 9923WAT     H130011   1.820   8.044   9.432
 9923WAT     H230012   1.807   8.026   9.270
 9924WAT      O30013   2.688   9.443   1.719
 9924WAT     H130014   2.646   9.362   1.759
 9924WAT     H230015   2.728   9.499   1.792
 9925WAT      O30016   8.226   7.185   4.701
 9925WAT     H130017   8.193   7.104   4.749
 9925WAT     H230018   8.148   7.235   4.663
 9926WAT      O30019   7.219   4.560   3.107
 9926WAT     H130020   7.244   4.470   3.143
 9926WAT     H230021   7.302   4.612   3.086
 9927WAT      O30022   7.320   4.681   8.952
 9927WAT     H130023   7.400   4.626   8.976
 9927WAT     H230024   7.250   4.622   8.911
 9928WAT      O30025   1.411   1.889   9.229
 9928WAT     H130026   1.466   1.810   9.200
 9928WAT     H230027   1.342   1.859   9.295
 9929WAT      O30028   2.872   6.380   4.886
 9929WAT     H130029   2.892   6.328   4.802
 9929WAT     H230030   2.958   6.407   4.929
 9930WAT      O30031   6.020   9.543   3.163
 9930WAT     H130032   6.021   9.476   3.237
 9930WAT     H230033   6.012   9.496   3.075
 9931WAT      O30034   8.700   3.484   1.646
 9931WAT     H130035   8.722   3.493   1.549
 9931WAT     H230036   8.748   3.554   1.698
 9932WAT      O30037   8.660   2.262   5.447
 9932WAT     H130038   8.571   2.286   5.487
 9932WAT     H230039   8.656   2.275   5.348
 9933WAT      O30040   7.122   2.272   7.696
 9933WAT     H130041   7.026   2.294   7.678
 9933WAT     H230042   7.181   2.340   7.651
 9934WAT      O30043   3.259   0.033   3.228
 9934WAT     H130044   3.225  -0.028   3.300
 9934WAT     H230045   3.187   0.099   3.205
 9935WAT      O30046   3.749   8.415   0.746
 9935WAT     H130047   3.816   8.476   0.703
 9935WAT     H230048   3.738   8.441   0.842
 9936WAT      O30049   9.230   0.209   1.146
 9936WAT     H130050   9.216   0.287   1.207
 9936WAT     H230051   9.327   0.199   1.125
 9937WAT      O30052   3.792   1.974   2.370
 9937WAT     H130053   3.842   1.923   2.439
 9937WAT     H230054   3.732   1.911   2.320
 9938WAT      O30055   0.284   5.326   4.982
 9938WAT     H130056   0.257   5.400   5.044
 9938WAT     H230057   0.274   5.238   5.028
 9939WAT      O30058   2.766   0.602   2.489
 9939WAT     H130059   2.856   0.645   2.481
 9939WAT     H230060   2.778   0.503   2.500
 9940WAT      O30061   2.465   2.513   1.609
 9940WAT     H130062   2.413   2.535   1.527
 9940WAT     H230063   2.556   2.480   1.584
 9941WAT      O30064   1.029   3.090   5.608
 9941WAT     H130065   1.005   2.994   5.626
 9941WAT     H230066   0.960   3.150   5.648
 9942WAT      O30067   5.327   4.215   8.866
 9942WAT     H130068   5.242   4.260   8.837
 9942WAT     H230069   5.402   4.242   8.806
 9943WAT      O30070   8.804   9.040   9.397
 9943WAT     H130071   8.792   9.093   9.482
 9943WAT     H230072   8.804   8.943   9.418
 9944WAT      O30073   1.679   5.150   0.882
 9944WAT     H130074   1.658   5.118   0.974
 9944WAT     H230075   1.600   5.133   0.822
 9945WAT      O30076   1.192   9.466   3.266
 9945WAT     H130077   1.208   9.367   3.277
 9945WAT     H230078   1.277   9.511   3.239
 9946WAT      O30079   2.018   3.153   4.775
 9946WAT     H130080   2.007   3.058   4.746
 9946WAT     H230081   2.115   3.178   4.771
 9947WAT      O30082   3.093   2.857   8.988
 9947WAT     H130083   3.005   2.841   8.944
 9947WAT     H230084   3.088   2.827   9.084
 9948WAT      O30085   4.668   5.252   3.639
 9948WAT     H130086   4.642   5.242   3.543
 9948WAT     H230087   4.684   5.161   3.679
 9949WAT      O30088   8.050   8.311   2.869
 9949WAT     H130089   8.090   8.307   2.960
 9949WAT     H230090   8.122   8.310   2.800
 9950WAT      O30091   8.927   7.205   7.871
 9950WAT     H130092   9.021   7.186   7.900
 9950WAT     H230093   8.927   7.226   7.773
 9951WAT      O30094   6.485   0.544   7.550
 9951WAT     H130095   6.572   0.507   7.584
 9951WAT     H230096   6.422   0.557   7.627
 9952WAT      O30097   5.039   9.581   8.684
 9952WAT     H130098   4.965   9.568   8.619
 9952WAT     H230099   5.082   9.670   8.669
 9953WAT      O30100   3.960   3.635   4.809
 9953WAT     H130101   4.016   3.716   4.791
 9953WAT     H230102   4.018   3.561   4.843
 9954WAT      O30103   4.536   2.811   5.031
 9954WAT     H130104   4.483   2.852   5.105
 9954WAT     H230105   4.527   2.867   4.948
 9955WAT      O30106   8.023   7.666   4.735
 9955WAT     H130107   8.119   7.646   4.719
 9955WAT     H230108   7.987   7.721   4.659
 9956WAT      O30109   4.112   5.760   7.433
 9956WAT     H130110   4.174   5.795   7.363
 9956WAT     H230111   4.160   5.694   7.490
 9957WAT      O30112   3.344   3.922   7.196
 9957WAT     H130113   3.299   4.011   7.200
 9957WAT     H230114   3.374   3.895   7.288
 9958WAT      O30115   3.604   1.873   9.463
 9958WAT     H130116   3.631   1.796   9.521
 9958WAT     H230117   3.660   1.874   9.381
 9959WAT      O30118   0.796   0.246   2.155
 9959WAT     H130119   0.840   0.230   2.067
 9959WAT     H230120   0.722   0.180   2.168
 9960WAT      O30121   7.588   8.775   2.096
 9960WAT     H130122   7.684   8.778   2.124
 9960WAT     H230123   7.553   8.682   2.108
 9961WAT      O30124   4.509   8.250   2.951
 9961WAT     H130125   4.542   8.198   2.873
 9961WAT     H230126   4.417   8.284   2.932
 9962WAT      O30127   5.976   5.662   1.510
 9962WAT     H130128   6.059   5.662   1.567
 9962WAT     H230129   5.996   5.705   1.422
 9963WAT      O30130   2.523   3.303   3.271
 9963WAT     H130131   2.429   3.294   3.236
 9963WAT     H230132   2.526   3.375   3.340
 9964WAT      O30133   9.662   5.574   4.572
 9964WAT     H130134   9.709   5.632   4.505
 9964WAT     H230135   9.579   5.619   4.602
 9965WAT      O30136   7.077   7.350   7.772
 9965WAT     H130137   7.038   7.262   7.800
 9965WAT     H230138   7.030   7.382   7.690
 9966WAT      O30139   1.599   8.256   3.088
 9966WAT     H130140   1.644   8.198   3.020
 9966WAT     H230141   1.584   8.204   3.172
 9967WAT      O30142   7.575   8.642   9.387
 9967WAT     H130143   7.551   8.617   9.293
 9967WAT     H230144   7.494   8.677   9.434
 9968WAT      O30145   0.770   7.993   4.539
 9968WAT     H130146   0.713   7.955   4.611
 9968WAT     H230147   0.803   7.919   4.480
 9969WAT      O30148   0.174   8.535   9.532
 9969WAT     H130149   0.074   8.534   9.529
 9969WAT     H230150   0.205   8.525   9.626
 9970WAT      O30151   0.479   1.412   0.943
 9970WAT     H130152   0.433   1.405   0.854
 9970WAT     H230153   0.410   1.423   1.014
 9971WAT      O30154   8.929   7.900   5.018
 9971WAT     H130155   8.932   7.905   4.918
 9971WAT     H230156   8.978   7.818   5.049
 9972WAT      O30157   5.694   1.573   3.513
 9972WAT     H130158   5.778   1.615   3.546
 9972WAT     H230159   5.655   1.515   3.584
 9973WAT      O30160   7.188   9.634   6.849
 9973WAT     H130161   7.213   9.541   6.876
 9973WAT     H230162   7.103   9.660   6.894
 9974WAT      O30163   2.008   6.342   4.131
 9974WAT     H130164   2.098   6.376   4.156
 9974WAT     H230165   1.998   6.248   4.164
 9975WAT      O30166   5.523   0.215   1.263
 9975WAT     H130167   5.531   0.238   1.166
 9975WAT     H230168   5.435   0.248   1.297
 9976WAT      O30169   3.848   2.405   2.162
 9976WAT     H130170   3.825   2.446   2.073
 9976WAT     H230171   3.851   2.305   2.152
 9977WAT      O30172   0.145   8.347   1.340
 9977WAT     H130173   0.140   8.432   1.393
 9977WAT     H230174   0.206   8.282   1.385
 9978WAT      O30175   3.181   6.051   4.447
 9978WAT     H130176   3.091   6.008   4.457
 9978WAT     H230177   3.234   6.038   4.532
 9979WAT      O30178   2.427   0.074   2.131
 9979WAT     H130179   2.333   0.040   2.127
 9979WAT     H230180   2.432   0.151   2.193
 9980WAT      O30181   4.037   4.755   5.438
 9980WAT     H130182   4.082   4.711   5.360
 9980WAT     H230183   3.974   4.825   5.404
 9981WAT      O30184   9.728   9.519   0.292
 9981WAT     H130185   9.660   9.549   0.359
 9981WAT     H230186   9.816   9.507   0.337
 9982WAT      O30187   3.638   4.433   9.802
 9982WAT     H130188   3.691   4.354   9.834
 9982WAT     H230189   3.660   4.452   9.707
 9983WAT      O30190   7.570   5.741   4.240
 9983WAT     H130191   7.636   5.799   4.287
 9983WAT     H230192   7.601   5.725   4.146
 9984WAT      O30193   6.794   9.239   2.642
 9984WAT     H130194   6.750   9.152   2.664
 9984WAT     H230195   6.835   9.277   2.724
 9985WAT      O30196   7.776   2.373   0.009
 9985WAT     H130197   7.785   2.438  -0.066
 9985WAT     H230198   7.699   2.400   0.068
 9986WAT      O30199   5.936   7.191   8.530
 9986WAT     H130200   5.901   7.112   8.479
 9986WAT     H230201   6.032   7.174   8.556
 9987WAT      O30202   8.175   6.350   9.517
 9987WAT     H130203   8.105   6.421   9.513
 9987WAT     H230204   8.186   6.318   9.612
 9988WAT      O30205   6.880   2.034   6.884
 9988WAT     H130206   6.808   1.998   6.942
 9988WAT     H230207   6.961   2.054   6.939
 9989WAT      O30208   9.833   8.939   7.051
 9989WAT     H130209   9.806   8.921   6.957
 9989WAT     H230210   9.761   8.992   7.097
 9990WAT      O30211   4.636   7.706   1.018
 9990WAT     H130212   4.710   7.681   1.081
 9990WAT     H230213   4.557   7.647   1.034
 9991WAT      O30214   2.366   3.613   7.699
 9991WAT     H130215   2.270   3.604   7.722
 9991WAT     H230216   2.404   3.523   7.677
 9992WAT      O30217   0.784   6.780   6.762
 9992WAT     H130218   0.829   6.859   6.803
 9992WAT     H230219   0.789   6.787   6.662
 9993WAT      O30220   7.592   6.407   1.362
 9993WAT     H130221   7.594   6.504   1.386
 9993WAT     H230222   7.542   6.356   1.432
 9994WAT      O30223   4.756   6.321   3.806
 9994WAT     H130224   4.696   6.277   3.873
 9994WAT     H230225   4.820   6.254   3.768
 9995WAT      O30226   7.533   8.866   0.402
 9995WAT     H130227   7.539   8.931   0.478
 9995WAT     H230228   7.437   8.849   0.381
 9996WAT      O30229   9.177   0.559   1.998
 9996WAT     H130230   9.148   0.600   2.085
 9996WAT     H230231   9.096   0.530   1.947
 9997WAT      O30232   7.597   2.897   7.659
 9997WAT     H130233   7.563   2.857   7.744
 9997WAT     H230234   7.543   2.861   7.582
 9998WAT      O30235   8.955   6.228   3.394
 9998WAT     H130236   8.944   6.132   3.419
 9998WAT     H230237   9.042   6.262   3.428
 9999WAT      O30238   7.107   3.018   4.774
 9999WAT     H130239   7.035   3.082   4.801
 9999WAT     H230240   7.193   3.067   4.762
10000WAT      O30241   0.235   2.631   5.208
10000WAT     H130242   0.312   2.571   5.186
10000WAT     H230243   0.178   2.587   5.278
10001WAT      O30244   5.657   9.544   7.379
10001WAT     H130245   5.664   9.556   7.479
10001WAT     H230246   5.569   9.502   7.357
10002WAT      O30247   2.154   3.877   9.854
10002WAT     H130248   2.126   3.959   9.903
10002WAT     H230249   2.241   3.843   9.891
10003WAT      O30250   1.952   4.058   7.978
10003WAT     H130251   1.986   4.037   7.886
10003WAT     H230252   1.913   3.976   8.019
10004WAT      O30253   4.789   4.419   6.984
10004WAT     H130254   4.705   4.473   6.996
10004WAT     H230255   4.818   4.382   7.072
10005WAT      O30256   1.374   1.285   5.657
10005WAT     H130257   1.365   1.314   5.752
10005WAT     H230258   1.303   1.330   5.602
10006WAT      O30259   9.548   3.775   7.756
10006WAT     H130260   9.622   3.834   7.725
10006WAT     H230261   9.526   3.795   7.851
10007WAT      O30262   5.551   9.746   8.234
10007WAT     H130263   5.552   9.646   8.236
10007WAT     H230264   5.597   9.778   8.152
10008WAT      O30265   2.692   5.780   8.679
10008WAT     H130266   2.624   5.850   8.701
10008WAT     H230267   2.655   5.689   8.701
10009WAT      O30268   8.187   2.367   0.741
10009WAT     H130269   8.279   2.384   0.776
10009WAT     H230270   8.165   2.270   0.750
10010WAT      O30271   0.092   3.317   5.349
10010WAT     H130272   0.020   3.249   5.332
10010WAT     H230273   0.085   3.351   5.443
10011WAT      O30274   3.660   9.629   3.769
10011WAT     H130275   3.583   9.633   3.832
10011WAT     H230276   3.640   9.567   3.694
10012WAT      O30277   6.775   0.318   0.465
10012WAT     H130278   6.696   0.291   0.520
10012WAT     H230279   6.858   0.316   0.522
10013WAT      O30280   2.713   3.746   2.329
10013WAT     H130281   2.757   3.745   2.239
10013WAT     H230282   2.622   3.787   2.321
10014WAT      O30283   4.285   7.708   6.876
10014WAT     H130284   4.209   7.650   6.903
10014WAT     H230285   4.304   7.774   6.949
10015WAT      O30286   7.966   7.264   8.019
10015WAT     H130287   7.926   7.175   8.043
10015WAT     H230288   8.024   7.296   8.094
10016WAT      O30289   5.905   1.447   3.151
10016WAT     H130290   5.825   1.502   3.177
10016WAT     H230291   5.987   1.486   3.193
10017WAT      O30292   3.434   8.874   3.106
10017WAT     H130293   3.393   8.829   3.186
10017WAT     H230294   3.452   8.969   3.127
10018WAT      O30295   0.865   1.084   1.834
10018WAT     H130296   0.939   1.086   1.768
10018WAT     H230297   0.780   1.115   1.790
10019WAT      O30298   7.919   8.625   6.589
10019WAT     H130299   7.879   8.705   6.633
10019WAT     H230300   7.994   8.589   6.645
10020WAT      O30301   5.892   7.437   2.391
10020WAT     H130302   5.796   7.464   2.404
10020WAT     H230303   5.896   7.361   2.327
10021WAT      O30304   1.675   0.405   0.125
10021WAT     H130305   1.672   0.381   0.028
10021WAT     H230306   1.616   0.484   0.141
10022WAT      O30307   4.772   6.337   2.899
10022WAT     H130308   4.814   6.254   2.937
10022WAT     H230309   4.818   6.361   2.813
10023WAT      O30310   1.006   6.900   1.629
10023WAT     H130311   0.952   6.982   1.645
10023WAT     H230312   1.050   6.872   1.715
10024WAT      O30313   2.946   7.847   7.681
10024WAT     H130314   3.001   7.931   7.683
10024WAT     H230315   2.849   7.872   7.691
10025WAT      O30316   5.337   3.044   7.301
10025WAT     H130317   5.309   3.003   7.214
10025WAT     H230318   5.307   3.139   7.304
10026WAT      O30319   6.613   4.651   6.464
10026WAT     H130320   6.532   4.698   6.500
10026WAT     H230321   6.693   4.710   6.474
10027WAT      O30322   2.708   3.285   0.690
10027WAT     H130323   2.693   3.367   0.635
10027WAT     H230324   2.720   3.206   0.630
10028WAT      O30325   9.435   4.242   4.674
10028WAT     H130326   9.373   4.180   4.721
10028WAT     H230327   9.383   4.297   4.608
10029WAT      O30328   5.171   0.859   7.099
10029WAT     H130329   5.110   0.937   7.112
10029WAT     H230330   5.257   0.876   7.146
10030WAT      O30331   2.700   7.118   0.722
10030WAT     H130332   2.766   7.183   0.759
10030WAT     H230333   2.629   7.100   0.790
10031WAT      O30334   7.512   0.738   4.285
10031WAT     H130335   7.562   0.724   4.371
10031WAT     H230336   7.500   0.836   4.270
10032WAT      O30337   9.139   9.287   4.287
10032WAT     H130338   9.181   9.212   4.236
10032WAT     H230339   9.203   9.320   4.356
10033WAT      O30340   4.853   8.159   3.884
10033WAT     H130341   4.872   8.063   3.861
10033WAT     H230342   4.937   8.203   3.913
10034WAT      O30343   6.247   2.201   8.106
10034WAT     H130344   6.255   2.293   8.068
10034WAT     H230345   6.176   2.151   8.057
10035WAT      O30346   7.265   6.791   5.367
10035WAT     H130347   7.333   6.820   5.299
10035WAT     H230348   7.312   6.753   5.446
10036WAT      O30349   5.100   2.521   4.200
10036WAT     H130350   5.053   2.586   4.141
10036WAT     H230351   5.033   2.462   4.245
10037WAT      O30352   4.654   2.110   9.521
10037WAT     H130353   4.680   2.108   9.424
10037WAT     H230354   4.721   2.164   9.572
10038WAT      O30355   4.959   5.660   9.885
10038WAT     H130356   5.004   5.604   9.955
10038WAT     H230357   4.871   5.619   9.861
10039WAT      O30358   0.945   4.213   0.845
10039WAT     H130359   0.874   4.280   0.867
10039WAT     H230360   0.956   4.150   0.922
10040WAT      O30361   2.625   1.541   3.044
10040WAT     H130362   2.698   1.602   3.012
10040WAT     H230363   2.658   1.484   3.119
10041WAT      O30364   4.912   9.771   7.490
10041WAT     H130365   4.818   9.795   7.516
10041WAT     H230366   4.970   9.772   7.570
10042WAT      O30367   0.860   7.118   8.646
10042WAT     H130368   0.883   7.027   8.682
10042WAT     H230369   0.789   7.159   8.703
10043WAT      O30370   3.425   9.784   1.333
10043WAT     H130371   3.405   9.706   1.273
10043WAT     H230372   3.352   9.792   1.402
10044WAT      O30373   8.847   5.994   7.680
10044WAT     H130374   8.784   5.976   7.755
10044WAT     H230375   8.813   5.949   7.597
10045WAT      O30376   6.561   7.755   6.776
10045WAT     H130377   6.651   7.710   6.773
10045WAT     H230378   6.492   7.692   6.742
10046WAT      O30379   1.002   0.397   6.724
10046WAT     H130380   1.060   0.466   6.767
10046WAT     H230381   0.996   0.317   6.784
10047WAT      O30382   9.359   0.894   5.923
10047WAT     H130383   9.384   0.969   5.862
10047WAT     H230384   9.329   0.931   6.010
10048WAT      O30385   6.514   7.092   5.490
10048WAT     H130386   6.489   7.164   5.425
10048WAT     H230387   6.601   7.051   5.462
10049WAT      O30388   5.905   2.432   0.724
10049WAT     H130389   5.829   2.439   0.659
10049WAT     H230390   5.933   2.524   0.753
10050WAT      O30391   0.979   8.043   7.325
10050WAT     H130392   0.995   7.977   7.252
10050WAT     H230393   1.055   8.040   7.390
10051WAT      O30394   5.944   2.226   0.443
10051WAT     H130395   5.965   2.283   0.363
10051WAT     H230396   5.912   2.285   0.517
10052WAT      O30397   5.668   4.761   3.877
10052WAT     H130398   5.682   4.851   3.918
10052WAT     H230399   5.667   4.691   3.949
10053WAT      O30400   4.412   1.869   5.130
10053WAT     H130401   4.387   1.879   5.226
10053WAT     H230402   4.490   1.927   5.110
10054WAT      O30403   0.667   9.186   5.150
10054WAT     H130404   0.763   9.168   5.131
10054WAT     H230405   0.657   9.278   5.188
10055WAT      O30406   8.572   6.721   3.166
10055WAT     H130407   8.616   6.803   3.130
10055WAT     H230408   8.627   6.641   3.141
10056WAT      O30409   9.730   0.976   4.759
10056WAT     H130410   9.699   0.881   4.756
10056WAT     H230411   9.770   1.002   4.672
10057WAT      O30412   0.430   0.693   6.061
10057WAT     H130413   0.382   0.755   6.123
10057WAT     H230414   0.398   0.599   6.076
10058WAT      O30415   1.881   6.761   9.564
10058WAT     H130416   1.915   6.851   9.591
10058WAT     H230417   1.827   6.770   9.480
10059WAT      O30418   6.196   2.880   7.747
10059WAT     H130419   6.182   2.970   7.787
10059WAT     H230420   6.260   2.828   7.804
10060WAT      O30421   6.961   7.719   6.067
10060WAT     H130422   6.910   7.805   6.073
10060WAT     H230423   6.912   7.656   6.006
10061WAT      O30424   4.290   6.506   9.032
10061WAT     H130425   4.363   6.438   9.027
10061WAT     H230426   4.203   6.465   9.006
10062WAT      O30427   2.108   4.618   2.530
10062WAT     H130428   2.187   4.599   2.472
10062WAT     H230429   2.126   4.700   2.584
10063WAT      O30430   6.214   7.515   7.584
10063WAT     H130431   6.240   7.421   7.559
10063WAT     H230432   6.232   7.529   7.681
10064WAT      O30433   3.263   5.578   9.023
10064WAT     H130434   3.268   5.479   9.017
10064WAT     H230435   3.305   5.608   9.109
10065WAT      O30436   4.527   2.760   4.521
10065WAT     H130437   4.552   2.831   4.455
10065WAT     H230438   4.528   2.799   4.614
10066WAT      O30439   4.757   6.772   4.771
10066WAT     H130440   4.684   6.839   4.782
10066WAT     H230441   4.801   6.785   4.682
10067WAT      O30442   1.781   2.866   2.091
10067WAT     H130443   1.770   2.930   2.167
10067WAT     H230444   1.693   2.824   2.069
10068WAT      O30445   1.012   4.080   4.827
10068WAT     H130446   1.062   3.994   4.842
10068WAT     H230447   0.958   4.072   4.743
10069WAT      O30448   0.455   5.537   4.078
10069WAT     H130449   0.363   5.572   4.058
10069WAT     H230450   0.461   5.441   4.050
10070WAT      O30451   6.511   7.762   7.587
10070WAT     H130452   6.563   7.812   7.518
10070WAT     H230453   6.530   7.801   7.677
10071WAT      O30454   6.739   3.941   7.528
10071WAT     H130455   6.658   3.971   7.578
10071WAT     H230456   6.816   3.932   7.591
10072WAT      O30457   8.271   3.566   1.754
10072WAT     H130458   8.330   3.544   1.676
10072WAT     H230459   8.327   3.570   1.837
10073WAT      O30460   8.572   1.668   3.900
10073WAT     H130461   8.597   1.664   3.996
10073WAT     H230462   8.478   1.636   3.888
10074WAT      O30463   0.261   2.227   7.230
10074WAT     H130464   0.338   2.289   7.246
10074WAT     H230465   0.175   2.274   7.251
10075WAT      O30466   4.985   3.656   7.188
10075WAT     H130467   4.961   3.559   7.175
10075WAT     H230468   5.084   3.666   7.194
10076WAT      O30469   4.915   6.978   5.701
10076WAT     H130470   5.009   6.943   5.698
10076WAT     H230471   4.894   7.011   5.793
10077WAT      O30472   8.863   1.787   0.220
10077WAT     H130473   8.864   1.696   0.261
10077WAT     H230474   8.944   1.798   0.162
10078WAT      O30475   7.824   8.918   1.980
10078WAT     H130476   7.834   8.849   2.052
10078WAT     H230477   7.773   8.879   1.903
10079WAT      O30478   6.456   1.293   6.236
10079WAT     H130479   6.459   1.250   6.146
10079WAT     H230480   6.481   1.226   6.306
10080WAT      O30481   2.729   1.878   2.785
10080WAT     H130482   2.644   1.832   2.757
10080WAT     H230483   2.767   1.832   2.865
10081WAT      O30484   4.400   6.683   0.518
10081WAT     H130485   4.341   6.764   0.521
10081WAT     H230486   4.356   6.609   0.570
10082WAT      O30487   1.220   2.866   3.128
10082WAT     H130488   1.306   2.859   3.179
10082WAT     H230489   1.238   2.904   3.037
10083WAT      O30490   1.671   1.534   7.638
10083WAT     H130491   1.595   1.507   7.697
10083WAT     H230492   1.670   1.479   7.555
10084WAT      O30493   8.268   3.765   7.122
10084WAT     H130494   8.310   3.808   7.202
10084WAT     H230495   8.277   3.825   7.043
10085WAT      O30496   0.673   5.628   9.655
10085WAT     H130497   0.719   5.597   9.572
10085WAT     H230498   0.599   5.565   9.678
10086WAT      O30499   6.612   4.352   9.495
10086WAT     H130500   6.703   4.312   9.513
10086WAT     H230501   6.618   4.415   9.418
10087WAT      O30502   8.293   4.018   8.416
10087WAT     H130503   8.292   3.923   8.446
10087WAT     H230504   8.200   4.049   8.400
10088WAT      O30505   7.093   7.787   9.667
10088WAT     H130506   7.094   7.846   9.587
10088WAT     H230507   7.008   7.801   9.718
10089WAT      O30508   2.026   0.622   9.014
10089WAT     H130509   1.977   0.535   9.028
10089WAT     H230510   1.979   0.695   9.064
10090WAT      O30511   3.892   3.315   2.179
10090WAT     H130512   3.799   3.301   2.144
10090WAT     H230513   3.909   3.413   2.192
10091WAT      O30514   4.212   2.252   5.138
10091WAT     H130515   4.149   2.204   5.077
10091WAT     H230516   4.209   2.210   5.228
10092WAT      O30517   0.624   4.591   0.158
10092WAT     H130518   0.641   4.493   0.166
10092WAT     H230519   0.537   4.615   0.201
10093WAT      O30520   5.923   9.285   3.597
10093WAT     H130521   5.859   9.239   3.536
10093WAT     H230522   6.004   9.228   3.610
10094WAT      O30523   0.822   4.988   8.522
10094WAT     H130524   0.794   5.004   8.427
10094WAT     H230525   0.763   5.039   8.584
10095WAT      O30526   0.270   6.634   9.821
10095WAT     H130527   0.360   6.636   9.864
10095WAT     H230528   0.208   6.695   9.871
10096WAT      O30529   7.503   9.286   6.088
10096WAT     H130530   7.473   9.300   5.993
10096WAT     H230531   7.459   9.205   6.125
10097WAT      O30532   9.034   5.108   4.799
10097WAT     H130533   9.068   5.173   4.730
10097WAT     H230534   9.087   5.024   4.794
10098WAT      O30535   0.346   7.299   7.986
10098WAT     H130536   0.401   7.216   7.988
10098WAT     H230537   0.382   7.361   7.915
10099WAT      O30538   1.037   1.858   7.560
10099WAT     H130539   1.043   1.835   7.463
10099WAT     H230540   0.956   1.816   7.600
10100WAT      O30541   3.089   2.614   4.601
10100WAT     H130542   3.045   2.535   4.559
10100WAT     H230543   3.142   2.584   4.680
10101WAT      O30544   1.790   5.991   1.648
10101WAT     H130545   1.766   6.083   1.617
10101WAT     H230546   1.707   5.944   1.677
10102WAT      O30547   4.233   3.272   0.207
10102WAT     H130548   4.314   3.216   0.189
10102WAT     H230549   4.194   3.245   0.295
10103WAT      O30550   5.149   5.451   2.329
10103WAT     H130551   5.162   5.542   2.290
10103WAT     H230552   5.095   5.395   2.266
10104WAT      O30553   6.030   8.020   1.381
10104WAT     H130554   5.959   8.081   1.415
10104WAT     H230555   5.988   7.937   1.345
10105WAT      O30556   9.876   1.595   6.124
10105WAT     H130557   9.946   1.663   6.102
10105WAT     H230558   9.807   1.637   6.183
10106WAT      O30559   4.370   6.112   0.839
10106WAT     H130560   4.278   6.111   0.799
10106WAT     H230561   4.381   6.192   0.897
10107WAT      O30562   7.203   5.090   8.544
10107WAT     H130563   7.235   4.997   8.565
10107WAT     H230564   7.210   5.147   8.625
10108WAT      O30565   0.762   3.674   1.867
10108WAT     H130566   0.794   3.715   1.782
10108WAT     H230567   0.770   3.740   1.942
10109WAT      O30568   6.640   8.358   0.004
10109WAT     H130569   6.659   8.415  -0.076
10109WAT     H230570   6.726   8.335   0.050
10110WAT      O30571   0.045   6.698   3.419
10110WAT     H130572  -0.026   6.744   3.365
10110WAT     H230573   0.117   6.763   3.443
10111WAT      O30574   7.466   6.022   8.040
10111WAT     H130575   7.484   6.035   7.943
10111WAT     H230576   7.379   5.974   8.052
10112WAT      O30577   0.737   3.239   0.526
10112WAT     H130578   0.644   3.264   0.552
10112WAT     H230579   0.787   3.205   0.607
10113WAT      O30580   5.692   1.340   9.709
10113WAT     H130581   5.762   1.275   9.676
10113WAT     H230582   5.608   1.326   9.657
10114WAT      O30583   9.809   9.471   6.215
10114WAT     H130584   9.815   9.532   6.294
10114WAT     H230585   9.897   9.426   6.200
10115WAT      O30586   0.421   4.022   5.614
10115WAT     H130587   0.504   3.983   5.575
10115WAT     H230588   0.355   4.040   5.540
10116WAT      O30589   4.567   4.484   8.012
10116WAT     H130590   4.602   4.502   8.104
10116WAT     H230591   4.519   4.397   8.011
10117WAT      O30592   7.061   8.338   5.860
10117WAT     H130593   7.152   8.304   5.836
10117WAT     H230594   7.070   8.404   5.934
10118WAT      O30595   8.421   1.852   8.212
10118WAT     H130596   8.375   1.813   8.292
10118WAT     H230597   8.370   1.826   8.130
10119WAT      O30598   7.753   0.194   1.296
10119WAT     H130599   7.773   0.253   1.217
10119WAT     H230600   7.819   0.119   1.298
10120WAT      O30601   6.272   8.645   1.530
10120WAT     H130602   6.230   8.685   1.611
10120WAT     H230603   6.318   8.560   1.555
10121WAT      O30604   8.602   2.525   0.254
10121WAT     H130605   8.567   2.549   0.344
10121WAT     H230606   8.662   2.445   0.261
10122WAT      O30607   5.151   1.313   3.541
10122WAT     H130608   5.072   1.345   3.489
10122WAT     H230609   5.217   1.388   3.551
10123WAT      O30610   8.973   3.376   4.630
10123WAT     H130611   8.954   3.467   4.591
10123WAT     H230612   9.041   3.385   4.702
10124WAT      O30613   9.107   0.648   2.242
10124WAT     H130614   9.118   0.728   2.301
10124WAT     H230615   9.105   0.565   2.298
10125WAT      O30616   2.726   8.505   8.823
10125WAT     H130617   2.765   8.567   8.890
10125WAT     H230618   2.725   8.549   8.733
10126WAT      O30619   3.996   7.281   8.221
10126WAT     H130620   4.075   7.221   8.209
10126WAT     H230621   4.023   7.375   8.202
10127WAT      O30622   4.230   4.269   5.184
10127WAT     H130623   4.221   4.262   5.284
10127WAT     H230624   4.180   4.194   5.141
10128WAT      O30625   8.203   7.530   0.430
10128WAT     H130626   8.268   7.553   0.503
10128WAT     H230627   8.251   7.482   0.357
10129WAT      O30628   9.053   4.342   1.013
10129WAT     H130629   9.068   4.243   1.012
10129WAT     H230630   8.973   4.365   0.958
10130WAT      O30631   3.784   6.474   8.625
10130WAT     H130632   3.717   6.506   8.692
10130WAT     H230633   3.805   6.547   8.561
10131WAT      O30634   2.657   8.321   1.657
10131WAT     H130635   2.746   8.321   1.610
10131WAT     H230636   2.628   8.415   1.674
10132WAT      O30637   7.893   7.071   5.040
10132WAT     H130638   7.879   7.156   4.990
10132WAT     H230639   7.935   7.092   5.129
10133WAT      O30640   1.934   4.066   9.322
10133WAT     H130641   1.891   4.110   9.401
10133WAT     H230642   1.864   4.018   9.268
10134WAT      O30643   1.421   5.085   4.071
10134WAT     H130644   1.488   5.158   4.060
10134WAT     H230645   1.434   5.041   4.160
10135WAT      O30646   0.485   4.909   6.502
10135WAT     H130647   0.536   4.911   6.416
10135WAT     H230648   0.445   4.818   6.515
10136WAT      O30649   7.640   2.187   1.167
10136WAT     H130650   7.659   2.268   1.223
10136WAT     H230651   7.601   2.216   1.079
10137WAT      O30652   3.744   3.614   9.711
10137WAT     H130653   3.833   3.590   9.749
10137WAT     H230654   3.673   3.565   9.761
10138WAT      O30655   1.609   6.005   8.148
10138WAT     H130656   1.705   5.981   8.135
10138WAT     H230657   1.551   5.936   8.104
10139WAT      O30658   8.930   0.541   1.099
10139WAT     H130659   8.898   0.634   1.080
10139WAT     H230660   8.890   0.510   1.185
10140WAT      O30661   8.341   1.524   8.633
10140WAT     H130662   8.404   1.601   8.623
10140WAT     H230663   8.282   1.539   8.712
10141WAT      O30664   0.383   6.955   7.565
10141WAT     H130665   0.380   7.055   7.569
10141WAT     H230666   0.450   6.921   7.630
10142WAT      O30667   4.067   5.387   4.844
10142WAT     H130668   4.035   5.327   4.917
10142WAT     H230669   4.146   5.439   4.876
10143WAT      O30670   9.579   0.776   2.751
10143WAT     H130671   9.677   0.762   2.768
10143WAT     H230672   9.554   0.869   2.778
10144WAT      O30673   9.671   6.545   9.292
10144WAT     H130674   9.652   6.627   9.238
10144WAT     H230675   9.587   6.518   9.340
10145WAT      O30676   2.424   0.431   1.366
10145WAT     H130677   2.495   0.491   1.405
10145WAT     H230678   2.423   0.344   1.416
10146WAT      O30679   6.028   8.190   4.735
10146WAT     H130680   5.944   8.240   4.715
10146WAT     H230681   6.085   8.243   4.798
10147WAT      O30682   4.732   3.151   7.276
10147WAT     H130683   4.681   3.217   7.331
10147WAT     H230684   4.717   3.169   7.179
10148WAT      O30685   9.040   2.615   3.196
10148WAT     H130686   9.137   2.615   3.175
10148WAT     H230687   9.002   2.707   3.183
10149WAT      O30688   9.207   0.316   2.398
10149WAT     H130689   9.237   0.265   2.318
10149WAT     H230690   9.111   0.342   2.387
10150WAT      O30691   7.559   9.636   1.242
10150WAT     H130692   7.618   9.566   1.283
10150WAT     H230693   7.532   9.607   1.151
10151WAT      O30694   0.964   8.748   1.932
10151WAT     H130695   0.927   8.834   1.897
10151WAT     H230696   0.889   8.693   1.969
10152WAT      O30697   4.364   0.610   7.322
10152WAT     H130698   4.411   0.644   7.241
10152WAT     H230699   4.391   0.516   7.339
10153WAT      O30700   0.517   4.890   0.824
10153WAT     H130701   0.593   4.937   0.870
10153WAT     H230702   0.456   4.959   0.785
10154WAT      O30703   1.140   3.515   2.600
10154WAT     H130704   1.084   3.582   2.649
10154WAT     H230705   1.190   3.459   2.667
10155WAT      O30706   0.695   2.142   6.051
10155WAT     H130707   0.701   2.231   6.094
10155WAT     H230708   0.693   2.071   6.122
10156WAT      O30709   4.946   6.488   8.153
10156WAT     H130710   4.918   6.438   8.071
10156WAT     H230711   4.865   6.511   8.207
10157WAT      O30712   0.897   0.844   1.932
10157WAT     H130713   0.859   0.776   1.868
10157WAT     H230714   0.899   0.933   1.887
10158WAT      O30715   4.053   9.026   5.712
10158WAT     H130716   4.031   9.117   5.748
10158WAT     H230717   4.001   9.010   5.628
10159WAT      O30718   3.937   7.640   7.502
10159WAT     H130719   3.898   7.668   7.414
10159WAT     H230720   3.984   7.718   7.543
10160WAT      O30721   3.981   7.947   1.181
10160WAT     H130722   4.006   7.875   1.117
10160WAT     H230723   3.902   7.998   1.144
10161WAT      O30724   7.096   4.311   5.643
10161WAT     H130725   7.187   4.277   5.669
10161WAT     H230726   7.046   4.239   5.594
10162WAT      O30727   1.215   7.130   9.727
10162WAT     H130728   1.204   7.202   9.659
10162WAT     H230729   1.291   7.154   9.789
10163WAT      O30730   1.390   0.985   6.675
10163WAT     H130731   1.298   1.020   6.658
10163WAT     H230732   1.442   0.983   6.589
10164WAT      O30733   4.744   0.926   2.394
10164WAT     H130734   4.778   0.857   2.330
10164WAT     H230735   4.676   0.984   2.348
10165WAT      O30736   1.030   4.673   0.218
10165WAT     H130737   0.986   4.695   0.306
10165WAT     H230738   1.129   4.671   0.230
10166WAT      O30739   1.547   9.516   5.125
10166WAT     H130740   1.561   9.473   5.214
10166WAT     H230741   1.593   9.462   5.055
10167WAT      O30742   2.894   5.960   6.874
10167WAT     H130743   2.980   5.911   6.888
10167WAT     H230744   2.817   5.897   6.884
10168WAT      O30745   6.522   7.487   2.877
10168WAT     H130746   6.601   7.502   2.818
10168WAT     H230747   6.536   7.536   2.963
10169WAT      O30748   5.024   1.113   0.285
10169WAT     H130749   5.119   1.108   0.255
10169WAT     H230750   4.964   1.109   0.205
10170WAT      O30751   5.308   9.749   3.270
10170WAT     H130752   5.314   9.821   3.201
10170WAT     H230753   5.373   9.767   3.343
10171WAT      O30754   9.058   9.572   2.024
10171WAT     H130755   8.977   9.554   1.969
10171WAT     H230756   9.032   9.621   2.107
10172WAT      O30757   5.991   9.171   7.066
10172WAT     H130758   6.031   9.238   7.004
10172WAT     H230759   5.962   9.217   7.150
10173WAT      O30760   8.952   1.952   4.562
10173WAT     H130761   8.918   1.981   4.472
10173WAT     H230762   8.920   1.860   4.582
10174WAT      O30763   8.095   5.340   0.065
10174WAT     H130764   8.185   5.363   0.103
10174WAT     H230765   8.081   5.390  -0.020
10175WAT      O30766   2.162   8.458   5.598
10175WAT     H130767   2.190   8.393   5.669
10175WAT     H230768   2.242   8.488   5.546
10176WAT      O30769   8.198   6.366   6.539
10176WAT     H130770   8.215   6.282   6.589
10176WAT     H230771   8.231   6.445   6.591
10177WAT      O30772   6.351   7.157   3.033
10177WAT     H130773   6.318   7.236   2.981
10177WAT     H230774   6.378   7.186   3.125
10178WAT      O30775   9.377   8.388   8.589
10178WAT     H130776   9.336   8.475   8.564
10178WAT     H230777   9.315   8.314   8.563
10179WAT      O30778   6.974   5.287   4.095
10179WAT     H130779   7.001   5.332   4.011
10179WAT     H230780   7.055   5.254   4.143
10180WAT      O30781   7.392   3.154   4.373
10180WAT     H130782   7.361   3.231   4.428
10180WAT     H230783   7.321   3.083   4.373
10181WAT      O30784   3.595   4.337   3.232
10181WAT     H130785   3.642   4.424   3.249
10181WAT     H230786   3.588   4.322   3.133
10182WAT      O30787   3.379   6.596   6.142
10182WAT     H130788   3.403   6.576   6.237
10182WAT     H230789   3.311   6.531   6.110
10183WAT      O30790   9.015   5.340   4.378
10183WAT     H130791   8.936   5.279   4.380
10183WAT     H230792   8.992   5.424   4.329
10184WAT      O30793   3.672   3.169   1.688
10184WAT     H130794   3.657   3.264   1.717
10184WAT     H230795   3.741   3.167   1.615
10185WAT      O30796   9.125   4.190   6.106
10185WAT     H130797   9.223   4.204   6.094
10185WAT     H230798   9.077   4.277   6.094
10186WAT      O30799   9.464   1.346   7.591
10186WAT     H130800   9.514   1.403   7.526
10186WAT     H230801   9.428   1.404   7.665
10187WAT      O30802   3.157   0.435   8.327
10187WAT     H130803   3.101   0.484   8.393
10187WAT     H230804   3.110   0.434   8.238
10188WAT      O30805   7.347   7.994   0.742
10188WAT     H130806   7.351   8.015   0.840
10188WAT     H230807   7.296   7.909   0.729
10189WAT      O30808   1.516   4.245   3.333
10189WAT     H130809   1.607   4.236   3.293
10189WAT     H230810   1.499   4.169   3.396
10190WAT      O30811   5.609   3.701   5.684
10190WAT     H130812   5.644   3.643   5.758
10190WAT     H230813   5.658   3.788   5.684
10191WAT      O30814   8.212   4.885   4.599
10191WAT     H130815   8.150   4.885   4.678
10191WAT     H230816   8.190   4.963   4.540
10192WAT      O30817   0.505   0.277   0.160
10192WAT     H130818   0.505   0.356   0.098
10192WAT     H230819   0.596   0.237   0.162
10193WAT      O30820   2.029   7.959   5.089
10193WAT     H130821   2.001   7.903   5.011
10193WAT     H230822   1.980   8.046   5.087
10194WAT      O30823   7.755   9.439   0.434
10194WAT     H130824   7.674   9.496   0.444
10194WAT     H230825   7.735   9.363   0.373
10195WAT      O30826   5.508   0.552   7.617
10195WAT     H130827   5.439   0.597   7.560
10195WAT     H230828   5.462   0.497   7.687
10196WAT      O30829   0.491   9.819   0.990
10196WAT     H130830   0.466   9.733   0.946
10196WAT     H230831   0.417   9.885   0.978
10197WAT      O30832   2.106   0.234   4.907
10197WAT     H130833   2.161   0.177   4.968
10197WAT     H230834   2.009   0.215   4.922
10198WAT      O30835   5.330   5.423   2.773
10198WAT     H130836   5.336   5.391   2.868
10198WAT     H230837   5.332   5.344   2.711
10199WAT      O30838   4.112   1.312   6.812
10199WAT     H130839   4.118   1.213   6.815
10199WAT     H230840   4.196   1.350   6.773
10200WAT      O30841   9.250   6.557   1.828
10200WAT     H130842   9.235   6.459   1.816
10200WAT     H230843   9.180   6.594   1.890
10201WAT      O30844   0.412   8.595   6.692
10201WAT     H130845   0.454   8.607   6.602
10201WAT     H230846   0.484   8.593   6.762
10202WAT      O30847   3.930   8.208   3.062
10202WAT     H130848   3.872   8.141   3.107
10202WAT     H230849   3.982   8.259   3.130
10203WAT      O30850   6.632   0.317   3.487
10203WAT     H130851   6.661   0.389   3.550
10203WAT     H230852   6.643   0.348   3.393
10204WAT      O30853   5.646   8.155   1.643
10204WAT     H130854   5.691   8.239   1.672
10204WAT     H230855   5.583   8.124   1.714
10205WAT      O30856   0.278   9.007   1.123
10205WAT     H130857   0.321   8.933   1.173
10205WAT     H230858   0.179   8.993   1.121
10206WAT      O30859   4.666   1.621   2.978
10206WAT     H130860   4.723   1.692   3.020
10206WAT     H230861   4.662   1.541   3.039
10207WAT      O30862   0.378   5.506   4.543
10207WAT     H130863   0.435   5.485   4.622
10207WAT     H230864   0.329   5.423   4.514
10208WAT      O30865   0.606   3.596   7.939
10208WAT     H130866   0.608   3.678   7.881
10208WAT     H230867   0.519   3.550   7.928
10209WAT      O30868   7.409   2.256   1.785
10209WAT     H130869   7.507   2.272   1.792
10209WAT     H230870   7.376   2.214   1.870
10210WAT      O30871   0.935   6.040   4.368
10210WAT     H130872   0.928   5.989   4.282
10210WAT     H230873   1.031   6.050   4.393
10211WAT      O30874   4.468   3.208   0.440
10211WAT     H130875   4.480   3.165   0.351
10211WAT     H230876   4.458   3.138   0.511
10212WAT      O30877   6.386   9.306   9.471
10212WAT     H130878   6.423   9.363   9.398
10212WAT     H230879   6.458   9.245   9.505
10213WAT      O30880   2.555   2.564   4.092
10213WAT     H130881   2.617   2.529   4.022
10213WAT     H230882   2.566   2.663   4.101
10214WAT      O30883   3.679   4.863   3.693
10214WAT     H130884   3.737   4.924   3.746
10214WAT     H230885   3.641   4.792   3.753
10215WAT      O30886   7.628   6.225   1.151
10215WAT     H130887   7.621   6.293   1.225
10215WAT     H230888   7.537   6.210   1.111
10216WAT      O30889   5.158   7.036   2.349
10216WAT     H130890   5.203   7.120   2.320
10216WAT     H230891   5.088   7.010   2.283
10217WAT      O30892   0.540   1.628   7.874
10217WAT     H130893   0.507   1.584   7.791
10217WAT     H230894   0.640   1.631   7.873
10218WAT      O30895   9.202   3.020   9.878
10218WAT     H130896   9.246   3.077   9.947
10218WAT     H230897   9.208   2.924   9.905
10219WAT      O30898   2.909   3.290   6.514
10219WAT     H130899   2.907   3.345   6.597
10219WAT     H230900   2.998   3.245   6.506
10220WAT      O30901   8.170   8.929   4.542
10220WAT     H130902   8.123   9.012   4.510
10220WAT     H230903   8.259   8.954   4.579
10221WAT      O30904   0.335   7.253   7.506
10221WAT     H130905   0.400   7.280   7.435
10221WAT     H230906   0.243   7.247   7.467
10222WAT      O30907   5.473   0.802   5.691
10222WAT     H130908   5.542   0.781   5.622
10222WAT     H230909   5.510   0.871   5.754
10223WAT      O30910   2.673   6.246   7.823
10223WAT     H130911   2.770   6.252   7.800
10223WAT     H230912   2.618   6.269   7.743
10224WAT      O30913   2.295   7.838   5.210
10224WAT     H130914   2.226   7.879   5.150
10224WAT     H230915   2.342   7.764   5.161
10225WAT      O30916   7.756   3.101   0.619
10225WAT     H130917   7.728   3.017   0.664
10225WAT     H230918   7.702   3.114   0.536
10226WAT      O30919   6.783   6.269   5.771
10226WAT     H130920   6.731   6.310   5.696
10226WAT     H230921   6.877   6.305   5.769
10227WAT      O30922   0.569   8.653   2.453
10227WAT     H130923   0.560   8.553   2.452
10227WAT     H230924   0.507   8.692   2.522
10228WAT      O30925   6.921   1.147   5.673
10228WAT     H130926   6.823   1.165   5.660
10228WAT     H230927   6.955   1.200   5.750
10229WAT      O30928   7.657   7.494   6.229
10229WAT     H130929   7.577   7.548   6.204
10229WAT     H230930   7.735   7.521   6.173
10230WAT      O30931   6.343   4.872   0.555
10230WAT     H130932   6.329   4.942   0.625
10230WAT     H230933   6.264   4.871   0.494
10231WAT      O30934   7.559   2.212   2.930
10231WAT     H130935   7.540   2.275   2.855
10231WAT     H230936   7.653   2.179   2.923
10232WAT      O30937   5.517   9.480   8.184
10232WAT     H130938   5.608   9.444   8.207
10232WAT     H230939   5.447   9.428   8.232
10233WAT      O30940   4.205   7.450   5.896
10233WAT     H130941   4.121   7.504   5.897
10233WAT     H230942   4.253   7.463   5.983
10234WAT      O30943   4.183   4.851   9.304
10234WAT     H130944   4.221   4.813   9.220
10234WAT     H230945   4.115   4.921   9.282
10235WAT      O30946   6.254   6.613   8.652
10235WAT     H130947   6.287   6.702   8.683
10235WAT     H230948   6.155   6.616   8.640
10236WAT      O30949   7.112   6.906   2.135
10236WAT     H130950   7.056   6.989   2.143
10236WAT     H230951   7.186   6.922   2.070
10237WAT      O30952   1.606   0.897   7.874
10237WAT     H130953   1.612   0.820   7.938
10237WAT     H230954   1.625   0.865   7.782
10238WAT      O30955   6.365   3.076   7.028
10238WAT     H130956   6.339   3.040   7.117
10238WAT     H230957   6.317   3.026   6.956
10239WAT      O30958   0.738   8.734   5.688
10239WAT     H130959   0.643   8.743   5.715
10239WAT     H230960   0.796   8.732   5.769
10240WAT      O30961   2.349   7.348   7.965
10240WAT     H130962   2.384   7.339   8.058
10240WAT     H230963   2.392   7.426   7.920
10241WAT      O30964   8.770   7.231   8.850
10241WAT     H130965   8.719   7.187   8.924
10241WAT     H230966   8.707   7.260   8.778
10242WAT      O30967   1.296   1.042   4.612
10242WAT     H130968   1.311   1.107   4.686
10242WAT     H230969   1.278   1.092   4.527
10243WAT      O30970   4.174   5.795   4.610
10243WAT     H130971   4.085   5.837   4.591
10243WAT     H230972   4.231   5.799   4.528
10244WAT      O30973   2.771   4.110   8.556
10244WAT     H130974   2.753   4.031   8.497
10244WAT     H230975   2.812   4.079   8.642
10245WAT      O30976   6.592   4.729   8.200
10245WAT     H130977   6.674   4.785   8.201
10245WAT     H230978   6.511   4.787   8.204
10246WAT      O30979   6.934   9.588   0.114
10246WAT     H130980   6.899   9.653   0.047
10246WAT     H230981   7.011   9.628   0.163
10247WAT      O30982   1.441   5.888   9.022
10247WAT     H130983   1.426   5.834   9.104
10247WAT     H230984   1.353   5.922   8.988
10248WAT      O30985   8.069   2.819   4.539
10248WAT     H130986   8.161   2.853   4.519
10248WAT     H230987   8.075   2.746   4.608
10249WAT      O30988   3.524   5.783   0.920
10249WAT     H130989   3.483   5.696   0.946
10249WAT     H230990   3.570   5.772   0.832
10250WAT      O30991   5.718   3.139   6.630
10250WAT     H130992   5.751   3.096   6.714
10250WAT     H230993   5.640   3.086   6.595
10251WAT      O30994   3.141   0.668   6.797
10251WAT     H130995   3.177   0.591   6.850
10251WAT     H230996   3.209   0.697   6.729
10252WAT      O30997   6.261   9.099   0.824
10252WAT     H130998   6.230   9.193   0.836
10252WAT     H230999   6.345   9.085   0.877
10253WAT      O31000   8.917   2.920   4.881
10253WAT     H131001   8.832   2.870   4.898
10253WAT     H231002   8.992   2.875   4.929
10254WAT      O31003   9.284   7.572   6.028
10254WAT     H131004   9.191   7.547   6.001
10254WAT     H231005   9.342   7.579   5.947
10255WAT      O31006   9.178   3.905   3.440
10255WAT     H131007   9.258   3.926   3.497
10255WAT     H231008   9.111   3.978   3.450
10256WAT      O31009   9.623   0.086   1.688
10256WAT     H131010   9.641   0.182   1.709
10256WAT     H231011   9.628   0.072   1.589
10257WAT      O31012   1.071   8.089   8.156
10257WAT     H131013   1.075   7.991   8.133
10257WAT     H231014   0.982   8.110   8.197
10258WAT      O31015   7.601   8.665   7.810
10258WAT     H131016   7.655   8.718   7.875
10258WAT     H231017   7.624   8.694   7.717
10259WAT      O31018   2.175   9.829   0.095
10259WAT     H131019   2.267   9.842   0.131
10259WAT     H231020   2.180   9.800  -0.000
10260WAT      O31021   4.177   1.938   0.747
10260WAT     H131022   4.231   2.022   0.736
10260WAT     H231023   4.231   1.870   0.797
10261WAT      O31024   8.696   7.741   2.739
10261WAT     H131025   8.597   7.745   2.745
10261WAT     H231026   8.736   7.823   2.781
10262WAT      O31027   0.718   0.867   6.512
10262WAT     H131028   0.787   0.816   6.462
10262WAT     H231029   0.697   0.952   6.464
10263WAT      O31030   4.297   9.710   6.466
10263WAT     H131031   4.235   9.676   6.537
10263WAT     H231032   4.314   9.639   6.399
10264WAT      O31033   8.477   5.493   3.394
10264WAT     H131034   8.425   5.477   3.478
10264WAT     H231035   8.573   5.472   3.410
10265WAT      O31036   1.000   4.436   5.680
10265WAT     H131037   1.055   4.520   5.679
10265WAT     H231038   0.954   4.425   5.592
10266WAT      O31039   6.578   6.188   7.589
10266WAT     H131040   6.595   6.264   7.527
10266WAT     H231041   6.543   6.223   7.676
10267WAT      O31042   8.604   5.450   5.730
10267WAT     H131043   8.686   5.398   5.704
10267WAT     H231044   8.603   5.462   5.829
10268WAT      O31045   5.327   8.588   4.045
10268WAT     H131046   5.344   8.500   4.089
10268WAT     H231047   5.245   8.582   3.989
10269WAT      O31048   9.308   8.549   9.423
10269WAT     H131049   9.343   8.498   9.344
10269WAT     H231050   9.242   8.493   9.472
10270WAT      O31051   0.372   3.571   5.094
10270WAT     H131052   0.342   3.621   5.175
10270WAT     H231053   0.398   3.478   5.118
10271WAT      O31054   1.063   7.987   1.977
10271WAT     H131055   1.056   7.949   2.070
10271WAT     H231056   1.089   8.084   1.983
10272WAT      O31057   2.894   1.978   8.617
10272WAT     H131058   2.861   1.884   8.608
10272WAT     H231059   2.846   2.023   8.692
10273WAT      O31060   6.535   2.991   9.693
10273WAT     H131061   6.601   3.066   9.689
10273WAT     H231062   6.448   3.025   9.729
10274WAT      O31063   0.617   0.261   1.574
10274WAT     H131064   0.639   0.346   1.525
10274WAT     H231065   0.693   0.197   1.567
10275WAT      O31066   8.145   8.134   2.177
10275WAT     H131067   8.050   8.150   2.149
10275WAT     H231068   8.196   8.093   2.101
10276WAT      O31069   7.552   2.852   5.119
10276WAT     H131070   7.518   2.926   5.178
10276WAT     H231071   7.505   2.767   5.144
10277WAT      O31072   3.375   2.837   5.428
10277WAT     H131073   3.400   2.742   5.450
10277WAT     H231074   3.299   2.865   5.485
10278WAT      O31075   1.490   3.084   8.901
10278WAT     H131076   1.548   3.003   8.900
10278WAT     H231077   1.543   3.163   8.933
10279WAT      O31078   5.702   6.084   8.115
10279WAT     H131079   5.786   6.034   8.132
10279WAT     H231080   5.624   6.022   8.122
10280WAT      O31081   8.069   2.040   8.151
10280WAT     H131082   8.037   2.126   8.111
10280WAT     H231083   8.105   2.057   8.242
10281WAT      O31084   7.734   5.126   6.879
10281WAT     H131085   7.790   5.066   6.936
10281WAT     H231086   7.637   5.108   6.896
10282WAT      O31087   0.351   6.819   3.201
10282WAT     H131088   0.363   6.909   3.245
10282WAT     H231089   0.384   6.748   3.263
10283WAT      O31090   8.275   6.610   6.649
10283WAT     H131091   8.258   6.597   6.747
10283WAT     H231092   8.216   6.682   6.614
10284WAT      O31093   4.015   8.809   6.613
10284WAT     H131094   3.921   8.820   6.583
10284WAT     H231095   4.074   8.795   6.534
10285WAT      O31096   7.744   5.154   8.848
10285WAT     H131097   7.800   5.197   8.777
10285WAT     H231098   7.743   5.212   8.930
10286WAT      O31099   5.271   0.891   1.806
10286WAT     H131100   5.300   0.962   1.742
10286WAT     H231101   5.214   0.825   1.758
10287WAT      O31102   7.882   4.138   2.895
10287WAT     H131103   7.867   4.161   2.991
10287WAT     H231104   7.899   4.040   2.886
10288WAT      O31105   5.835   2.478   6.534
10288WAT     H131106   5.930   2.480   6.567
10288WAT     H231107   5.778   2.532   6.595
10289WAT      O31108   2.522   7.745   3.062
10289WAT     H131109   2.575   7.747   3.147
10289WAT     H231110   2.474   7.657   3.054
10290WAT      O31111   4.315   8.865   3.604
10290WAT     H131112   4.277   8.826   3.689
10290WAT     H231113   4.403   8.909   3.624
10291WAT      O31114   6.948   1.999   0.344
10291WAT     H131115   7.038   2.028   0.378
10291WAT     H231116   6.946   1.899   0.339
10292WAT      O31117   0.292   9.198   5.307
10292WAT     H131118   0.252   9.270   5.364
10292WAT     H231119   0.391   9.195   5.323
10293WAT      O31120   6.273   2.388   0.801
10293WAT     H131121   6.369   2.364   0.786
10293WAT     H231122   6.218   2.304   0.804
10294WAT      O31123   4.005   1.969   5.326
10294WAT     H131124   4.066   2.043   5.355
10294WAT     H231125   4.049   1.917   5.253
10295WAT      O31126   7.038   0.990   1.557
10295WAT     H131127   7.069   0.904   1.597
10295WAT     H231128   7.091   1.066   1.594
10296WAT      O31129   6.635   6.915   8.299
10296WAT     H131130   6.630   6.967   8.384
10296WAT     H231131   6.616   6.819   8.318
10297WAT      O31132   1.419   2.037   7.843
10297WAT     H131133   1.386   1.997   7.929
10297WAT     H231134   1.399   1.974   7.767
10298WAT      O31135   9.038   8.205   1.101
10298WAT     H131136   8.957   8.153   1.125
10298WAT     H231137   9.044   8.287   1.159
10299WAT      O31138   5.795   4.138   3.284
10299WAT     H131139   5.720   4.141   3.218
10299WAT     H231140   5.770   4.190   3.366
10300WAT      O31141   7.214   7.309   1.647
10300WAT     H131142   7.129   7.332   1.599
10300WAT     H231143   7.192   7.268   1.736
10301WAT      O31144   1.854   4.511   5.629
10301WAT     H131145   1.865   4.610   5.628
10301WAT     H231146   1.801   4.482   5.550
10302WAT      O31147   9.411   5.327   5.903
10302WAT     H131148   9.449   5.352   5.814
10302WAT     H231149   9.313   5.348   5.905
10303WAT      O31150   5.450   3.013   1.402
10303WAT     H131151   5.487   2.922   1.384
10303WAT     H231152   5.519   3.067   1.451
10304WAT      O31153   0.800   7.149   4.656
10304WAT     H131154   0.725   7.183   4.712
10304WAT     H231155   0.867   7.102   4.714
10305WAT      O31156   9.032   5.351   2.431
10305WAT     H131157   9.085   5.280   2.477
10305WAT     H231158   8.990   5.313   2.349
10306WAT      O31159   5.280   7.396   4.690
10306WAT     H131160   5.298   7.490   4.718
10306WAT     H231161   5.210   7.395   4.619
10307WAT      O31162   5.412   7.040   2.677
10307WAT     H131163   5.356   6.970   2.632
10307WAT     H231164   5.433   7.010   2.770
10308WAT      O31165   3.139   9.004   0.615
10308WAT     H131166   3.137   8.934   0.687
10308WAT     H231167   3.234   9.029   0.597
10309WAT      O31168   1.274   5.542   0.658
10309WAT     H131169   1.251   5.508   0.566
10309WAT     H231170   1.355   5.495   0.691
10310WAT      O31171   2.130   7.292   2.260
10310WAT     H131172   2.105   7.195   2.260
10310WAT     H231173   2.151   7.321   2.353
10311WAT      O31174   6.376   4.150   8.952
10311WAT     H131175   6.391   4.052   8.938
10311WAT     H231176   6.310   4.183   8.885
10312WAT      O31177   6.609   3.313   9.786
10312WAT     H131178   6.621   3.336   9.883
10312WAT     H231179   6.518   3.342   9.756
10313WAT      O31180   8.341   3.411   4.323
10313WAT     H131181   8.308   3.426   4.417
10313WAT     H231182   8.440   3.400   4.325
10314WAT      O31183   9.653   4.407   7.270
10314WAT     H131184   9.654   4.356   7.184
10314WAT     H231185   9.713   4.487   7.262
10315WAT      O31186   1.157   3.371   1.428
10315WAT     H131187   1.097   3.293   1.446
10315WAT     H231188   1.236   3.368   1.488
10316WAT      O31189   9.018   7.841   2.954
10316WAT     H131190   9.106   7.887   2.964
10316WAT     H231191   9.014   7.795   2.865
10317WAT      O31192   5.301   9.763   7.453
10317WAT     H131193   5.275   9.777   7.549
10317WAT     H231194   5.220   9.772   7.395
10318WAT      O31195   3.049   9.432   7.962
10318WAT     H131196   3.025   9.383   8.046
10318WAT     H231197   2.969   9.483   7.930
10319WAT      O31198   7.291   5.272   6.252
10319WAT     H131199   7.249   5.292   6.341
10319WAT     H231200   7.220   5.259   6.183
10320WAT      O31201   4.807   7.850   6.124
10320WAT     H131202   4.827   7.754   6.103
10320WAT     H231203   4.765   7.856   6.214
10321WAT      O31204   7.511   3.008   6.372
10321WAT     H131205   7.413   3.017   6.357
10321WAT     H231206   7.531   3.017   6.470
10322WAT      O31207   7.058   9.198   8.290
10322WAT     H131208   7.041   9.294   8.313
10322WAT     H231209   7.144   9.191   8.240
10323WAT      O31210   3.301   0.652   7.694
10323WAT     H131211   3.341   0.614   7.777
10323WAT     H231212   3.217   0.702   7.717
10324WAT      O31213   8.426   5.649   5.180
10324WAT     H131214   8.427   5.552   5.204
10324WAT     H231215   8.335   5.687   5.199
10325WAT      O31216   1.764   5.705   1.265
10325WAT     H131217   1.749   5.753   1.179
10325WAT     H231218   1.833   5.634   1.252
10326WAT      O31219   0.817   1.850   3.470
10326WAT     H131220   0.852   1.885   3.557
10326WAT     H231221   0.734   1.900   3.445
10327WAT      O31222   2.069   7.902   0.472
10327WAT     H131223   1.985   7.907   0.526
10327WAT     H231224   2.134   7.970   0.506
10328WAT      O31225   8.942   7.264   2.431
10328WAT     H131226   8.951   7.306   2.521
10328WAT     H231227   9.019   7.291   2.373
10329WAT      O31228   4.623   4.383   1.075
10329WAT     H131229   4.527   4.377   1.102
10329WAT     H231230   4.680   4.389   1.156
10330WAT      O31231   6.337   8.908   6.935
10330WAT     H131232   6.417   8.848   6.929
10330WAT     H231233   6.365   9.003   6.919
10331WAT      O31234   6.639   8.253   1.375
10331WAT     H131235   6.658   8.351   1.367
10331WAT     H231236   6.581   8.225   1.298
10332WAT      O31237   1.770   8.943   9.825
10332WAT     H131238   1.707   8.994   9.884
10332WAT     H231239   1.824   8.880   9.881
10333WAT      O31240   0.966   0.180   0.886
10333WAT     H131241   0.979   0.120   0.807
10333WAT     H231242   0.906   0.135   0.953
10334WAT      O31243   3.316   2.682   1.820
10334WAT     H131244   3.251   2.613   1.788
10334WAT     H231245   3.272   2.739   1.889
10335WAT      O31246   8.647   6.897   1.329
10335WAT     H131247   8.649   6.984   1.281
10335WAT     H231248   8.642   6.913   1.428
10336WAT      O31249   0.595   4.072   9.604
10336WAT     H131250   0.505   4.116   9.609
10336WAT     H231251   0.617   4.030   9.692
10337WAT      O31252   5.427   2.651   1.587
10337WAT     H131253   5.508   2.622   1.637
10337WAT     H231254   5.454   2.683   1.496
10338WAT      O31255   7.582   8.019   7.420
10338WAT     H131256   7.508   8.046   7.481
10338WAT     H231257   7.581   8.077   7.339
10339WAT      O31258   3.787   0.470   9.549
10339WAT     H131259   3.745   0.503   9.634
10339WAT     H231260   3.838   0.544   9.505
10340WAT      O31261   9.387   5.699   8.251
10340WAT     H131262   9.364   5.703   8.154
10340WAT     H231263   9.435   5.783   8.277
10341WAT      O31264   0.510   3.253   0.922
10341WAT     H131265   0.595   3.306   0.924
10341WAT     H231266   0.529   3.159   0.894
10342WAT      O31267   8.152   6.942   5.658
10342WAT     H131268   8.245   6.937   5.621
10342WAT     H231269   8.148   7.015   5.727
10343WAT      O31270   4.242   8.695   0.492
10343WAT     H131271   4.315   8.712   0.426
10343WAT     H231272   4.184   8.777   0.499
10344WAT      O31273   3.470   0.784   7.250
10344WAT     H131274   3.438   0.830   7.167
10344WAT     H231275   3.457   0.686   7.241
10345WAT      O31276   8.934   8.310   0.865
10345WAT     H131277   8.918   8.384   0.930
10345WAT     H231278   8.984   8.236   0.911
10346WAT      O31279   0.556   0.831   5.783
10346WAT     H131280   0.577   0.910   5.839
10346WAT     H231281   0.583   0.747   5.832
10347WAT      O31282   8.231   4.655   0.580
10347WAT     H131283   8.161   4.626   0.515
10347WAT     H231284   8.272   4.741   0.550
10348WAT      O31285   8.136   3.251   2.220
10348WAT     H131286   8.072   3.277   2.148
10348WAT     H231287   8.215   3.312   2.218
10349WAT      O31288   8.400   5.572   1.527
10349WAT     H131289   8.410   5.473   1.518
10349WAT     H231290   8.389   5.595   1.624
10350WAT      O31291   3.522   2.785   5.083
10350WAT     H131292   3.440   2.778   5.026
10350WAT     H231293   3.603   2.767   5.027
10351WAT      O31294   2.060   3.831   8.447
10351WAT     H131295   2.044   3.903   8.380
10351WAT     H231296   2.137   3.856   8.506
10352WAT      O31297   3.189   0.466   6.326
10352WAT     H131298   3.178   0.563   6.308
10352WAT     H231299   3.286   0.442   6.320
10353WAT      O31300   8.748   5.066   7.320
10353WAT     H131301   8.685   5.144   7.323
10353WAT     H231302   8.699   4.984   7.291
10354WAT      O31303   0.093   3.249   1.505
10354WAT     H131304   0.175   3.200   1.475
10354WAT     H231305   0.088   3.337   1.458
10355WAT      O31306   7.659   6.174   3.780
10355WAT     H131307   7.574   6.181   3.831
10355WAT     H231308   7.728   6.129   3.837
10356WAT      O31309   2.286   9.284   3.106
10356WAT     H131310   2.374   9.314   3.141
10356WAT     H231311   2.274   9.187   3.126
10357WAT      O31312   3.701   7.993   3.158
10357WAT     H131313   3.648   7.972   3.076
10357WAT     H231314   3.781   7.934   3.162
10358WAT      O31315   0.301   2.319   6.175
10358WAT     H131316   0.253   2.339   6.260
10358WAT     H231317   0.376   2.256   6.193
10359WAT      O31318   8.565   1.333   4.462
10359WAT     H131319   8.524   1.247   4.493
10359WAT     H231320   8.572   1.333   4.362
10360WAT      O31321   1.223   3.056   4.876
10360WAT     H131322   1.249   3.113   4.798
10360WAT     H231323   1.277   2.972   4.874
10361WAT      O31324   5.791   6.188   4.912
10361WAT     H131325   5.771   6.131   4.833
10361WAT     H231326   5.748   6.149   4.993
10362WAT      O31327   9.779   0.026   7.222
10362WAT     H131328   9.729   0.101   7.265
10362WAT     H231329   9.807  -0.040   7.291
10363WAT      O31330   4.950   5.295   5.121
10363WAT     H131331   4.887   5.226   5.085
10363WAT     H231332   5.021   5.313   5.053
10364WAT      O31333   0.442   6.244   8.595
10364WAT     H131334   0.450   6.145   8.587
10364WAT     H231335   0.532   6.286   8.585
10365WAT      O31336   7.409   2.310   5.488
10365WAT     H131337   7.506   2.332   5.500
10365WAT     H231338   7.380   2.251   5.563
10366WAT      O31339   0.411   4.686   1.768
10366WAT     H131340   0.385   4.637   1.685
10366WAT     H231341   0.336   4.681   1.834
10367WAT      O31342   0.589   8.307   5.245
10367WAT     H131343   0.550   8.217   5.227
10367WAT     H231344   0.662   8.300   5.313
10368WAT      O31345   7.404   3.384   3.702
10368WAT     H131346   7.307   3.363   3.694
10368WAT     H231347   7.457   3.324   3.641
10369WAT      O31348   2.131   7.925   3.552
10369WAT     H131349   2.124   7.852   3.484
10369WAT     H231350   2.215   7.977   3.536
10370WAT      O31351   5.794   1.339   7.721
10370WAT     H131352   5.759   1.268   7.659
10370WAT     H231353   5.819   1.419   7.667
10371WAT      O31354   8.452   5.965   8.166
10371WAT     H131355   8.413   6.043   8.117
10371WAT     H231356   8.549   5.981   8.182
10372WAT      O31357   4.976   5.911   6.203
10372WAT     H131358   5.027   5.861   6.133
10372WAT     H231359   5.012   6.004   6.211
10373WAT      O31360   3.943   0.598   6.245
10373WAT     H131361   3.925   0.693   6.270
10373WAT     H231362   3.950   0.590   6.145
10374WAT      O31363   8.293   6.568   5.329
10374WAT     H131364   8.269   6.571   5.426
10374WAT     H231365   8.210   6.565   5.273
10375WAT      O31366   8.492   7.777   1.370
10375WAT     H131367   8.413   7.728   1.406
10375WAT     H231368   8.467   7.817   1.281
10376WAT      O31369   5.841   8.139   2.038
10376WAT     H131370   5.768   8.200   2.070
10376WAT     H231371   5.877   8.172   1.951
10377WAT      O31372   0.160   4.411   8.858
10377WAT     H131373   0.207   4.357   8.787
10377WAT     H231374   0.220   4.421   8.937
10378WAT      O31375   7.836   4.185   7.229
10378WAT     H131376   7.874   4.163   7.139
10378WAT     H231377   7.908   4.220   7.289
10379WAT      O31378   9.001   1.942   8.221
10379WAT     H131379   9.085   1.891   8.242
10379WAT     H231380   8.925   1.903   8.274
10380WAT      O31381   2.930   2.818   6.265
10380WAT     H131382   3.003   2.778   6.321
10380WAT     H231383   2.845   2.768   6.282
10381WAT      O31384   5.026   7.687   2.148
10381WAT     H131385   5.093   7.688   2.073
10381WAT     H231386   4.934   7.691   2.110
10382WAT      O31387   1.179   1.544   9.713
10382WAT     H131388   1.080   1.533   9.719
10382WAT     H231389   1.215   1.575   9.801
10383WAT      O31390   8.080   7.366   9.170
10383WAT     H131391   8.175   7.335   9.169
10383WAT     H231392   8.029   7.317   9.240
10384WAT      O31393   5.056   9.329   8.933
10384WAT     H131394   5.055   9.414   8.880
10384WAT     H231395   5.073   9.252   8.872
10385WAT      O31396   6.776   3.137   1.308
10385WAT     H131397   6.869   3.160   1.280
10385WAT     H231398   6.712   3.203   1.269
10386WAT      O31399   0.027   0.216   4.124
10386WAT     H131400  -0.007   0.304   4.091
10386WAT     H231401   0.122   0.205   4.095
10387WAT      O31402   1.463   4.214   8.991
10387WAT     H131403   1.530   4.280   9.028
10387WAT     H231404   1.371   4.251   9.002
10388WAT      O31405   9.320   7.288   1.010
10388WAT     H131406   9.231   7.334   1.009
10388WAT     H231407   9.314   7.203   0.958
10389WAT      O31408   4.940   6.813   7.732
10389WAT     H131409   4.926   6.734   7.673
10389WAT     H231410   4.955   6.895   7.677
10390WAT      O31411   4.220   6.427   5.809
10390WAT     H131412   4.185   6.364   5.878
10390WAT     H231413   4.277   6.378   5.744
10391WAT      O31414   2.861   7.848   1.647
10391WAT     H131415   2.864   7.806   1.556
10391WAT     H231416   2.947   7.896   1.664
10392WAT      O31417   9.710   8.585   1.389
10392WAT     H131418   9.622   8.575   1.435
10392WAT     H231419   9.696   8.634   1.303
10393WAT      O31420   3.643   9.640   1.458
10393WAT     H131421   3.565   9.666   1.402
10393WAT     H231422   3.724   9.692   1.430
10394WAT      O31423   6.613   0.742   3.267
10394WAT     H131424   6.534   0.787   3.225
10394WAT     H231425   6.596   0.730   3.365
10395WAT      O31426   1.198   3.099   6.362
10395WAT     H131427   1.210   3.024   6.427
10395WAT     H231428   1.129   3.163   6.397
10396WAT      O31429   4.205   7.140   0.318
10396WAT     H131430   4.116   7.158   0.359
10396WAT     H231431   4.271   7.209   0.349
10397WAT      O31432   9.543   9.009   2.635
10397WAT     H131433   9.613   8.967   2.693
10397WAT     H231434   9.558   9.108   2.631
10398WAT      O31435   0.205   1.149   0.142
10398WAT     H131436   0.120   1.181   0.184
10398WAT     H231437   0.235   1.215   0.073
10399WAT      O31438   5.774   8.170   8.043
10399WAT     H131439   5.827   8.226   8.107
10399WAT     H231440   5.773   8.076   8.075
10400WAT      O31441   8.239   3.922   2.466
10400WAT     H131442   8.221   3.965   2.377
10400WAT     H231443   8.305   3.978   2.517
10401WAT      O31444   0.164   6.453   5.676
10401WAT     H131445   0.147   6.515   5.599
10401WAT     H231446   0.175   6.360   5.643
10402WAT      O31447   4.850   9.400   7.161
10402WAT     H131448   4.880   9.464   7.232
10402WAT     H231449   4.923   9.387   7.094
10403WAT      O31450   4.402   9.676   2.057
10403WAT     H131451   4.479   9.721   2.012
10403WAT     H231452   4.320   9.687   2.000
10404WAT      O31453   7.628   1.017   7.996
10404WAT     H131454   7.546   0.959   7.998
10404WAT     H231455   7.619   1.091   8.063
10405WAT      O31456   6.652   6.138   0.544
10405WAT     H131457   6.579   6.205   0.558
10405WAT     H231458   6.660   6.116   0.447
10406WAT      O31459   6.982   5.513   9.227
10406WAT     H131460   6.955   5.602   9.190
10406WAT     H231461   7.081   5.502   9.222
10407WAT      O31462   9.082   7.167   7.447
10407WAT     H131463   9.033   7.120   7.373
10407WAT     H231464   9.150   7.106   7.487
10408WAT      O31465   2.495   6.724   1.053
10408WAT     H131466   2.495   6.686   1.146
10408WAT     H231467   2.511   6.650   0.988
10409WAT      O31468   8.375   4.441   9.623
10409WAT     H131469   8.408   4.460   9.715
10409WAT     H231470   8.414   4.354   9.592
10410WAT      O31471   8.572   4.898   1.995
10410WAT     H131472   8.603   4.881   2.089
10410WAT     H231473   8.529   4.815   1.959
10411WAT      O31474   7.745   0.405   9.309
10411WAT     H131475   7.686   0.344   9.362
10411WAT     H231476   7.778   0.479   9.368
10412WAT      O31477   9.881   5.900   5.679
10412WAT     H131478   9.918   5.846   5.603
10412WAT     H231479   9.786   5.924   5.660
10413WAT      O31480   8.912   0.358   8.956
10413WAT     H131481   8.855   0.417   9.013
10413WAT     H231482   8.968   0.415   8.896
10414WAT      O31483   8.858   4.470   0.063
10414WAT     H131484   8.937   4.527   0.083
10414WAT     H231485   8.775   4.516   0.091
10415WAT      O31486   1.906   2.862   7.275
10415WAT     H131487   1.957   2.777   7.267
10415WAT     H231488   1.958   2.928   7.329
10416WAT      O31489   2.125   0.472   2.345
10416WAT     H131490   2.043   0.452   2.291
10416WAT     H231491   2.129   0.570   2.364
10417WAT      O31492   2.010   9.105   8.140
10417WAT     H131493   1.970   9.074   8.227
10417WAT     H231494   2.049   9.196   8.152
10418WAT      O31495   9.389   5.765   3.465
10418WAT     H131496   9.333   5.846   3.483
10418WAT     H231497   9.438   5.739   3.549
10419WAT      O31498   8.320   2.111   0.975
10419WAT     H131499   8.376   2.194   0.966
10419WAT     H231500   8.329   2.076   1.068
10420WAT      O31501   3.916   4.732   6.016
10420WAT     H131502   3.904   4.810   5.954
10420WAT     H231503   3.827   4.698   6.044
10421WAT      O31504   5.739   0.150   4.052
10421WAT     H131505   5.732   0.173   3.955
10421WAT     H231506   5.803   0.212   4.096
10422WAT      O31507   4.722   3.865   7.632
10422WAT     H131508   4.801   3.848   7.691
10422WAT     H231509   4.753   3.902   7.544
10423WAT      O31510   5.264   5.348   4.573
10423WAT     H131511   5.215   5.433   4.553
10423WAT     H231512   5.313   5.317   4.491
10424WAT      O31513   7.815   6.800   9.419
10424WAT     H131514   7.874   6.815   9.340
10424WAT     H231515   7.719   6.807   9.391
10425WAT      O31516   2.428   7.434   9.429
10425WAT     H131517   2.523   7.422   9.460
10425WAT     H231518   2.419   7.523   9.384
10426WAT      O31519   5.007   1.506   8.382
10426WAT     H131520   5.106   1.517   8.382
10426WAT     H231521   4.966   1.564   8.452
10427WAT      O31522   2.128   9.227   8.723
10427WAT     H131523   2.131   9.300   8.791
10427WAT     H231524   2.033   9.202   8.704
10428WAT      O31525   7.257   2.441   2.408
10428WAT     H131526   7.325   2.495   2.359
10428WAT     H231527   7.223   2.492   2.487
10429WAT      O31528   1.920   0.040   0.461
10429WAT     H131529   1.945   0.011   0.554
10429WAT     H231530   1.823   0.062   0.458
10430WAT      O31531   5.464   9.486   9.525
10430WAT     H131532   5.456   9.585   9.539
10430WAT     H231533   5.516   9.469   9.442
10431WAT      O31534   6.188   6.656   1.702
10431WAT     H131535   6.209   6.706   1.785
10431WAT     H231536   6.089   6.653   1.689
10432WAT      O31537   4.981   1.722   1.125
10432WAT     H131538   4.884   1.735   1.141
10432WAT     H231539   5.000   1.733   1.027
10433WAT      O31540   9.488   9.350   5.452
10433WAT     H131541   9.499   9.319   5.546
10433WAT     H231542   9.507   9.448   5.446
10434WAT      O31543   3.825   0.670   3.796
10434WAT     H131544   3.905   0.615   3.822
10434WAT     H231545   3.845   0.767   3.809
10435WAT      O31546   5.228   8.644   8.145
10435WAT     H131547   5.273   8.558   8.121
10435WAT     H231548   5.267   8.680   8.229
10436WAT      O31549   3.550   5.761   0.377
10436WAT     H131550   3.639   5.777   0.334
10436WAT     H231551   3.477   5.772   0.309
10437WAT      O31552   8.502   1.600   1.855
10437WAT     H131553   8.597   1.581   1.879
10437WAT     H231554   8.442   1.560   1.924
10438WAT      O31555   0.350   3.499   7.959
10438WAT     H131556   0.325   3.454   7.873
10438WAT     H231557   0.307   3.450   8.035
10439WAT      O31558   1.716   8.418   5.532
10439WAT     H131559   1.780   8.341   5.537
10439WAT     H231560   1.626   8.384   5.505
10440WAT      O31561   8.271   7.668   2.356
10440WAT     H131562   8.349   7.646   2.415
10440WAT     H231563   8.296   7.743   2.295
10441WAT      O31564   6.830   2.136   6.109
10441WAT     H131565   6.916   2.150   6.059
10441WAT     H231566   6.849   2.128   6.207
10442WAT      O31567   8.355   4.814   6.428
10442WAT     H131568   8.376   4.729   6.477
10442WAT     H231569   8.268   4.850   6.460
10443WAT      O31570   0.208   9.405   9.309
10443WAT     H131571   0.146   9.329   9.289
10443WAT     H231572   0.276   9.412   9.236
10444WAT      O31573   1.076   8.252   5.497
10444WAT     H131574   1.171   8.281   5.510
10444WAT     H231575   1.019   8.295   5.567
10445WAT      O31576   1.373   5.835   2.874
10445WAT     H131577   1.304   5.814   2.943
10445WAT     H231578   1.346   5.795   2.787
10446WAT      O31579   3.334   4.881   4.470
10446WAT     H131580   3.317   4.860   4.374
10446WAT     H231581   3.248   4.877   4.521
10447WAT      O31582   1.582   6.442   5.761
10447WAT     H131583   1.528   6.481   5.835
10447WAT     H231584   1.659   6.390   5.799
10448WAT      O31585   5.431   5.075   4.591
10448WAT     H131586   5.471   5.162   4.562
10448WAT     H231587   5.342   5.092   4.634
10449WAT      O31588   3.822   1.242   2.853
10449WAT     H131589   3.735   1.193   2.847
10449WAT     H231590   3.818   1.324   2.795
10450WAT      O31591   5.121   6.304   3.296
10450WAT     H131592   5.129   6.399   3.325
10450WAT     H231593   5.115   6.301   3.196
10451WAT      O31594   6.355   2.361   3.427
10451WAT     H131595   6.262   2.385   3.400
10451WAT     H231596   6.395   2.437   3.479
10452WAT      O31597   5.987   2.615   5.386
10452WAT     H131598   6.066   2.632   5.328
10452WAT     H231599   5.974   2.692   5.449
10453WAT      O31600   5.863   1.174   4.715
10453WAT     H131601   5.781   1.119   4.730
10453WAT     H231602   5.867   1.248   4.781
10454WAT      O31603   5.902   1.411   8.037
10454WAT     H131604   5.999   1.406   8.014
10454WAT     H231605   5.847   1.412   7.954
10455WAT      O31606   1.892   6.224   7.518
10455WAT     H131607   1.891   6.229   7.618
10455WAT     H231608   1.800   6.207   7.484
10456WAT      O31609   5.328   3.881   7.317
10456WAT     H131610   5.262   3.913   7.250
10456WAT     H231611   5.416   3.865   7.271
10457WAT      O31612   9.476   1.092   6.682
10457WAT     H131613   9.486   1.151   6.602
10457WAT     H231614   9.536   1.013   6.673
10458WAT      O31615   1.541   7.764   0.306
10458WAT     H131616   1.494   7.684   0.270
10458WAT     H231617   1.563   7.749   0.403
10459WAT      O31618   7.949   2.818   3.116
10459WAT     H131619   7.851   2.825   3.100
10459WAT     H231620   7.984   2.735   3.073
10460WAT      O31621   5.055   4.422   8.533
10460WAT     H131622   5.071   4.447   8.628
10460WAT     H231623   4.962   4.386   8.523
10461WAT      O31624   7.426   6.771   6.661
10461WAT     H131625   7.414   6.839   6.589
10461WAT     H231626   7.451   6.683   6.621
10462WAT      O31627   9.384   2.402   3.355
10462WAT     H131628   9.307   2.411   3.419
10462WAT     H231629   9.459   2.353   3.399
10463WAT      O31630   8.279   7.972   8.032
10463WAT     H131631   8.264   7.948   8.128
10463WAT     H231632   8.194   7.956   7.981
10464WAT      O31633   4.609   7.564   5.606
10464WAT     H131634   4.509   7.560   5.597
10464WAT     H231635   4.633   7.599   5.697
10465WAT      O31636   4.855   9.721   1.321
10465WAT     H131637   4.827   9.749   1.230
10465WAT     H231638   4.823   9.628   1.339
10466WAT      O31639   6.771   6.579   9.791
10466WAT     H131640   6.761   6.625   9.879
10466WAT     H231641   6.833   6.631   9.733
10467WAT      O31642   0.284   6.627   8.689
10467WAT     H131643   0.357   6.630   8.620
10467WAT     H231644   0.300   6.551   8.752
10468WAT      O31645   2.642   9.117   1.012
10468WAT     H131646   2.583   9.136   1.091
10468WAT     H231647   2.738   9.124   1.040
10469WAT      O31648   9.840   8.063   9.018
10469WAT     H131649   9.833   8.002   8.940
10469WAT     H231650   9.802   8.152   8.995
10470WAT      O31651   7.899   6.797   5.737
10470WAT     H131652   7.944   6.716   5.775
10470WAT     H231653   7.958   6.840   5.670
10471WAT      O31654   4.018   7.807   0.963
10471WAT     H131655   4.025   7.889   0.906
10471WAT     H231656   4.085   7.739   0.932
10472WAT      O31657   8.253   7.366   4.280
10472WAT     H131658   8.243   7.335   4.186
10472WAT     H231659   8.194   7.445   4.296
10473WAT      O31660   2.010   9.243   6.497
10473WAT     H131661   1.916   9.271   6.480
10473WAT     H231662   2.071   9.323   6.488
10474WAT      O31663   4.399   6.893   8.384
10474WAT     H131664   4.422   6.947   8.303
10474WAT     H231665   4.402   6.796   8.360
10475WAT      O31666   9.572   0.473   2.767
10475WAT     H131667   9.594   0.468   2.864
10475WAT     H231668   9.590   0.565   2.733
10476WAT      O31669   6.805   1.201   0.366
10476WAT     H131670   6.793   1.108   0.333
10476WAT     H231671   6.882   1.205   0.430
10477WAT      O31672   6.569   6.053   7.997
10477WAT     H131673   6.490   6.108   8.026
10477WAT     H231674   6.539   5.981   7.935
10478WAT      O31675   1.247   6.671   7.880
10478WAT     H131676   1.284   6.591   7.832
10478WAT     H231677   1.162   6.646   7.926
10479WAT      O31678   1.395   0.473   7.049
10479WAT     H131679   1.349   0.494   6.963
10479WAT     H231680   1.413   0.557   7.099
10480WAT      O31681   4.607   0.162   3.094
10480WAT     H131682   4.627   0.070   3.061
10480WAT     H231683   4.546   0.157   3.173
10481WAT      O31684   6.066   4.254   9.683
10481WAT     H131685   6.130   4.306   9.740
10481WAT     H231686   6.116   4.190   9.626
10482WAT      O31687   0.862   4.319   9.294
10482WAT     H131688   0.820   4.310   9.384
10482WAT     H231689   0.904   4.231   9.269
10483WAT      O31690   8.106   8.498   6.746
10483WAT     H131691   8.064   8.546   6.823
10483WAT     H231692   8.084   8.401   6.751
10484WAT      O31693   7.621   1.150   8.690
10484WAT     H131694   7.581   1.201   8.767
10484WAT     H231695   7.630   1.054   8.715
10485WAT      O31696   8.292   8.442   5.369
10485WAT     H131697   8.308   8.473   5.276
10485WAT     H231698   8.302   8.519   5.432
10486WAT      O31699   3.704   8.890   3.881
10486WAT     H131700   3.776   8.847   3.826
10486WAT     H231701   3.746   8.950   3.949
10487WAT      O31702   2.602   5.228   2.621
10487WAT     H131703   2.552   5.277   2.549
10487WAT     H231704   2.668   5.166   2.579
10488WAT      O31705   9.198   8.026   7.302
10488WAT     H131706   9.243   8.001   7.217
10488WAT     H231707   9.124   8.091   7.283
10489WAT      O31708   2.784   0.008   7.244
10489WAT     H131709   2.760  -0.087   7.265
10489WAT     H231710   2.809   0.015   7.148
10490WAT      O31711   8.730   8.053   0.545
10490WAT     H131712   8.639   8.015   0.525
10490WAT     H231713   8.754   8.120   0.475
10491WAT      O31714   7.981   9.514   7.727
10491WAT     H131715   8.037   9.587   7.689
10491WAT     H231716   8.039   9.434   7.745
10492WAT      O31717   8.700   1.071   1.708
10492WAT     H131718   8.603   1.047   1.702
10492WAT     H231719   8.724   1.092   1.803
10493WAT      O31720   7.925   2.387   8.458
10493WAT     H131721   7.841   2.338   8.481
10493WAT     H231722   7.901   2.474   8.415
10494WAT      O31723   9.782   3.274   4.472
10494WAT     H131724   9.836   3.335   4.415
10494WAT     H231725   9.697   3.320   4.499
10495WAT      O31726   2.753   4.072   4.893
10495WAT     H131727   2.782   3.991   4.944
10495WAT     H231728   2.824   4.097   4.828
10496WAT      O31729   7.069   4.731   2.177
10496WAT     H131730   7.064   4.656   2.244
10496WAT     H231731   7.051   4.818   2.224
10497WAT      O31732   6.414   4.673   7.084
10497WAT     H131733   6.469   4.602   7.128
10497WAT     H231734   6.462   4.709   7.004
10498WAT      O31735   2.884   1.785   9.749
10498WAT     H131736   2.875   1.815   9.654
10498WAT     H231737   2.949   1.844   9.796
10499WAT      O31738   0.152   8.449   6.466
10499WAT     H131739   0.178   8.544   6.482
10499WAT     H231740   0.166   8.397   6.550
10500WAT      O31741   4.496   2.871   3.530
10500WAT     H131742   4.434   2.921   3.590
10500WAT     H231743   4.499   2.916   3.440
10501WAT      O31744   1.193   7.317   0.719
10501WAT     H131745   1.226   7.361   0.636
10501WAT     H231746   1.105   7.358   0.745
10502WAT      O31747   9.887   1.320   2.381
10502WAT     H131748   9.943   1.329   2.463
10502WAT     H231749   9.867   1.411   2.344
10503WAT      O31750   0.259   1.655   0.843
10503WAT     H131751   0.210   1.635   0.758
10503WAT     H231752   0.221   1.600   0.917
10504WAT      O31753   7.156   3.662   5.048
10504WAT     H131754   7.122   3.574   5.083
10504WAT     H231755   7.083   3.708   4.997
10505WAT      O31756   9.273   6.433   0.493
10505WAT     H131757   9.194   6.494   0.481
10505WAT     H231758   9.244   6.350   0.540
10506WAT      O31759   5.462   2.722   1.035
10506WAT     H131760   5.365   2.720   1.014
10506WAT     H231761   5.487   2.642   1.089
10507WAT      O31762   2.483   3.024   2.656
10507WAT     H131763   2.551   3.083   2.613
10507WAT     H231764   2.410   3.079   2.695
10508WAT      O31765   5.193   9.517   2.651
10508WAT     H131766   5.197   9.616   2.641
10508WAT     H231767   5.151   9.477   2.569
10509WAT      O31768   3.595   6.621   1.479
10509WAT     H131769   3.655   6.543   1.494
10509WAT     H231770   3.631   6.701   1.528
10510WAT      O31771   4.489   5.115   1.867
10510WAT     H131772   4.510   5.212   1.872
10510WAT     H231773   4.528   5.068   1.946
10511WAT      O31774   2.823   8.093   7.561
10511WAT     H131775   2.753   8.144   7.610
10511WAT     H231776   2.780   8.019   7.510
10512WAT      O31777   5.899   5.163   0.422
10512WAT     H131778   5.827   5.095   0.408
10512WAT     H231779   5.859   5.255   0.416
10513WAT      O31780   2.690   5.405   0.042
10513WAT     H131781   2.748   5.337  -0.002
10513WAT     H231782   2.742   5.488   0.060
10514WAT      O31783   1.208   5.322   1.027
10514WAT     H131784   1.187   5.269   1.109
10514WAT     H231785   1.197   5.420   1.046
10515WAT      O31786   0.334   7.335   4.597
10515WAT     H131787   0.351   7.369   4.689
10515WAT     H231788   0.248   7.283   4.596
10516WAT      O31789   5.705   3.442   2.031
10516WAT     H131790   5.668   3.357   2.071
10516WAT     H231791   5.802   3.429   2.010
10517WAT      O31792   5.527   6.439   1.771
10517WAT     H131793   5.499   6.524   1.726
10517WAT     H231794   5.449   6.377   1.774
10518WAT      O31795   4.483   2.477   6.016
10518WAT     H131796   4.528   2.565   6.000
10518WAT     H231797   4.551   2.404   6.013
10519WAT      O31798   0.084   3.646   3.220
10519WAT     H131799   0.175   3.645   3.260
10519WAT     H231800   0.027   3.713   3.268
10520WAT      O31801   4.482   0.032   8.735
10520WAT     H131802   4.483  -0.064   8.763
10520WAT     H231803   4.524   0.041   8.645
10521WAT      O31804   2.037   4.039   9.635
10521WAT     H131805   2.053   4.007   9.728
10521WAT     H231806   1.951   4.091   9.633
10522WAT      O31807   2.778   4.719   1.829
10522WAT     H131808   2.867   4.679   1.810
10522WAT     H231809   2.720   4.714   1.748
10523WAT      O31810   4.873   8.016   9.199
10523WAT     H131811   4.782   8.008   9.240
10523WAT     H231812   4.936   8.057   9.264
10524WAT      O31813   0.926   9.757   0.488
10524WAT     H131814   1.017   9.743   0.528
10524WAT     H231815   0.879   9.669   0.481
10525WAT      O31816   8.889   2.982   7.873
10525WAT     H131817   8.901   2.888   7.840
10525WAT     H231818   8.971   3.011   7.922
10526WAT      O31819   3.665   7.338   2.589
10526WAT     H131820   3.692   7.242   2.591
10526WAT     H231821   3.609   7.356   2.509
10527WAT      O31822   2.827   8.305   7.345
10527WAT     H131823   2.907   8.313   7.287
10527WAT     H231824   2.816   8.210   7.374
10528WAT      O31825   9.776   9.092   7.366
10528WAT     H131826   9.862   9.115   7.321
10528WAT     H231827   9.701   9.098   7.299
10529WAT      O31828   9.758   0.053   9.168
10529WAT     H131829   9.807   0.077   9.084
10529WAT     H231830   9.678   0.112   9.177
10530WAT      O31831   6.421   0.194   9.238
10530WAT     H131832   6.469   0.159   9.318
10530WAT     H231833   6.486   0.213   9.165
10531WAT      O31834   8.174   5.354   6.031
10531WAT     H131835   8.093   5.334   6.087
10531WAT     H231836   8.204   5.448   6.050
10532WAT      O31837   0.300   3.564   5.861
10532WAT     H131838   0.397   3.563   5.838
10532WAT     H231839   0.289   3.597   5.955
10533WAT      O31840   9.710   6.363   3.221
10533WAT     H131841   9.786   6.380   3.158
10533WAT     H231842   9.649   6.294   3.182
10534WAT      O31843   7.449   5.042   9.013
10534WAT     H131844   7.488   4.961   9.057
10534WAT     H231845   7.432   5.022   8.917
10535WAT      O31846   7.716   2.373   4.399
10535WAT     H131847   7.691   2.447   4.337
10535WAT     H231848   7.699   2.400   4.493
10536WAT      O31849   6.390   0.811   1.725
10536WAT     H131850   6.460   0.856   1.781
10536WAT     H231851   6.428   0.789   1.635
10537WAT      O31852   4.495   9.690   7.952
10537WAT     H131853   4.461   9.628   7.881
10537WAT     H231854   4.528   9.636   8.030
10538WAT      O31855   1.248   7.161   3.106
10538WAT     H131856   1.340   7.190   3.077
10538WAT     H231857   1.182   7.233   3.085
10539WAT      O31858   8.814   3.063   5.220
10539WAT     H131859   8.859   3.103   5.140
10539WAT     H231860   8.855   3.100   5.303
10540WAT      O31861   4.892   8.211   4.715
10540WAT     H131862   4.929   8.119   4.704
10540WAT     H231863   4.951   8.264   4.776
10541WAT      O31864   7.850   6.085   2.245
10541WAT     H131865   7.829   6.118   2.337
10541WAT     H231866   7.831   5.987   2.239
10542WAT      O31867   0.290   1.657   7.594
10542WAT     H131868   0.333   1.745   7.572
10542WAT     H231869   0.206   1.674   7.646
10543WAT      O31870   3.615   1.078   2.770
10543WAT     H131871   3.523   1.047   2.796
10543WAT     H231872   3.665   1.003   2.728
10544WAT      O31873   2.357   7.661   4.987
10544WAT     H131874   2.263   7.652   4.952
10544WAT     H231875   2.418   7.689   4.913
10545WAT      O31876   0.699   4.422   8.488
10545WAT     H131877   0.660   4.514   8.498
10545WAT     H231878   0.773   4.425   8.421
10546WAT      O31879   8.747   0.406   7.009
10546WAT     H131880   8.714   0.493   7.046
10546WAT     H231881   8.687   0.376   6.935
10547WAT      O31882   4.301   2.804   2.941
10547WAT     H131883   4.296   2.870   2.866
10547WAT     H231884   4.279   2.713   2.907
10548WAT      O31885   2.596   6.089   4.201
10548WAT     H131886   2.510   6.137   4.219
10548WAT     H231887   2.616   6.027   4.277
10549WAT      O31888   9.091   5.724   2.019
10549WAT     H131889   9.050   5.718   2.110
10549WAT     H231890   9.049   5.799   1.968
10550WAT      O31891   1.461   1.538   9.458
10550WAT     H131892   1.373   1.536   9.409
10550WAT     H231893   1.476   1.630   9.495
10551WAT      O31894   7.382   6.351   0.062
10551WAT     H131895   7.464   6.408   0.063
10551WAT     H231896   7.311   6.393   0.118
10552WAT      O31897   4.575   2.924   4.328
10552WAT     H131898   4.649   2.949   4.266
10552WAT     H231899   4.547   3.004   4.381
10553WAT      O31900   8.765   2.129   8.755
10553WAT     H131901   8.768   2.061   8.829
10553WAT     H231902   8.858   2.157   8.732
10554WAT      O31903   6.332   6.475   9.150
10554WAT     H131904   6.431   6.474   9.167
10554WAT     H231905   6.313   6.442   9.058
10555WAT      O31906   0.223   5.041   4.947
10555WAT     H131907   0.289   4.966   4.937
10555WAT     H231908   0.131   5.008   4.926
10556WAT      O31909   2.048   5.411   0.697
10556WAT     H131910   1.973   5.385   0.637
10556WAT     H231911   2.039   5.508   0.721
10557WAT      O31912   3.903   8.536   6.559
10557WAT     H131913   3.945   8.626   6.575
10557WAT     H231914   3.828   8.522   6.623
10558WAT      O31915   0.016   6.466   5.372
10558WAT     H131916   0.084   6.414   5.319
10558WAT     H231917   0.060   6.546   5.413
10559WAT      O31918   1.460   3.637   4.451
10559WAT     H131919   1.488   3.702   4.380
10559WAT     H231920   1.366   3.658   4.480
10560WAT      O31921   9.423   2.848   0.947
10560WAT     H131922   9.422   2.807   1.038
10560WAT     H231923   9.468   2.786   0.882
10561WAT      O31924   2.103   2.784   6.205
10561WAT     H131925   2.164   2.708   6.227
10561WAT     H231926   2.102   2.849   6.281
10562WAT      O31927   7.801   8.380   6.003
10562WAT     H131928   7.711   8.365   6.042
10562WAT     H231929   7.799   8.461   5.944
10563WAT      O31930   3.411   4.023   1.481
10563WAT     H131931   3.325   4.001   1.435
10563WAT     H231932   3.429   3.956   1.552
10564WAT      O31933   1.425   8.152   9.104
10564WAT     H131934   1.466   8.220   9.165
10564WAT     H231935   1.381   8.080   9.159
10565WAT      O31936   9.253   3.269   2.825
10565WAT     H131937   9.205   3.197   2.875
10565WAT     H231938   9.308   3.228   2.752
10566WAT      O31939   2.690   4.330   1.553
10566WAT     H131940   2.727   4.332   1.646
10566WAT     H231941   2.755   4.373   1.491
10567WAT      O31942   1.778   7.227   2.011
10567WAT     H131943   1.862   7.221   1.957
10567WAT     H231944   1.764   7.322   2.041
10568WAT      O31945   0.671   0.770   8.966
10568WAT     H131946   0.700   0.796   9.058
10568WAT     H231947   0.572   0.753   8.966
10569WAT      O31948   0.042   6.635   0.192
10569WAT     H131949  -0.046   6.661   0.232
10569WAT     H231950   0.097   6.717   0.178
10570WAT      O31951   6.036   2.887   1.879
10570WAT     H131952   6.002   2.808   1.931
10570WAT     H231953   5.994   2.887   1.788
10571WAT      O31954   1.127   7.701   9.259
10571WAT     H131955   1.188   7.723   9.335
10571WAT     H231956   1.073   7.782   9.236
10572WAT      O31957   0.673   8.990   7.227
10572WAT     H131958   0.708   8.918   7.168
10572WAT     H231959   0.589   8.958   7.273
10573WAT      O31960   3.540   2.833   0.482
10573WAT     H131961   3.441   2.838   0.493
10573WAT     H231962   3.562   2.763   0.414
10574WAT      O31963   1.236   3.455   5.894
10574WAT     H131964   1.153   3.512   5.894
10574WAT     H231965   1.222   3.376   5.834
10575WAT      O31966   1.043   5.260   5.917
10575WAT     H131967   0.999   5.245   6.005
10575WAT     H231968   1.081   5.173   5.883
10576WAT      O31969   3.153   5.831   6.941
10576WAT     H131970   3.174   5.833   7.039
10576WAT     H231971   3.236   5.852   6.890
10577WAT      O31972   3.406   5.690   3.079
10577WAT     H131973   3.478   5.753   3.107
10577WAT     H231974   3.319   5.739   3.076
10578WAT      O31975   8.755   2.726   9.464
10578WAT     H131976   8.715   2.727   9.556
10578WAT     H231977   8.854   2.720   9.471
10579WAT      O31978   8.683   4.774   2.222
10579WAT     H131979   8.673   4.678   2.197
10579WAT     H231980   8.634   4.792   2.307
10580WAT      O31981   6.774   0.247   9.675
10580WAT     H131982   6.730   0.304   9.607
10580WAT     H231983   6.866   0.222   9.644
10581WAT      O31984   4.248   0.133   1.841
10581WAT     H131985   4.279   0.123   1.746
10581WAT     H231986   4.242   0.230   1.864
10582WAT      O31987   2.651   1.593   6.348
10582WAT     H131988   2.706   1.638   6.278
10582WAT     H231989   2.685   1.618   6.439
10583WAT      O31990   6.436   8.741   9.648
10583WAT     H131991   6.527   8.748   9.689
10583WAT     H231992   6.436   8.668   9.580
10584WAT      O31993   7.976   5.010   9.058
10584WAT     H131994   8.008   5.079   8.993
10584WAT     H231995   7.911   4.950   9.013
10585WAT      O31996   0.547   1.827   6.252
10585WAT     H131997   0.497   1.870   6.327
10585WAT     H231998   0.644   1.852   6.257
10586WAT      O31999   1.024   6.049   9.124
10586WAT     H132000   1.100   6.072   9.185
10586WAT     H232001   0.954   6.120   9.129
10587WAT      O32002   1.400   3.308   0.360
10587WAT     H132003   1.457   3.297   0.441
10587WAT     H232004   1.416   3.233   0.296
10588WAT      O32005   8.291   1.290   4.675
10588WAT     H132006   8.335   1.246   4.597
10588WAT     H232007   8.294   1.230   4.754
10589WAT      O32008   5.367   5.715   6.426
10589WAT     H132009   5.359   5.779   6.350
10589WAT     H232010   5.293   5.732   6.492
10590WAT      O32011   8.661   4.666   0.207
10590WAT     H132012   8.574   4.682   0.254
10590WAT     H232013   8.651   4.690   0.111
10591WAT      O32014   7.132   1.706   0.179
10591WAT     H132015   7.150   1.740   0.271
10591WAT     H232016   7.119   1.783   0.117
10592WAT      O32017   8.093   0.172   7.730
10592WAT     H132018   7.995   0.161   7.749
10592WAT     H232019   8.125   0.257   7.772
10593WAT      O32020   2.506   2.115   2.469
10593WAT     H132021   2.603   2.099   2.486
10593WAT     H232022   2.489   2.118   2.370
10594WAT      O32023   6.396   7.178   4.096
10594WAT     H132024   6.486   7.220   4.107
10594WAT     H232025   6.407   7.079   4.081
10595WAT      O32026   6.469   1.032   8.480
10595WAT     H132027   6.417   1.003   8.399
10595WAT     H232028   6.566   1.013   8.467
10596WAT      O32029   6.943   5.106   8.469
10596WAT     H132030   7.043   5.105   8.479
10596WAT     H232031   6.920   5.117   8.373
10597WAT      O32032   8.086   0.884   8.552
10597WAT     H132033   8.156   0.955   8.555
10597WAT     H232034   8.070   0.857   8.457
10598WAT      O32035   7.924   4.581   1.153
10598WAT     H132036   7.986   4.655   1.128
10598WAT     H232037   7.894   4.592   1.247
10599WAT      O32038   1.254   7.475   6.647
10599WAT     H132039   1.205   7.548   6.694
10599WAT     H232040   1.227   7.474   6.550
10600WAT      O32041   6.192   8.929   6.160
10600WAT     H132042   6.151   8.856   6.215
10600WAT     H232043   6.180   8.907   6.063
10601WAT      O32044   5.502   5.156   0.492
10601WAT     H132045   5.547   5.146   0.403
10601WAT     H232046   5.509   5.071   0.543
10602WAT      O32047   9.703   3.559   6.346
10602WAT     H132048   9.662   3.563   6.255
10602WAT     H232049   9.672   3.636   6.401
10603WAT      O32050   4.944   4.649   4.529
10603WAT     H132051   4.935   4.732   4.474
10603WAT     H232052   5.008   4.664   4.604
10604WAT      O32053   7.041   4.297   7.343
10604WAT     H132054   7.109   4.368   7.325
10604WAT     H232055   7.080   4.229   7.406
10605WAT      O32056   0.559   3.219   2.834
10605WAT     H132057   0.472   3.186   2.798
10605WAT     H232058   0.576   3.312   2.799
10606WAT      O32059   8.647   5.635   6.975
10606WAT     H132060   8.745   5.654   6.986
10606WAT     H232061   8.597   5.721   6.967
10607WAT      O32062   2.313   5.316   6.413
10607WAT     H132063   2.276   5.239   6.464
10607WAT     H232064   2.398   5.290   6.368
10608WAT      O32065   2.466   5.799   5.954
10608WAT     H132066   2.518   5.714   5.963
10608WAT     H232067   2.512   5.859   5.888
10609WAT      O32068   6.473   7.989   4.707
10609WAT     H132069   6.530   7.910   4.731
10609WAT     H232070   6.507   8.029   4.622
10610WAT      O32071   2.586   3.770   9.396
10610WAT     H132072   2.504   3.736   9.440
10610WAT     H232073   2.608   3.861   9.432
10611WAT      O32074   8.813   7.581   3.018
10611WAT     H132075   8.869   7.660   2.996
10611WAT     H232076   8.762   7.551   2.937
10612WAT      O32077   8.948   3.759   6.532
10612WAT     H132078   8.992   3.722   6.614
10612WAT     H232079   8.940   3.858   6.539
10613WAT      O32080   1.731   2.843   0.313
10613WAT     H132081   1.768   2.886   0.396
10613WAT     H232082   1.702   2.914   0.248
10614WAT      O32083   1.032   2.230   3.655
10614WAT     H132084   1.118   2.210   3.609
10614WAT     H232085   1.043   2.311   3.713
10615WAT      O32086   1.428   5.313   1.551
10615WAT     H132087   1.497   5.303   1.623
10615WAT     H232088   1.461   5.377   1.482
10616WAT      O32089   4.667   0.654   2.689
10616WAT     H132090   4.764   0.664   2.711
10616WAT     H232091   4.613   0.673   2.771
10617WAT      O32092   8.653   2.863   5.200
10617WAT     H132093   8.566   2.873   5.248
10617WAT     H232094   8.700   2.952   5.198
10618WAT      O32095   5.455   8.082   6.892
10618WAT     H132096   5.500   8.163   6.930
10618WAT     H232097   5.492   8.063   6.801
10619WAT      O32098   4.698   6.749   8.695
10619WAT     H132099   4.681   6.789   8.785
10619WAT     H232100   4.611   6.733   8.648
10620WAT      O32101   2.900   8.399   3.323
10620WAT     H132102   2.855   8.344   3.393
10620WAT     H232103   2.929   8.486   3.362
10621WAT      O32104   8.375   9.731   0.734
10621WAT     H132105   8.387   9.811   0.794
10621WAT     H232106   8.286   9.688   0.753
10622WAT      O32107   0.686   7.274   8.169
10622WAT     H132108   0.689   7.359   8.220
10622WAT     H232109   0.731   7.286   8.080
10623WAT      O32110   7.245   5.886   8.022
10623WAT     H132111   7.222   5.797   8.062
10623WAT     H232112   7.165   5.922   7.974
10624WAT      O32113   1.054   7.113   0.354
10624WAT     H132114   1.008   7.026   0.366
10624WAT     H232115   1.045   7.144   0.260
10625WAT      O32116   6.573   0.816   1.146
10625WAT     H132117   6.667   0.840   1.119
10625WAT     H232118   6.510   0.886   1.113
10626WAT      O32119   2.219   2.545   3.097
10626WAT     H132120   2.152   2.588   3.035
10626WAT     H232121   2.304   2.527   3.047
10627WAT      O32122   0.708   2.107   8.704
10627WAT     H132123   0.748   2.017   8.682
10627WAT     H232124   0.753   2.177   8.649
10628WAT      O32125   1.617   0.291   8.196
10628WAT     H132126   1.535   0.242   8.225
10628WAT     H232127   1.596   0.343   8.113
10629WAT      O32128   2.935   7.680   4.140
10629WAT     H132129   2.973   7.604   4.193
10629WAT     H232130   2.987   7.690   4.055
10630WAT      O32131   6.320   6.907   5.637
10630WAT     H132132   6.358   6.990   5.595
10630WAT     H232133   6.387   6.833   5.631
10631WAT      O32134   2.335   8.087   8.948
10631WAT     H132135   2.277   8.169   8.945
10631WAT     H232136   2.431   8.115   8.959
10632WAT      O32137   9.184   8.438   9.115
10632WAT     H132138   9.106   8.483   9.159
10632WAT     H232139   9.152   8.382   9.039
10633WAT      O32140   8.473   6.186   0.718
10633WAT     H132141   8.556   6.152   0.674
10633WAT     H232142   8.440   6.267   0.670
10634WAT      O32143   4.146   7.501   9.150
10634WAT     H132144   4.184   7.534   9.063
10634WAT     H232145   4.221   7.473   9.210
10635WAT      O32146   3.416   4.442   7.864
10635WAT     H132147   3.352   4.373   7.830
10635WAT     H232148   3.408   4.524   7.807
10636WAT      O32149   5.757   7.670   9.691
10636WAT     H132150   5.847   7.648   9.654
10636WAT     H232151   5.712   7.734   9.629
10637WAT      O32152   0.626   6.891   2.602
10637WAT     H132153   0.628   6.829   2.524
10637WAT     H232154   0.617   6.985   2.569
10638WAT      O32155   4.539   8.108   3.197
10638WAT     H132156   4.482   8.172   3.249
10638WAT     H232157   4.554   8.143   3.105
10639WAT      O32158   9.058   8.912   7.236
10639WAT     H132159   9.084   8.895   7.331
10639WAT     H232160   9.140   8.911   7.178
10640WAT      O32161   3.385   6.691   5.292
10640WAT     H132162   3.454   6.704   5.220
10640WAT     H232163   3.382   6.772   5.350
10641WAT      O32164   2.679   2.130   5.145
10641WAT     H132165   2.767   2.171   5.168
10641WAT     H232166   2.624   2.121   5.228
10642WAT      O32167   3.878   9.383   4.790
10642WAT     H132168   3.952   9.335   4.744
10642WAT     H232169   3.857   9.468   4.740
10643WAT      O32170   8.588   9.078   8.032
10643WAT     H132171   8.664   9.016   8.051
10643WAT     H232172   8.579   9.144   8.106
10644WAT      O32173   2.305   0.173   2.793
10644WAT     H132174   2.255   0.259   2.802
10644WAT     H232175   2.403   0.191   2.792
10645WAT      O32176   0.627   0.639   6.660
10645WAT     H132177   0.641   0.701   6.583
10645WAT     H232178   0.705   0.646   6.722
10646WAT      O32179   1.667   7.063   3.470
10646WAT     H132180   1.727   7.041   3.393
10646WAT     H232181   1.611   7.143   3.448
10647WAT      O32182   7.727   2.149   3.450
10647WAT     H132183   7.775   2.237   3.442
10647WAT     H232184   7.705   2.132   3.546
10648WAT      O32185   7.687   4.634   4.624
10648WAT     H132186   7.665   4.557   4.564
10648WAT     H232187   7.785   4.636   4.642
10649WAT      O32188   0.915   3.599   0.899
10649WAT     H132189   1.001   3.593   0.949
10649WAT     H232190   0.885   3.694   0.896
10650WAT      O32191   8.633   8.266   4.428
10650WAT     H132192   8.598   8.327   4.356
10650WAT     H232193   8.563   8.199   4.452
10651WAT      O32194   6.355   6.177   3.302
10651WAT     H132195   6.340   6.100   3.364
10651WAT     H232196   6.404   6.146   3.221
10652WAT      O32197   7.979   1.542   6.599
10652WAT     H132198   8.012   1.571   6.689
10652WAT     H232199   7.995   1.443   6.589
10653WAT      O32200   5.845   3.131   2.122
10653WAT     H132201   5.925   3.117   2.064
10653WAT     H232202   5.874   3.135   2.218
10654WAT      O32203   8.100   2.415   7.271
10654WAT     H132204   8.145   2.353   7.207
10654WAT     H232205   8.148   2.414   7.358
10655WAT      O32206   2.170   6.362   9.184
10655WAT     H132207   2.123   6.441   9.144
10655WAT     H232208   2.235   6.325   9.119
10656WAT      O32209   1.458   9.243   2.679
10656WAT     H132210   1.380   9.193   2.643
10656WAT     H232211   1.504   9.188   2.749
10657WAT      O32212   5.886   7.287   0.599
10657WAT     H132213   5.955   7.216   0.586
10657WAT     H232214   5.904   7.337   0.684
10658WAT      O32215   6.143   3.096   4.666
10658WAT     H132216   6.079   3.048   4.606
10658WAT     H232217   6.133   3.195   4.654
10659WAT      O32218   5.842   6.375   6.208
10659WAT     H132219   5.827   6.386   6.306
10659WAT     H232220   5.804   6.454   6.159
10660WAT      O32221   7.594   3.597   4.062
10660WAT     H132222   7.667   3.659   4.031
10660WAT     H232223   7.538   3.644   4.130
10661WAT      O32224   9.364   6.514   4.465
10661WAT     H132225   9.402   6.581   4.529
10661WAT     H232226   9.381   6.422   4.500
10662WAT      O32227   9.267   5.887   7.095
10662WAT     H132228   9.319   5.809   7.060
10662WAT     H232229   9.234   5.867   7.187
10663WAT      O32230   4.482   2.033   0.605
10663WAT     H132231   4.442   2.068   0.520
10663WAT     H232232   4.579   2.059   0.610
10664WAT      O32233   1.290   2.489   4.173
10664WAT     H132234   1.316   2.410   4.229
10664WAT     H232235   1.193   2.485   4.152
10665WAT      O32236   3.720   8.632   0.513
10665WAT     H132237   3.712   8.644   0.414
10665WAT     H232238   3.650   8.568   0.544
10666WAT      O32239   5.925   2.264   3.218
10666WAT     H132240   6.014   2.281   3.177
10666WAT     H232241   5.873   2.200   3.161
10667WAT      O32242   8.982   0.951   3.082
10667WAT     H132243   8.904   0.958   3.019
10667WAT     H232244   9.049   0.886   3.046
10668WAT      O32245   8.930   1.247   8.639
10668WAT     H132246   8.935   1.209   8.547
10668WAT     H232247   9.020   1.240   8.683
10669WAT      O32248   5.005   6.597   2.104
10669WAT     H132249   4.942   6.582   2.028
10669WAT     H232250   5.064   6.675   2.085
10670WAT      O32251   4.486   6.519   9.436
10670WAT     H132252   4.546   6.591   9.471
10670WAT     H232253   4.408   6.560   9.389
10671WAT      O32254   3.979   2.017   8.031
10671WAT     H132255   4.033   1.944   7.989
10671WAT     H232256   3.979   2.098   7.971
10672WAT      O32257   9.306   6.573   3.431
10672WAT     H132258   9.351   6.625   3.358
10672WAT     H232259   9.349   6.593   3.518
10673WAT      O32260   1.451   1.291   1.135
10673WAT     H132261   1.470   1.200   1.098
10673WAT     H232262   1.479   1.361   1.068
10674WAT      O32263   3.822   2.294   5.746
10674WAT     H132264   3.906   2.314   5.797
10674WAT     H232265   3.782   2.209   5.782
10675WAT      O32266   3.436   7.390   3.882
10675WAT     H132267   3.436   7.347   3.792
10675WAT     H232268   3.451   7.489   3.871
10676WAT      O32269   3.478   2.219   1.339
10676WAT     H132270   3.384   2.238   1.368
10676WAT     H232271   3.496   2.265   1.253
10677WAT      O32272   5.927   0.475   8.120
10677WAT     H132273   5.968   0.558   8.158
10677WAT     H232274   5.981   0.395   8.147
10678WAT      O32275   8.568   8.817   4.259
10678WAT     H132276   8.504   8.765   4.315
10678WAT     H232277   8.661   8.802   4.293
10679WAT      O32278   0.428   8.923   0.249
10679WAT     H132279   0.342   8.953   0.209
10679WAT     H232280   0.409   8.870   0.332
10680WAT      O32281   6.244   8.649   5.394
10680WAT     H132282   6.258   8.564   5.343
10680WAT     H232283   6.333   8.690   5.415
10681WAT      O32284   3.767   1.903   0.403
10681WAT     H132285   3.743   1.999   0.416
10681WAT     H232286   3.686   1.846   0.414
10682WAT      O32287   6.233   1.065   4.409
10682WAT     H132288   6.232   1.117   4.324
10682WAT     H232289   6.263   1.125   4.484
10683WAT      O32290   6.188   1.493   8.539
10683WAT     H132291   6.240   1.497   8.624
10683WAT     H232292   6.176   1.585   8.502
10684WAT      O32293   6.465   1.127   8.902
10684WAT     H132294   6.376   1.146   8.862
10684WAT     H232295   6.537   1.152   8.837
10685WAT      O32296   9.632   7.361   9.016
10685WAT     H132297   9.683   7.446   9.031
10685WAT     H232298   9.676   7.287   9.066
10686WAT      O32299   8.549   4.126   5.183
10686WAT     H132300   8.512   4.039   5.216
10686WAT     H232301   8.636   4.111   5.136
10687WAT      O32302   6.208   7.400   7.940
10687WAT     H132303   6.258   7.485   7.924
10687WAT     H232304   6.187   7.391   8.037
10688WAT      O32305   9.432   6.768   0.858
10688WAT     H132306   9.455   6.840   0.923
10688WAT     H232307   9.382   6.807   0.781
10689WAT      O32308   1.023   7.470   7.649
10689WAT     H132309   1.102   7.408   7.653
10689WAT     H232310   1.048   7.551   7.596
10690WAT      O32311   3.821   7.803   4.288
10690WAT     H132312   3.785   7.891   4.319
10690WAT     H232313   3.770   7.773   4.207
10691WAT      O32314   7.620   9.775   2.408
10691WAT     H132315   7.566   9.758   2.491
10691WAT     H232316   7.560   9.814   2.338
10692WAT      O32317   5.509   4.577   8.863
10692WAT     H132318   5.524   4.634   8.783
10692WAT     H232319   5.594   4.571   8.916
10693WAT      O32320   7.567   2.949   7.267
10693WAT     H132321   7.622   3.025   7.302
10693WAT     H232322   7.553   2.882   7.340
10694WAT      O32323   7.095   0.246   1.569
10694WAT     H132324   7.004   0.265   1.533
10694WAT     H232325   7.162   0.252   1.495
10695WAT      O32326   4.109   1.586   2.216
10695WAT     H132327   4.188   1.638   2.249
10695WAT     H232328   4.026   1.622   2.258
10696WAT      O32329   1.747   3.337   0.030
10696WAT     H132330   1.793   3.257   0.070
10696WAT     H232331   1.699   3.387   0.102
10697WAT      O32332   8.531   1.975   1.909
10697WAT     H132333   8.431   1.962   1.911
10697WAT     H232334   8.566   1.943   1.821
10698WAT      O32335   0.017   8.672   8.122
10698WAT     H132336   0.012   8.678   8.222
10698WAT     H232337   0.071   8.749   8.087
10699WAT      O32338   8.884   8.155   0.052
10699WAT     H132339   8.822   8.082   0.021
10699WAT     H232340   8.958   8.165  -0.014
10700WAT      O32341   8.296   6.712   3.030
10700WAT     H132342   8.376   6.722   3.089
10700WAT     H232343   8.278   6.798   2.983
10701WAT      O32344   4.727   7.815   7.261
10701WAT     H132345   4.788   7.777   7.191
10701WAT     H232346   4.763   7.795   7.351
10702WAT      O32347   5.412   8.956   5.109
10702WAT     H132348   5.380   8.954   5.014
10702WAT     H232349   5.512   8.953   5.110
10703WAT      O32350   4.971   1.658   7.622
10703WAT     H132351   4.872   1.668   7.636
10703WAT     H232352   4.988   1.582   7.559
10704WAT      O32353   7.334   5.195   8.302
10704WAT     H132354   7.280   5.213   8.384
10704WAT     H232355   7.412   5.137   8.325
10705WAT      O32356   9.190   7.192   6.115
10705WAT     H132357   9.249   7.252   6.169
10705WAT     H232358   9.223   7.190   6.020
10706WAT      O32359   7.860   3.353   5.239
10706WAT     H132360   7.840   3.276   5.177
10706WAT     H232361   7.891   3.431   5.185
10707WAT      O32362   1.515   9.618   3.688
10707WAT     H132363   1.487   9.616   3.592
10707WAT     H232364   1.435   9.621   3.747
10708WAT      O32365   9.753   7.837   7.922
10708WAT     H132366   9.743   7.764   7.989
10708WAT     H232367   9.673   7.836   7.861
10709WAT      O32368   0.359   9.160   8.588
10709WAT     H132369   0.439   9.219   8.578
10709WAT     H232370   0.295   9.179   8.513
10710WAT      O32371   8.893   2.347   1.052
10710WAT     H132372   8.909   2.249   1.041
10710WAT     H232373   8.842   2.382   0.974
10711WAT      O32374   2.621   9.366   0.159
10711WAT     H132375   2.698   9.304   0.171
10711WAT     H232376   2.569   9.372   0.244
10712WAT      O32377   2.286   7.952   8.717
10712WAT     H132378   2.298   7.997   8.806
10712WAT     H232379   2.371   7.960   8.665
10713WAT      O32380   6.535   7.312   8.371
10713WAT     H132381   6.525   7.353   8.280
10713WAT     H232382   6.566   7.381   8.436
10714WAT      O32383   2.479   4.366   4.618
10714WAT     H132384   2.479   4.272   4.653
10714WAT     H232385   2.568   4.407   4.634
10715WAT      O32386   1.316   2.276   9.700
10715WAT     H132387   1.378   2.216   9.751
10715WAT     H232388   1.346   2.371   9.709
10716WAT      O32389   6.079   0.893   6.438
10716WAT     H132390   6.081   0.807   6.386
10716WAT     H232391   5.986   0.929   6.438
10717WAT      O32392   3.006   3.668   4.379
10717WAT     H132393   2.994   3.704   4.286
10717WAT     H232394   3.082   3.604   4.380
10718WAT      O32395   2.629   4.264   9.067
10718WAT     H132396   2.652   4.170   9.090
10718WAT     H232397   2.589   4.268   8.975
10719WAT      O32398   5.021   4.368   6.266
10719WAT     H132399   5.078   4.438   6.222
10719WAT     H232400   4.925   4.386   6.246
10720WAT      O32401   4.123   2.608   2.518
10720WAT     H132402   4.112   2.691   2.463
10720WAT     H232403   4.083   2.530   2.470
10721WAT      O32404   7.920   4.275   9.815
10721WAT     H132405   7.999   4.312   9.864
10721WAT     H232406   7.871   4.210   9.873
10722WAT      O32407   5.825   4.555   7.550
10722WAT     H132408   5.777   4.479   7.507
10722WAT     H232409   5.786   4.641   7.520
10723WAT      O32410   4.800   2.012   0.550
10723WAT     H132411   4.768   1.941   0.487
10723WAT     H232412   4.847   1.970   0.627
10724WAT      O32413   4.260   0.176   4.822
10724WAT     H132414   4.211   0.089   4.823
10724WAT     H232415   4.223   0.236   4.893
10725WAT      O32416   0.632   2.747   3.998
10725WAT     H132417   0.560   2.754   4.068
10725WAT     H232418   0.696   2.823   4.009
10726WAT      O32419   7.839   8.297   2.575
10726WAT     H132420   7.906   8.334   2.639
10726WAT     H232421   7.770   8.245   2.625
10727WAT      O32422   7.500   1.745   7.037
10727WAT     H132423   7.581   1.703   6.998
10727WAT     H232424   7.424   1.739   6.972
10728WAT      O32425   1.974   2.027   0.169
10728WAT     H132426   1.993   1.959   0.098
10728WAT     H232427   1.887   2.004   0.214
10729WAT      O32428   8.808   4.265   3.712
10729WAT     H132429   8.809   4.364   3.728
10729WAT     H232430   8.770   4.246   3.622
10730WAT      O32431   9.106   2.114   2.549
10730WAT     H132432   9.069   2.063   2.472
10730WAT     H232433   9.045   2.191   2.570
10731WAT      O32434   6.782   3.129   8.281
10731WAT     H132435   6.716   3.058   8.304
10731WAT     H232436   6.755   3.214   8.326
10732WAT      O32437   0.663   5.170   0.738
10732WAT     H132438   0.700   5.262   0.729
10732WAT     H232439   0.563   5.173   0.733
10733WAT      O32440   5.900   4.208   4.283
10733WAT     H132441   5.940   4.118   4.295
10733WAT     H232442   5.962   4.277   4.320
10734WAT      O32443   7.318   0.392   5.922
10734WAT     H132444   7.284   0.459   5.855
10734WAT     H232445   7.258   0.392   6.002
10735WAT      O32446   8.425   5.006   1.503
10735WAT     H132447   8.512   4.959   1.488
10735WAT     H232448   8.404   5.006   1.600
10736WAT      O32449   6.347   5.685   7.479
10736WAT     H132450   6.370   5.778   7.510
10736WAT     H232451   6.328   5.628   7.559
10737WAT      O32452   7.358   4.658   5.899
10737WAT     H132453   7.291   4.732   5.904
10737WAT     H232454   7.434   4.677   5.962
10738WAT      O32455   1.118   9.812   4.651
10738WAT     H132456   1.155   9.771   4.734
10738WAT     H232457   1.035   9.862   4.672
10739WAT      O32458   9.557   5.559   1.370
10739WAT     H132459   9.598   5.549   1.280
10739WAT     H232460   9.626   5.540   1.441
10740WAT      O32461   1.056   1.318   3.253
10740WAT     H132462   1.080   1.383   3.180
10740WAT     H232463   1.108   1.234   3.241
10741WAT      O32464   9.753   5.713   5.303
10741WAT     H132465   9.685   5.640   5.292
10741WAT     H232466   9.791   5.737   5.213
10742WAT      O32467   0.994   4.818   8.863
10742WAT     H132468   0.925   4.867   8.916
10742WAT     H232469   1.085   4.852   8.888
10743WAT      O32470   7.279   6.012   5.041
10743WAT     H132471   7.260   5.994   5.137
10743WAT     H232472   7.358   6.074   5.034
10744WAT      O32473   6.848   9.023   8.740
10744WAT     H132474   6.799   8.949   8.787
10744WAT     H232475   6.791   9.105   8.740
10745WAT      O32476   4.153   4.104   3.948
10745WAT     H132477   4.106   4.035   3.893
10745WAT     H232478   4.120   4.100   4.042
10746WAT      O32479   4.224   8.573   9.617
10746WAT     H132480   4.225   8.581   9.716
10746WAT     H232481   4.313   8.603   9.580
10747WAT      O32482   8.918   9.673   6.414
10747WAT     H132483   8.839   9.614   6.394
10747WAT     H232484   8.975   9.629   6.483
10748WAT      O32485   5.825   6.985   5.224
10748WAT     H132486   5.850   7.027   5.137
10748WAT     H232487   5.865   7.037   5.299
10749WAT      O32488   2.586   2.388   6.321
10749WAT     H132489   2.521   2.392   6.244
10749WAT     H232490   2.640   2.305   6.314
10750WAT      O32491   1.385   8.362   2.408
10750WAT     H132492   1.368   8.402   2.318
10750WAT     H232493   1.302   8.369   2.464
10751WAT      O32494   6.357   5.880   9.589
10751WAT     H132495   6.354   5.980   9.589
10751WAT     H232496   6.264   5.844   9.588
10752WAT      O32497   2.222   4.753   5.315
10752WAT     H132498   2.190   4.757   5.410
10752WAT     H232499   2.272   4.836   5.293
10753WAT      O32500   4.254   0.128   4.113
10753WAT     H132501   4.254   0.208   4.173
10753WAT     H232502   4.161   0.109   4.082
10754WAT      O32503   1.202   7.405   6.912
10754WAT     H132504   1.260   7.463   6.855
10754WAT     H232505   1.228   7.415   7.008
10755WAT      O32506   0.545   2.536   3.602
10755WAT     H132507   0.600   2.585   3.534
10755WAT     H232508   0.541   2.439   3.578
10756WAT      O32509   3.612   3.217   0.957
10756WAT     H132510   3.658   3.275   0.890
10756WAT     H232511   3.668   3.211   1.040
10757WAT      O32512   1.842   7.312   2.433
10757WAT     H132513   1.807   7.225   2.400
10757WAT     H232514   1.937   7.323   2.405
10758WAT      O32515   2.400   4.713   4.444
10758WAT     H132516   2.327   4.766   4.400
10758WAT     H232517   2.360   4.634   4.491
10759WAT      O32518   8.152   3.590   8.760
10759WAT     H132519   8.199   3.572   8.673
10759WAT     H232520   8.183   3.523   8.828
10760WAT      O32521   4.977   5.403   8.860
10760WAT     H132522   5.032   5.353   8.793
10760WAT     H232523   5.008   5.380   8.952
10761WAT      O32524   6.382   2.121   7.667
10761WAT     H132525   6.364   2.097   7.572
10761WAT     H232526   6.447   2.197   7.670
10762WAT      O32527   7.095   7.760   7.372
10762WAT     H132528   7.016   7.776   7.431
10762WAT     H232529   7.078   7.798   7.281
10763WAT      O32530   2.586   7.757   8.950
10763WAT     H132531   2.651   7.798   8.886
10763WAT     H232532   2.511   7.714   8.900
10764WAT      O32533   4.533   0.610   0.031
10764WAT     H132534   4.479   0.694   0.038
10764WAT     H232535   4.563   0.581   0.122
10765WAT      O32536   5.266   4.962   0.074
10765WAT     H132537   5.341   4.900   0.098
10765WAT     H232538   5.299   5.056   0.077
10766WAT      O32539   1.496   4.624   7.832
10766WAT     H132540   1.523   4.554   7.898
10766WAT     H232541   1.410   4.665   7.860
10767WAT      O32542   0.788   8.965   1.007
10767WAT     H132543   0.862   8.899   1.021
10767WAT     H232544   0.725   8.930   0.938
10768WAT      O32545   7.946   8.859   7.751
10768WAT     H132546   7.940   8.785   7.818
10768WAT     H232547   7.876   8.846   7.680
10769WAT      O32548   7.157   3.891   0.493
10769WAT     H132549   7.229   3.857   0.554
10769WAT     H232550   7.071   3.844   0.514
10770WAT      O32551   8.103   3.192   5.562
10770WAT     H132552   8.170   3.221   5.630
10770WAT     H232553   8.023   3.253   5.566
10771WAT      O32554   7.561   0.350   8.639
10771WAT     H132555   7.478   0.389   8.679
10771WAT     H232556   7.545   0.255   8.614
10772WAT      O32557   0.655   7.749   8.973
10772WAT     H132558   0.754   7.762   8.972
10772WAT     H232559   0.616   7.779   8.886
10773WAT      O32560   7.563   5.716   8.613
10773WAT     H132561   7.631   5.753   8.550
10773WAT     H232562   7.581   5.750   8.705
10774WAT      O32563   6.447   6.631   2.561
10774WAT     H132564   6.480   6.720   2.529
10774WAT     H232565   6.362   6.608   2.514
10775WAT      O32566   0.678   8.013   1.294
10775WAT     H132567   0.598   7.982   1.243
10775WAT     H232568   0.751   8.039   1.230
10776WAT      O32569   5.106   0.162   7.794
10776WAT     H132570   5.162   0.080   7.781
10776WAT     H232571   5.102   0.185   7.891
10777WAT      O32572   0.927   2.033   2.383
10777WAT     H132573   0.840   2.048   2.336
10777WAT     H232574   1.001   2.030   2.316
10778WAT      O32575   6.192   4.965   0.101
10778WAT     H132576   6.277   4.976   0.050
10778WAT     H232577   6.166   4.869   0.104
10779WAT      O32578   7.227   3.291   9.803
10779WAT     H132579   7.310   3.271   9.855
10779WAT     H232580   7.240   3.263   9.708
10780WAT      O32581   5.071   0.028   1.419
10780WAT     H132582   5.008  -0.042   1.384
10780WAT     H232583   5.129  -0.013   1.489
10781WAT      O32584   3.637   9.267   4.816
10781WAT     H132585   3.725   9.314   4.819
10781WAT     H232586   3.651   9.172   4.788
10782WAT      O32587   6.888   3.299   5.902
10782WAT     H132588   6.920   3.241   5.976
10782WAT     H232589   6.860   3.243   5.825
10783WAT      O32590   5.606   8.275   9.450
10783WAT     H132591   5.666   8.254   9.373
10783WAT     H232592   5.571   8.190   9.490
10784WAT      O32593   7.325   9.392   3.239
10784WAT     H132594   7.313   9.481   3.283
10784WAT     H232595   7.247   9.333   3.260
10785WAT      O32596   6.300   7.768   5.934
10785WAT     H132597   6.217   7.788   5.985
10785WAT     H232598   6.283   7.782   5.836
10786WAT      O32599   8.604   6.824   7.510
10786WAT     H132600   8.615   6.743   7.566
10786WAT     H232601   8.581   6.903   7.567
10787WAT      O32602   4.833   3.775   8.126
10787WAT     H132603   4.923   3.733   8.119
10787WAT     H232604   4.807   3.781   8.223
10788WAT      O32605   2.672   3.367   1.712
10788WAT     H132606   2.685   3.402   1.619
10788WAT     H232607   2.649   3.442   1.773
10789WAT      O32608   6.771   3.880   3.473
10789WAT     H132609   6.801   3.792   3.438
10789WAT     H232610   6.671   3.880   3.482
10790WAT      O32611   0.447   1.370   4.372
10790WAT     H132612   0.417   1.417   4.455
10790WAT     H232613   0.451   1.271   4.389
10791WAT      O32614   3.197   8.582   2.034
10791WAT     H132615   3.156   8.499   2.074
10791WAT     H232616   3.137   8.660   2.051
10792WAT      O32617   2.798   6.459   3.887
10792WAT     H132618   2.779   6.374   3.936
10792WAT     H232619   2.869   6.443   3.819
10793WAT      O32620   4.625   8.051   8.432
10793WAT     H132621   4.567   7.986   8.383
10793WAT     H232622   4.569   8.102   8.497
10794WAT      O32623   9.622   0.891   6.554
10794WAT     H132624   9.696   0.854   6.611
10794WAT     H232625   9.638   0.868   6.458
10795WAT      O32626   2.374   2.060   8.165
10795WAT     H132627   2.290   2.109   8.142
10795WAT     H232628   2.356   1.992   8.236
10796WAT      O32629   0.989   8.411   0.187
10796WAT     H132630   1.079   8.368   0.196
10796WAT     H232631   0.928   8.348   0.139
10797WAT      O32632   7.633   8.981   1.199
10797WAT     H132633   7.575   8.899   1.200
10797WAT     H232634   7.691   8.980   1.117
10798WAT      O32635   5.114   0.189   0.284
10798WAT     H132636   5.098   0.272   0.230
10798WAT     H232637   5.206   0.156   0.267
10799WAT      O32638   6.209   6.751   1.971
10799WAT     H132639   6.122   6.778   2.011
10799WAT     H232640   6.259   6.693   2.035
10800WAT      O32641   7.449   4.623   2.684
10800WAT     H132642   7.498   4.607   2.770
10800WAT     H232643   7.497   4.578   2.609
10801WAT      O32644   5.337   6.238   3.495
10801WAT     H132645   5.276   6.169   3.534
10801WAT     H232646   5.297   6.275   3.411
10802WAT      O32647   1.542   2.847   8.178
10802WAT     H132648   1.569   2.916   8.246
10802WAT     H232649   1.535   2.758   8.222
10803WAT      O32650   8.458   1.383   5.231
10803WAT     H132651   8.379   1.400   5.289
10803WAT     H232652   8.455   1.443   5.151
10804WAT      O32653   1.465   3.193   8.329
10804WAT     H132654   1.520   3.110   8.319
10804WAT     H232655   1.413   3.190   8.414
10805WAT      O32656   0.290   2.260   1.653
10805WAT     H132657   0.252   2.349   1.626
10805WAT     H232658   0.263   2.239   1.747
10806WAT      O32659   2.183   7.294   4.082
10806WAT     H132660   2.141   7.237   4.011
10806WAT     H232661   2.130   7.379   4.092
10807WAT      O32662   4.029   5.300   3.266
10807WAT     H132663   4.041   5.348   3.179
10807WAT     H232664   4.004   5.366   3.337
10808WAT      O32665   3.101   0.791   0.462
10808WAT     H132666   3.123   0.729   0.537
10808WAT     H232667   3.014   0.836   0.480
10809WAT      O32668   3.950   9.561   7.993
10809WAT     H132669   4.044   9.535   8.017
10809WAT     H232670   3.951   9.649   7.945
10810WAT      O32671   3.072   2.541   0.124
10810WAT     H132672   3.018   2.516   0.043
10810WAT     H232673   3.161   2.576   0.096
10811WAT      O32674   8.440   2.526   1.191
10811WAT     H132675   8.398   2.565   1.272
10811WAT     H232676   8.536   2.504   1.210
10812WAT      O32677   8.951   5.605   7.065
10812WAT     H132678   8.915   5.658   7.141
10812WAT     H232679   8.976   5.666   6.990
10813WAT      O32680   3.610   5.563   9.058
10813WAT     H132681   3.676   5.574   9.132
10813WAT     H232682   3.641   5.613   8.977
10814WAT      O32683   5.207   2.687   6.449
10814WAT     H132684   5.148   2.607   6.435
10814WAT     H232685   5.295   2.672   6.403
10815WAT      O32686   8.368   7.397   4.810
10815WAT     H132687   8.386   7.403   4.908
10815WAT     H232688   8.321   7.311   4.789
10816WAT      O32689   9.339   7.981   7.059
10816WAT     H132690   9.388   7.904   7.018
10816WAT     H232691   9.403   8.057   7.072
10817WAT      O32692   8.664   3.109   8.205
10817WAT     H132693   8.633   3.037   8.143
10817WAT     H232694   8.751   3.083   8.245
10818WAT      O32695   5.155   2.676   3.270
10818WAT     H132696   5.178   2.650   3.364
10818WAT     H232697   5.236   2.668   3.212
10819WAT      O32698   8.994   9.139   9.217
10819WAT     H132699   8.918   9.100   9.268
10819WAT     H232700   9.046   9.201   9.276
10820WAT      O32701   5.087   3.459   2.961
10820WAT     H132702   5.070   3.554   2.936
10820WAT     H232703   5.184   3.446   2.981
10821WAT      O32704   2.616   1.179   8.973
10821WAT     H132705   2.531   1.220   8.940
10821WAT     H232706   2.657   1.237   9.043
10822WAT      O32707   4.373   3.755   0.073
10822WAT     H132708   4.322   3.673   0.100
10822WAT     H232709   4.461   3.757   0.120
10823WAT      O32710   9.285   5.604   0.821
10823WAT     H132711   9.197   5.648   0.802
10823WAT     H232712   9.300   5.600   0.920
10824WAT      O32713   1.570   2.609   1.016
10824WAT     H132714   1.494   2.657   1.060
10824WAT     H232715   1.656   2.655   1.040
10825WAT      O32716   6.702   4.639   5.477
10825WAT     H132717   6.767   4.641   5.553
10825WAT     H232718   6.697   4.546   5.441
10826WAT      O32719   2.879   2.718   7.936
10826WAT     H132720   2.896   2.744   8.031
10826WAT     H232721   2.809   2.779   7.898
10827WAT      O32722   3.689   4.469   9.534
10827WAT     H132723   3.611   4.528   9.512
10827WAT     H232724   3.753   4.468   9.457
10828WAT      O32725   4.541   1.406   1.674
10828WAT     H132726   4.539   1.337   1.746
10828WAT     H232727   4.512   1.364   1.588
10829WAT      O32728   2.659   7.302   1.122
10829WAT     H132729   2.731   7.370   1.137
10829WAT     H232730   2.571   7.339   1.151
10830WAT      O32731   7.861   2.631   8.872
10830WAT     H132732   7.944   2.641   8.927
10830WAT     H232733   7.781   2.650   8.930
10831WAT      O32734   8.979   6.383   8.816
10831WAT     H132735   8.910   6.361   8.747
10831WAT     H232736   8.938   6.443   8.885
10832WAT      O32737   3.036   7.915   4.734
10832WAT     H132738   2.974   7.992   4.720
10832WAT     H232739   3.007   7.839   4.675
10833WAT      O32740   3.792   0.169   6.390
10833WAT     H132741   3.874   0.153   6.445
10833WAT     H232742   3.797   0.260   6.349
10834WAT      O32743   1.122   7.479   8.660
10834WAT     H132744   1.138   7.414   8.735
10834WAT     H232745   1.161   7.568   8.684
10835WAT      O32746   4.476   7.327   7.591
10835WAT     H132747   4.379   7.337   7.611
10835WAT     H232748   4.498   7.231   7.579
10836WAT      O32749   6.007   0.871   4.541
10836WAT     H132750   6.023   0.878   4.639
10836WAT     H232751   6.088   0.901   4.491
10837WAT      O32752   3.016   9.274   8.175
10837WAT     H132753   3.063   9.193   8.141
10837WAT     H232754   3.052   9.298   8.265
10838WAT      O32755   0.669   0.606   2.395
10838WAT     H132756   0.585   0.620   2.448
10838WAT     H232757   0.747   0.645   2.446
10839WAT      O32758   6.352   5.879   3.437
10839WAT     H132759   6.382   5.794   3.480
10839WAT     H232760   6.258   5.899   3.465
10840WAT      O32761   3.545   6.371   9.397
10840WAT     H132762   3.621   6.317   9.361
10840WAT     H232763   3.578   6.459   9.431
10841WAT      O32764   5.169   3.723   0.639
10841WAT     H132765   5.213   3.811   0.622
10841WAT     H232766   5.170   3.703   0.737
10842WAT      O32767   9.871   3.460   9.672
10842WAT     H132768   9.774   3.437   9.676
10842WAT     H232769   9.919   3.392   9.617
10843WAT      O32770   0.226   3.478   8.796
10843WAT     H132771   0.248   3.535   8.875
10843WAT     H232772   0.133   3.498   8.765
10844WAT      O32773   4.400   6.678   9.851
10844WAT     H132774   4.355   6.724   9.774
10844WAT     H232775   4.365   6.584   9.857
10845WAT      O32776   1.961   8.556   2.801
10845WAT     H132777   2.060   8.544   2.794
10845WAT     H232778   1.930   8.529   2.892
10846WAT      O32779   2.727   7.547   7.053
10846WAT     H132780   2.750   7.643   7.035
10846WAT     H232781   2.756   7.491   6.975
10847WAT      O32782   9.291   8.677   7.930
10847WAT     H132783   9.343   8.762   7.933
10847WAT     H232784   9.203   8.692   7.887
10848WAT      O32785   3.427   3.658   7.704
10848WAT     H132786   3.402   3.647   7.607
10848WAT     H232787   3.522   3.688   7.710
10849WAT      O32788   9.204   6.832   4.930
10849WAT     H132789   9.178   6.888   5.009
10849WAT     H232790   9.207   6.890   4.849
10850WAT      O32791   0.259   1.666   3.970
10850WAT     H132792   0.309   1.718   3.900
10850WAT     H232793   0.188   1.723   4.010
10851WAT      O32794   6.504   3.159   4.374
10851WAT     H132795   6.440   3.218   4.324
10851WAT     H232796   6.485   3.063   4.351
10852WAT      O32797   5.957   2.440   8.064
10852WAT     H132798   5.925   2.530   8.032
10852WAT     H232799   6.048   2.422   8.027
10853WAT      O32800   0.494   7.535   4.536
10853WAT     H132801   0.453   7.444   4.533
10853WAT     H232802   0.424   7.603   4.558
10854WAT      O32803   5.949   6.207   1.977
10854WAT     H132804   5.857   6.226   2.011
10854WAT     H232805   5.943   6.157   1.891
10855WAT      O32806   2.512   3.119   1.092
10855WAT     H132807   2.572   3.061   1.147
10855WAT     H232808   2.438   3.154   1.150
10856WAT      O32809   1.080   1.897   8.862
10856WAT     H132810   1.100   1.983   8.909
10856WAT     H232811   1.166   1.852   8.837
10857WAT      O32812   2.045   4.203   4.051
10857WAT     H132813   1.976   4.184   3.981
10857WAT     H232814   2.136   4.195   4.011
10858WAT      O32815   9.138   6.673   0.193
10858WAT     H132816   9.115   6.765   0.223
10858WAT     H232817   9.127   6.610   0.270
10859WAT      O32818   1.766   5.289   2.972
10859WAT     H132819   1.792   5.375   3.015
10859WAT     H232820   1.698   5.243   3.029
10860WAT      O32821   7.211   2.942   9.139
10860WAT     H132822   7.136   2.961   9.076
10860WAT     H232823   7.175   2.908   9.226
10861WAT      O32824   3.553   0.307   6.090
10861WAT     H132825   3.635   0.258   6.061
10861WAT     H232826   3.481   0.242   6.111
10862WAT      O32827   4.030   1.330   1.894
10862WAT     H132828   4.117   1.310   1.938
10862WAT     H232829   3.959   1.272   1.932
10863WAT      O32830   0.939   6.402   8.346
10863WAT     H132831   1.028   6.405   8.300
10863WAT     H232832   0.866   6.401   8.277
10864WAT      O32833   6.026   7.105   5.050
10864WAT     H132834   6.044   7.066   4.960
10864WAT     H232835   6.064   7.198   5.055
10865WAT      O32836   1.663   9.522   8.558
10865WAT     H132837   1.674   9.589   8.632
10865WAT     H232838   1.648   9.569   8.472
10866WAT      O32839   5.100   4.072   9.847
10866WAT     H132840   5.010   4.069   9.804
10866WAT     H232841   5.170   4.089   9.777
10867WAT      O32842   7.764   1.945   3.911
10867WAT     H132843   7.705   1.893   3.974
10867WAT     H232844   7.859   1.918   3.925
10868WAT      O32845   1.966   0.351   4.530
10868WAT     H132846   1.909   0.327   4.452
10868WAT     H232847   2.051   0.392   4.497
10869WAT      O32848   1.626   5.447   5.106
10869WAT     H132849   1.703   5.400   5.062
10869WAT     H232850   1.653   5.475   5.198
10870WAT      O32851   1.163   2.371   2.374
10870WAT     H132852   1.171   2.381   2.275
10870WAT     H232853   1.200   2.282   2.402
10871WAT      O32854   6.392   2.782   1.896
10871WAT     H132855   6.351   2.862   1.940
10871WAT     H232856   6.412   2.712   1.964
10872WAT      O32857   5.388   0.885   5.027
10872WAT     H132858   5.487   0.886   5.016
10872WAT     H232859   5.346   0.937   4.953
10873WAT      O32860   9.458   5.405   8.268
10873WAT     H132861   9.409   5.480   8.224
10873WAT     H232862   9.556   5.418   8.256
10874WAT      O32863   6.387   1.770   8.964
10874WAT     H132864   6.450   1.762   8.888
10874WAT     H232865   6.428   1.827   9.036
10875WAT      O32866   0.507   6.566   0.058
10875WAT     H132867   0.552   6.518  -0.017
10875WAT     H232868   0.459   6.500   0.116
10876WAT      O32869   2.653   3.172   2.499
10876WAT     H132870   2.708   3.092   2.479
10876WAT     H232871   2.712   3.246   2.534
10877WAT      O32872   3.007   3.888   3.858
10877WAT     H132873   2.932   3.932   3.907
10877WAT     H232874   2.989   3.789   3.852
10878WAT      O32875   2.377   4.587   5.180
10878WAT     H132876   2.435   4.612   5.103
10878WAT     H232877   2.321   4.666   5.207
10879WAT      O32878   3.173   6.173   9.600
10879WAT     H132879   3.180   6.261   9.553
10879WAT     H232880   3.210   6.101   9.541
10880WAT      O32881   7.283   4.715   5.602
10880WAT     H132882   7.313   4.679   5.690
10880WAT     H232883   7.196   4.673   5.577
10881WAT      O32884   2.143   4.766   1.017
10881WAT     H132885   2.190   4.853   1.000
10881WAT     H232886   2.200   4.691   0.984
10882WAT      O32887   7.433   8.650   3.467
10882WAT     H132888   7.351   8.683   3.514
10882WAT     H232889   7.499   8.617   3.535
10883WAT      O32890   3.993   3.837   7.942
10883WAT     H132891   4.089   3.809   7.952
10883WAT     H232892   3.965   3.888   8.023
10884WAT      O32893   1.164   6.652   5.667
10884WAT     H132894   1.181   6.744   5.631
10884WAT     H232895   1.239   6.627   5.728
10885WAT      O32896   0.797   8.364   9.247
10885WAT     H132897   0.865   8.377   9.319
10885WAT     H232898   0.838   8.387   9.159
10886WAT      O32899   4.651   0.544   6.449
10886WAT     H132900   4.730   0.493   6.413
10886WAT     H232901   4.631   0.621   6.389
10887WAT      O32902   6.918   3.390   6.749
10887WAT     H132903   6.972   3.439   6.681
10887WAT     H232904   6.885   3.455   6.818
10888WAT      O32905   7.101   8.922   5.065
10888WAT     H132906   7.098   8.928   5.164
10888WAT     H232907   7.132   9.008   5.026
10889WAT      O32908   4.628   2.520   0.598
10889WAT     H132909   4.584   2.542   0.511
10889WAT     H232910   4.595   2.581   0.669
10890WAT      O32911   4.554   6.378   0.905
10890WAT     H132912   4.615   6.457   0.907
10890WAT     H232913   4.587   6.313   0.836
10891WAT      O32914   7.035   3.799   9.248
10891WAT     H132915   6.942   3.827   9.270
10891WAT     H232916   7.050   3.705   9.278
10892WAT      O32917   1.899   3.415   8.384
10892WAT     H132918   1.933   3.387   8.473
10892WAT     H232919   1.946   3.364   8.312
10893WAT      O32920   7.703   1.384   7.641
10893WAT     H132921   7.779   1.373   7.576
10893WAT     H232922   7.739   1.393   7.733
10894WAT      O32923   0.247   6.110   2.752
10894WAT     H132924   0.207   6.111   2.843
10894WAT     H232925   0.243   6.203   2.713
10895WAT      O32926   3.471   9.610   0.377
10895WAT     H132927   3.401   9.665   0.332
10895WAT     H232928   3.442   9.587   0.470
10896WAT      O32929   8.426   3.550   1.541
10896WAT     H132930   8.419   3.627   1.477
10896WAT     H232931   8.520   3.546   1.577
10897WAT      O32932   9.241   3.111   6.459
10897WAT     H132933   9.331   3.075   6.482
10897WAT     H232934   9.245   3.156   6.370
10898WAT      O32935   0.754   3.569   8.394
10898WAT     H132936   0.822   3.640   8.377
10898WAT     H232937   0.686   3.570   8.321
10899WAT      O32938   0.464   5.723   8.019
10899WAT     H132939   0.437   5.819   8.029
10899WAT     H232940   0.465   5.680   8.109
10900WAT      O32941   0.298   6.987   9.493
10900WAT     H132942   0.228   6.934   9.445
10900WAT     H232943   0.378   6.998   9.434
10901WAT      O32944   2.169   1.298   6.320
10901WAT     H132945   2.181   1.205   6.352
10901WAT     H232946   2.258   1.343   6.312
10902WAT      O32947   2.228   4.800   0.341
10902WAT     H132948   2.243   4.756   0.429
10902WAT     H232949   2.153   4.755   0.293
10903WAT      O32950   6.108   2.719   9.211
10903WAT     H132951   6.149   2.731   9.121
10903WAT     H232952   6.127   2.799   9.268
10904WAT      O32953   5.885   4.031   6.351
10904WAT     H132954   5.908   4.043   6.448
10904WAT     H232955   5.888   4.120   6.305
10905WAT      O32956   2.816   2.907   9.168
10905WAT     H132957   2.781   2.960   9.245
10905WAT     H232958   2.819   2.965   9.087
10906WAT      O32959   0.315   0.494   9.599
10906WAT     H132960   0.311   0.413   9.540
10906WAT     H232961   0.397   0.547   9.576
10907WAT      O32962   3.638   0.306   9.813
10907WAT     H132963   3.609   0.399   9.832
10907WAT     H232964   3.737   0.304   9.799
10908WAT      O32965   3.319   8.230   5.364
10908WAT     H132966   3.258   8.156   5.392
10908WAT     H232967   3.332   8.293   5.440
10909WAT      O32968   3.264   3.337   4.835
10909WAT     H132969   3.238   3.311   4.742
10909WAT     H232970   3.208   3.287   4.901
10910WAT      O32971   0.948   2.919   2.929
10910WAT     H132972   0.934   2.985   3.002
10910WAT     H232973   1.011   2.957   2.861
10911WAT      O32974   2.514   0.408   8.314
10911WAT     H132975   2.453   0.421   8.236
10911WAT     H232976   2.603   0.377   8.283
10912WAT      O32977   7.624   7.662   1.864
10912WAT     H132978   7.542   7.646   1.809
10912WAT     H232979   7.652   7.758   1.856
10913WAT      O32980   0.293   0.375   4.570
10913WAT     H132981   0.220   0.316   4.535
10913WAT     H232982   0.376   0.359   4.517
10914WAT      O32983   3.771   5.086   2.837
10914WAT     H132984   3.818   5.005   2.801
10914WAT     H232985   3.823   5.123   2.915
10915WAT      O32986   3.084   4.981   1.226
10915WAT     H132987   3.026   4.963   1.147
10915WAT     H232988   3.045   4.938   1.307
10916WAT      O32989   5.424   2.431   3.618
10916WAT     H132990   5.432   2.466   3.525
10916WAT     H232991   5.515   2.429   3.661
10917WAT      O32992   8.577   8.279   7.827
10917WAT     H132993   8.622   8.191   7.811
10917WAT     H232994   8.646   8.351   7.834
10918WAT      O32995   7.958   3.203   2.446
10918WAT     H132996   7.977   3.176   2.352
10918WAT     H232997   7.924   3.124   2.497
10919WAT      O32998   1.124   2.389   4.810
10919WAT     H132999   1.208   2.429   4.846
10919WAT     H233000   1.142   2.345   4.722
10920WAT      O33001   4.560   3.322   9.862
10920WAT     H133002   4.573   3.379   9.942
10920WAT     H233003   4.598   3.368   9.781
10921WAT      O33004   4.465   7.552   7.965
10921WAT     H133005   4.552   7.525   7.925
10921WAT     H233006   4.403   7.474   7.965
10922WAT      O33007   3.631   1.464   4.821
10922WAT     H133008   3.625   1.408   4.738
10922WAT     H233009   3.605   1.558   4.800
10923WAT      O33010   7.879   9.310   0.879
10923WAT     H133011   7.854   9.220   0.916
10923WAT     H233012   7.882   9.377   0.952
10924WAT      O33013   1.557   8.291   2.067
10924WAT     H133014   1.531   8.195   2.063
10924WAT     H233015   1.479   8.346   2.097
10925WAT      O33016   2.689   2.055   1.260
10925WAT     H133017   2.761   1.986   1.247
10925WAT     H233018   2.727   2.146   1.244
10926WAT      O33019   6.363   9.519   4.665
10926WAT     H133020   6.294   9.481   4.727
10926WAT     H233021   6.453   9.481   4.688
10927WAT      O33022   5.994   3.734   0.202
10927WAT     H133023   5.904   3.691   0.205
10927WAT     H233024   6.030   3.741   0.295
10928WAT      O33025   5.450   3.779   1.569
10928WAT     H133026   5.357   3.764   1.603
10928WAT     H233027   5.516   3.739   1.633
10929WAT      O33028   2.193   3.462   0.553
10929WAT     H133029   2.116   3.446   0.491
10929WAT     H233030   2.189   3.396   0.628
10930WAT      O33031   2.518   0.713   2.418
10930WAT     H133032   2.602   0.660   2.410
10930WAT     H233033   2.532   0.803   2.375
10931WAT      O33034   6.707   6.695   2.720
10931WAT     H133035   6.757   6.744   2.648
10931WAT     H233036   6.629   6.647   2.679
10932WAT      O33037   2.154   1.213   0.347
10932WAT     H133038   2.210   1.130   0.350
10932WAT     H233039   2.103   1.221   0.432
10933WAT      O33040   8.094   1.548   2.304
10933WAT     H133041   8.168   1.597   2.258
10933WAT     H233042   8.117   1.536   2.401
10934WAT      O33043   0.139   4.067   9.530
10934WAT     H133044   0.104   4.145   9.477
10934WAT     H233045   0.063   4.021   9.576
10935WAT      O33046   6.967   8.712   8.252
10935WAT     H133047   7.032   8.664   8.312
10935WAT     H233048   6.939   8.798   8.296
10936WAT      O33049   6.065   4.372   3.327
10936WAT     H133050   6.083   4.447   3.391
10936WAT     H233051   6.143   4.309   3.326
10937WAT      O33052   7.454   7.692   6.184
10937WAT     H133053   7.455   7.767   6.117
10937WAT     H233054   7.368   7.642   6.177
10938WAT      O33055   2.849   9.176   3.371
10938WAT     H133056   2.910   9.125   3.311
10938WAT     H233057   2.754   9.156   3.346
10939WAT      O33058   0.745   5.766   7.347
10939WAT     H133059   0.778   5.691   7.289
10939WAT     H233060   0.752   5.852   7.297
10940WAT      O33061   9.454   3.241   3.264
10940WAT     H133062   9.480   3.327   3.309
10940WAT     H233063   9.497   3.164   3.311
10941WAT      O33064   7.064   4.917   2.761
10941WAT     H133065   7.026   4.969   2.837
10941WAT     H233066   7.164   4.911   2.770
10942WAT      O33067   4.946   0.101   0.958
10942WAT     H133068   4.847   0.094   0.959
10942WAT     H233069   4.984   0.034   0.893
10943WAT      O33070   4.203   6.999   8.782
10943WAT     H133071   4.273   6.964   8.721
10943WAT     H233072   4.220   7.096   8.800
10944WAT      O33073   1.388   3.335   2.437
10944WAT     H133074   1.405   3.343   2.536
10944WAT     H233075   1.307   3.388   2.413
10945WAT      O33076   2.389   7.063   9.065
10945WAT     H133077   2.353   7.127   8.997
10945WAT     H233078   2.325   6.986   9.075
10946WAT      O33079   3.832   5.622   4.595
10946WAT     H133080   3.812   5.538   4.645
10946WAT     H233081   3.846   5.696   4.660
10947WAT      O33082   3.651   0.214   3.846
10947WAT     H133083   3.561   0.242   3.812
10947WAT     H233084   3.697   0.157   3.777
10948WAT      O33085   2.567   2.102   5.370
10948WAT     H133086   2.518   2.017   5.388
10948WAT     H233087   2.559   2.162   5.450
10949WAT      O33088   4.114   3.853   4.759
10949WAT     H133089   4.068   3.934   4.724
10949WAT     H233090   4.160   3.805   4.684
10950WAT      O33091   1.921   3.616   4.946
10950WAT     H133092   1.832   3.605   4.901
10950WAT     H233093   1.915   3.587   5.041
10951WAT      O33094   6.207   7.344   8.803
10951WAT     H133095   6.212   7.248   8.829
10951WAT     H233096   6.237   7.401   8.879
10952WAT      O33097   2.028   4.016   8.714
10952WAT     H133098   2.074   4.095   8.673
10952WAT     H233099   2.040   3.936   8.655
10953WAT      O33100   8.614   3.800   4.168
10953WAT     H133101   8.578   3.891   4.189
10953WAT     H233102   8.538   3.738   4.149
10954WAT      O33103   5.760   2.876   6.383
10954WAT     H133104   5.675   2.918   6.416
10954WAT     H233105   5.818   2.853   6.460
10955WAT      O33106   5.678   5.704   9.142
10955WAT     H133107   5.676   5.783   9.080
10955WAT     H233108   5.714   5.625   9.093
10956WAT      O33109   6.210   8.464   9.565
10956WAT     H133110   6.177   8.400   9.495
10956WAT     H233111   6.282   8.521   9.526
10957WAT      O33112   4.858   4.233   1.325
10957WAT     H133113   4.854   4.326   1.364
10957WAT     H233114   4.896   4.238   1.233
10958WAT      O33115   1.114   6.198   6.468
10958WAT     H133116   1.027   6.183   6.421
10958WAT     H233117   1.143   6.113   6.512
10959WAT      O33118   7.183   0.010   5.808
10959WAT     H133119   7.090   0.014   5.772
10959WAT     H233120   7.226  -0.077   5.781
10960WAT      O33121   1.649   6.375   3.698
10960WAT     H133122   1.658   6.472   3.720
10960WAT     H233123   1.555   6.345   3.718
10961WAT      O33124   1.787   9.519   5.614
10961WAT     H133125   1.795   9.466   5.698
10961WAT     H233126   1.878   9.538   5.578
10962WAT      O33127   8.278   1.944   5.008
10962WAT     H133128   8.195   1.973   5.055
10962WAT     H233129   8.356   1.992   5.046
10963WAT      O33130   5.745   1.878   7.277
10963WAT     H133131   5.751   1.949   7.347
10963WAT     H233132   5.681   1.907   7.205
10964WAT      O33133   1.861   6.046   6.601
10964WAT     H133134   1.774   6.044   6.552
10964WAT     H233135   1.863   6.125   6.662
10965WAT      O33136   7.298   5.573   5.459
10965WAT     H133137   7.244   5.643   5.506
10965WAT     H233138   7.239   5.497   5.433
10966WAT      O33139   7.360   0.449   6.605
10966WAT     H133140   7.374   0.416   6.512
10966WAT     H233141   7.381   0.376   6.670
10967WAT      O33142   6.123   4.704   7.359
10967WAT     H133143   6.127   4.606   7.379
10967WAT     H233144   6.212   4.746   7.378
10968WAT      O33145   5.845   9.804   9.657
10968WAT     H133146   5.843   9.901   9.680
10968WAT     H233147   5.754   9.765   9.668
10969WAT      O33148   8.174   5.372   1.430
10969WAT     H133149   8.272   5.352   1.442
10969WAT     H233150   8.122   5.329   1.503
10970WAT      O33151   0.202   1.173   2.841
10970WAT     H133152   0.112   1.130   2.840
10970WAT     H233153   0.259   1.131   2.911
10971WAT      O33154   2.249   0.852   5.837
10971WAT     H133155   2.153   0.857   5.865
10971WAT     H233156   2.279   0.757   5.841
10972WAT      O33157   2.132   6.666   7.690
10972WAT     H133158   2.068   6.629   7.757
10972WAT     H233159   2.149   6.763   7.709
10973WAT      O33160   1.716   2.572   3.383
10973WAT     H133161   1.766   2.506   3.439
10973WAT     H233162   1.642   2.525   3.334
10974WAT      O33163   3.920   2.225   5.431
10974WAT     H133164   3.894   2.145   5.485
10974WAT     H233165   3.860   2.231   5.351
10975WAT      O33166   8.149   2.290   0.329
10975WAT     H133167   8.186   2.380   0.354
10975WAT     H233168   8.219   2.236   0.284
10976WAT      O33169   4.088   6.543   4.762
10976WAT     H133170   4.042   6.518   4.848
10976WAT     H233171   4.103   6.642   4.759
10977WAT      O33172   0.748   0.158   0.133
10977WAT     H133173   0.845   0.177   0.115
10977WAT     H233174   0.707   0.117   0.051
10978WAT      O33175   2.848   1.725   2.991
10978WAT     H133176   2.937   1.730   2.945
10978WAT     H233177   2.855   1.768   3.081
10979WAT      O33178   2.152   7.821   5.931
10979WAT     H133179   2.224   7.806   5.999
10979WAT     H233180   2.194   7.833   5.841
10980WAT      O33181   7.390   8.641   9.832
10980WAT     H133182   7.305   8.693   9.842
10980WAT     H233183   7.457   8.672   9.899
10981WAT      O33184   1.369   2.114   6.711
10981WAT     H133185   1.287   2.164   6.682
10981WAT     H233186   1.365   2.021   6.675
10982WAT      O33187   8.486   3.207   8.386
10982WAT     H133188   8.390   3.189   8.364
10982WAT     H233189   8.544   3.172   8.312
10983WAT      O33190   3.884   3.169   4.867
10983WAT     H133191   3.790   3.196   4.888
10983WAT     H233192   3.883   3.085   4.814
10984WAT      O33193   8.924   0.596   4.728
10984WAT     H133194   8.897   0.586   4.632
10984WAT     H233195   8.849   0.638   4.780
10985WAT      O33196   0.072   9.420   4.964
10985WAT     H133197   0.004   9.464   4.906
10985WAT     H233198   0.031   9.396   5.052
10986WAT      O33199   1.150   8.253   2.878
10986WAT     H133200   1.248   8.268   2.868
10986WAT     H233201   1.132   8.206   2.964
10987WAT      O33202   8.567   5.343   4.133
10987WAT     H133203   8.612   5.366   4.047
10987WAT     H233204   8.480   5.297   4.114
10988WAT      O33205   6.932   5.744   9.539
10988WAT     H133206   6.867   5.803   9.493
10988WAT     H233207   6.889   5.656   9.558
10989WAT      O33208   7.504   9.093   5.039
10989WAT     H133209   7.430   9.158   5.021
10989WAT     H233210   7.581   9.113   4.978
10990WAT      O33211   4.080   2.735   3.820
10990WAT     H133212   3.991   2.743   3.865
10990WAT     H233213   4.068   2.733   3.721
10991WAT      O33214   9.335   8.423   1.045
10991WAT     H133215   9.331   8.453   1.140
10991WAT     H233216   9.430   8.400   1.022
10992WAT      O33217   5.440   0.335   4.815
10992WAT     H133218   5.366   0.370   4.872
10992WAT     H233219   5.483   0.410   4.765
10993WAT      O33220   5.447   2.878   3.001
10993WAT     H133221   5.450   2.839   2.909
10993WAT     H233222   5.446   2.977   2.995
10994WAT      O33223   6.286   0.309   3.632
10994WAT     H133224   6.327   0.385   3.582
10994WAT     H233225   6.359   0.249   3.666
10995WAT      O33226   7.331   8.185   6.556
10995WAT     H133227   7.364   8.131   6.478
10995WAT     H233228   7.273   8.259   6.523
10996WAT      O33229   7.447   8.073   7.956
10996WAT     H133230   7.379   8.000   7.960
10996WAT     H233231   7.478   8.094   8.049
10997WAT      O33232   0.019   3.349   6.686
10997WAT     H133233  -0.054   3.334   6.620
10997WAT     H233234   0.077   3.425   6.656
10998WAT      O33235   6.318   4.272   3.352
10998WAT     H133236   6.367   4.285   3.438
10998WAT     H233237   6.371   4.312   3.278
10999WAT      O33238   0.647   5.812   4.373
10999WAT     H133239   0.607   5.721   4.374
10999WAT     H233240   0.698   5.826   4.289
11000WAT      O33241   2.914   0.055   6.997
11000WAT     H133242   2.835   0.003   6.962
11000WAT     H233243   2.906   0.150   6.966
11001WAT      O33244   0.676   2.518   4.296
11001WAT     H133245   0.587   2.503   4.253
11001WAT     H233246   0.712   2.430   4.330
11002WAT      O33247   8.107   3.112   4.296
11002WAT     H133248   8.023   3.057   4.293
11002WAT     H233249   8.178   3.065   4.244
11003WAT      O33250   5.985   8.079   7.144
11003WAT     H133251   5.908   8.017   7.127
11003WAT     H233252   5.960   8.172   7.116
11004WAT      O33253   3.767   7.497   4.032
11004WAT     H133254   3.773   7.523   3.935
11004WAT     H233255   3.857   7.467   4.064
11005WAT      O33256   7.752   8.777   2.816
11005WAT     H133257   7.706   8.752   2.731
11005WAT     H233258   7.765   8.696   2.872
11006WAT      O33259   9.486   4.223   9.770
11006WAT     H133260   9.495   4.124   9.767
11006WAT     H233261   9.501   4.255   9.864
11007WAT      O33262   3.271   2.007   4.620
11007WAT     H133263   3.322   2.039   4.699
11007WAT     H233264   3.328   2.015   4.538
11008WAT      O33265   5.753   9.756   8.992
11008WAT     H133266   5.833   9.768   9.051
11008WAT     H233267   5.703   9.842   8.985
11009WAT      O33268   0.961   7.280   4.212
11009WAT     H133269   0.885   7.269   4.276
11009WAT     H233270   0.926   7.293   4.120
11010WAT      O33271   4.971   8.824   3.515
11010WAT     H133272   4.943   8.731   3.488
11010WAT     H233273   5.016   8.868   3.438
11011WAT      O33274   5.131   0.685   7.668
11011WAT     H133275   5.035   0.687   7.639
11011WAT     H233276   5.189   0.662   7.591
11012WAT      O33277   7.812   1.910   5.980
11012WAT     H133278   7.833   1.848   6.056
11012WAT     H233279   7.796   2.002   6.016
11013WAT      O33280   7.013   2.104   1.015
11013WAT     H133281   7.075   2.066   0.946
11013WAT     H233282   6.922   2.064   1.002
11014WAT      O33283   6.239   6.785   7.221
11014WAT     H133284   6.339   6.791   7.228
11014WAT     H233285   6.215   6.730   7.141
11015WAT      O33286   0.217   8.713   6.475
11015WAT     H133287   0.307   8.682   6.445
11015WAT     H233288   0.224   8.801   6.520
11016WAT      O33289   3.871   2.876   4.082
11016WAT     H133290   3.868   2.957   4.023
11016WAT     H233291   3.829   2.799   4.034
11017WAT      O33292   6.804   4.607   1.457
11017WAT     H133293   6.848   4.691   1.490
11017WAT     H233294   6.862   4.563   1.389
11018WAT      O33295   6.898   2.042   4.750
11018WAT     H133296   6.800   2.058   4.739
11018WAT     H233297   6.917   2.021   4.846
11019WAT      O33298   3.371   9.181   8.297
11019WAT     H133299   3.414   9.119   8.363
11019WAT     H233300   3.328   9.257   8.346
11020WAT      O33301   6.717   5.420   4.110
11020WAT     H133302   6.791   5.353   4.099
11020WAT     H233303   6.688   5.454   4.021
11021WAT      O33304   8.729   9.826   4.043
11021WAT     H133305   8.767   9.847   4.133
11021WAT     H233306   8.704   9.729   4.039
11022WAT      O33307   1.597   8.363   0.363
11022WAT     H133308   1.673   8.305   0.391
11022WAT     H233309   1.533   8.310   0.307
11023WAT      O33310   5.565   5.919   6.091
11023WAT     H133311   5.535   5.829   6.059
11023WAT     H233312   5.638   5.953   6.031
11024WAT      O33313   3.137   8.197   1.810
11024WAT     H133314   3.119   8.160   1.901
11024WAT     H233315   3.052   8.235   1.772
11025WAT      O33316   5.172   5.624   7.656
11025WAT     H133317   5.203   5.531   7.676
11025WAT     H233318   5.127   5.662   7.737
11026WAT      O33319   3.902   1.773   4.314
11026WAT     H133320   3.924   1.722   4.230
11026WAT     H233321   3.930   1.868   4.304
11027WAT      O33322   3.533   3.452   0.206
11027WAT     H133323   3.615   3.423   0.256
11027WAT     H233324   3.457   3.392   0.230
11028WAT      O33325   1.776   1.149   5.048
11028WAT     H133326   1.770   1.067   5.105
11028WAT     H233327   1.708   1.144   4.975
11029WAT      O33328   1.631   3.630   4.944
11029WAT     H133329   1.600   3.701   5.007
11029WAT     H233330   1.583   3.641   4.856
11030WAT      O33331   1.204   7.773   6.990
11030WAT     H133332   1.187   7.699   6.925
11030WAT     H233333   1.296   7.809   6.978
11031WAT      O33334   1.441   8.555   7.230
11031WAT     H133335   1.512   8.484   7.220
11031WAT     H233336   1.471   8.637   7.181
11032WAT      O33337   8.236   3.063   9.845
11032WAT     H133338   8.162   3.003   9.815
11032WAT     H233339   8.261   3.125   9.770
11033WAT      O33340   8.685   0.371   5.530
11033WAT     H133341   8.702   0.378   5.628
11033WAT     H233342   8.773   0.371   5.481
11034WAT      O33343   8.114   2.556   7.032
11034WAT     H133344   8.151   2.494   6.963
11034WAT     H233345   8.109   2.510   7.120
11035WAT      O33346   0.573   4.314   6.529
11035WAT     H133347   0.545   4.271   6.614
11035WAT     H233348   0.610   4.405   6.548
11036WAT      O33349   6.535   9.708   3.709
11036WAT     H133350   6.572   9.618   3.688
11036WAT     H233351   6.496   9.708   3.801
11037WAT      O33352   5.917   7.928   0.179
11037WAT     H133353   5.907   8.026   0.161
11037WAT     H233354   5.942   7.914   0.275
11038WAT      O33355   6.446   7.637   8.232
11038WAT     H133356   6.490   7.683   8.310
11038WAT     H233357   6.360   7.596   8.262
11039WAT      O33358   7.418   2.942   5.830
11039WAT     H133359   7.324   2.968   5.808
11039WAT     H233360   7.455   3.004   5.899
11040WAT      O33361   0.447   3.739   1.495
11040WAT     H133362   0.546   3.729   1.481
11040WAT     H233363   0.399   3.725   1.408
11041WAT      O33364   8.095   4.340   5.850
11041WAT     H133365   8.162   4.409   5.875
11041WAT     H233366   8.139   4.268   5.796
11042WAT      O33367   7.842   7.181   2.999
11042WAT     H133368   7.924   7.229   2.966
11042WAT     H233369   7.825   7.206   3.094
11043WAT      O33370   3.549   9.625   7.728
11043WAT     H133371   3.564   9.545   7.669
11043WAT     H233372   3.594   9.610   7.816
11044WAT      O33373   1.037   2.528   9.067
11044WAT     H133374   1.103   2.517   8.993
11044WAT     H233375   0.990   2.616   9.057
11045WAT      O33376   0.937   6.913   7.678
11045WAT     H133377   1.034   6.920   7.702
11045WAT     H233378   0.909   6.816   7.679
11046WAT      O33379   3.149   6.198   4.867
11046WAT     H133380   3.073   6.234   4.813
11046WAT     H233381   3.115   6.130   4.932
11047WAT      O33382   1.520   6.968   6.175
11047WAT     H133383   1.509   6.905   6.252
11047WAT     H233384   1.614   6.964   6.141
11048WAT      O33385   9.337   7.286   1.504
11048WAT     H133386   9.281   7.206   1.485
11048WAT     H233387   9.433   7.264   1.487
11049WAT      O33388   1.168   9.009   0.440
11049WAT     H133389   1.109   9.060   0.503
11049WAT     H233390   1.241   8.963   0.491
11050WAT      O33391   7.383   3.305   5.778
11050WAT     H133392   7.462   3.280   5.723
11050WAT     H233393   7.304   3.250   5.751
11051WAT      O33394   6.422   0.198   5.210
11051WAT     H133395   6.513   0.197   5.251
11051WAT     H233396   6.416   0.125   5.141
11052WAT      O33397   2.391   9.838   4.712
11052WAT     H133398   2.459   9.910   4.720
11052WAT     H233399   2.374   9.798   4.802
11053WAT      O33400   2.809   5.418   6.685
11053WAT     H133401   2.733   5.482   6.698
11053WAT     H233402   2.866   5.418   6.767
11054WAT      O33403   9.556   5.275   9.077
11054WAT     H133404   9.485   5.321   9.025
11054WAT     H233405   9.639   5.269   9.022
11055WAT      O33406   6.816   4.593   5.755
11055WAT     H133407   6.856   4.649   5.827
11055WAT     H233408   6.716   4.604   5.757
11056WAT      O33409   1.076   2.169   9.818
11056WAT     H133410   1.086   2.070   9.810
11056WAT     H233411   1.155   2.214   9.776
11057WAT      O33412   2.490   4.748   6.645
11057WAT     H133413   2.493   4.675   6.576
11057WAT     H233414   2.408   4.737   6.701
11058WAT      O33415   3.080   5.128   8.078
11058WAT     H133416   3.150   5.090   8.137
11058WAT     H233417   3.118   5.145   7.987
11059WAT      O33418   3.398   8.171   8.913
11059WAT     H133419   3.307   8.172   8.955
11059WAT     H233420   3.412   8.084   8.866
11060WAT      O33421   8.340   8.290   4.639
11060WAT     H133422   8.297   8.337   4.716
11060WAT     H233423   8.394   8.212   4.673
11061WAT      O33424   2.255   6.347   2.416
11061WAT     H133425   2.193   6.417   2.451
11061WAT     H233426   2.221   6.313   2.328
11062WAT      O33427   4.300   0.201   5.430
11062WAT     H133428   4.273   0.165   5.520
11062WAT     H233429   4.389   0.163   5.405
11063WAT      O33430   2.685   8.058   1.083
11063WAT     H133431   2.756   7.991   1.104
11063WAT     H233432   2.720   8.150   1.101
11064WAT      O33433   2.284   8.839   6.392
11064WAT     H133434   2.289   8.792   6.304
11064WAT     H233435   2.217   8.793   6.450
11065WAT      O33436   7.703   1.367   6.822
11065WAT     H133437   7.647   1.319   6.889
11065WAT     H233438   7.778   1.308   6.793
11066WAT      O33439   5.410   7.007   3.943
11066WAT     H133440   5.470   6.954   4.003
11066WAT     H233441   5.434   6.990   3.848
11067WAT      O33442   1.053   9.255   7.878
11067WAT     H133443   0.978   9.195   7.903
11067WAT     H233444   1.018   9.331   7.822
11068WAT      O33445   6.188   9.591   8.557
11068WAT     H133446   6.247   9.522   8.516
11068WAT     H233447   6.201   9.591   8.657
11069WAT      O33448   0.675   3.652   6.041
11069WAT     H133449   0.620   3.722   5.994
11069WAT     H233450   0.630   3.563   6.032
11070WAT      O33451   6.018   1.746   6.731
11070WAT     H133452   5.998   1.843   6.718
11070WAT     H233453   5.985   1.695   6.652
11071WAT      O33454   3.377   8.653   1.092
11071WAT     H133455   3.409   8.740   1.129
11071WAT     H233456   3.378   8.584   1.164
11072WAT      O33457   2.746   7.205   0.437
11072WAT     H133458   2.721   7.155   0.519
11072WAT     H233459   2.820   7.158   0.390
11073WAT      O33460   6.271   2.777   2.235
11073WAT     H133461   6.307   2.859   2.191
11073WAT     H233462   6.319   2.696   2.201
11074WAT      O33463   5.308   5.993   2.128
11074WAT     H133464   5.306   6.093   2.124
11074WAT     H233465   5.363   5.964   2.206
11075WAT      O33466   8.578   5.109   9.704
11075WAT     H133467   8.649   5.124   9.636
11075WAT     H233468   8.516   5.037   9.673
11076WAT      O33469   6.436   0.056   5.546
11076WAT     H133470   6.363  -0.008   5.571
11076WAT     H233471   6.460   0.043   5.450
11077WAT      O33472   8.724   5.798   6.601
11077WAT     H133473   8.665   5.725   6.637
11077WAT     H233474   8.716   5.801   6.501
11078WAT      O33475   7.901   7.807   4.932
11078WAT     H133476   7.961   7.868   4.983
11078WAT     H233477   7.949   7.771   4.852
11079WAT      O33478   4.002   8.348   2.189
11079WAT     H133479   4.065   8.377   2.118
11079WAT     H233480   4.028   8.389   2.276
11080WAT      O33481   6.721   6.859   7.553
11080WAT     H133482   6.756   6.936   7.607
11080WAT     H233483   6.621   6.857   7.558
11081WAT      O33484   4.347   4.695   0.185
11081WAT     H133485   4.395   4.608   0.178
11081WAT     H233486   4.393   4.754   0.251
11082WAT      O33487   3.507   0.152   8.574
11082WAT     H133488   3.602   0.161   8.545
11082WAT     H233489   3.496   0.194   8.664
11083WAT      O33490   4.926   9.327   4.720
11083WAT     H133491   4.953   9.292   4.631
11083WAT     H233492   4.865   9.406   4.708
11084WAT      O33493   1.809   2.045   1.197
11084WAT     H133494   1.891   1.989   1.185
11084WAT     H233495   1.771   2.068   1.108
11085WAT      O33496   3.831   8.247   8.897
11085WAT     H133497   3.752   8.301   8.926
11085WAT     H233498   3.885   8.300   8.831
11086WAT      O33499   5.618   8.021   7.677
11086WAT     H133500   5.560   7.940   7.680
11086WAT     H233501   5.712   7.993   7.658
11087WAT      O33502   0.720   8.497   8.149
11087WAT     H133503   0.807   8.513   8.103
11087WAT     H233504   0.653   8.463   8.083
11088WAT      O33505   2.133   3.593   4.639
11088WAT     H133506   2.148   3.592   4.540
11088WAT     H233507   2.045   3.637   4.659
11089WAT      O33508   0.078   3.059   7.839
11089WAT     H133509   0.028   2.979   7.805
11089WAT     H233510   0.082   3.057   7.939
11090WAT      O33511   6.009   2.790   3.535
11090WAT     H133512   6.009   2.853   3.613
11090WAT     H233513   6.052   2.834   3.457
11091WAT      O33514   8.598   8.200   1.413
11091WAT     H133515   8.531   8.273   1.424
11091WAT     H233516   8.620   8.189   1.316
11092WAT      O33517   4.672   4.460   1.669
11092WAT     H133518   4.580   4.471   1.708
11092WAT     H233519   4.740   4.476   1.740
11093WAT      O33520   1.517   3.737   2.826
11093WAT     H133521   1.552   3.689   2.745
11093WAT     H233522   1.557   3.829   2.830
11094WAT      O33523   1.070   3.325   3.118
11094WAT     H133524   1.151   3.305   3.063
11094WAT     H233525   0.994   3.265   3.090
11095WAT      O33526   0.794   7.607   7.496
11095WAT     H133527   0.730   7.657   7.554
11095WAT     H233528   0.887   7.641   7.512
11096WAT      O33529   2.761   6.459   9.033
11096WAT     H133530   2.704   6.542   9.040
11096WAT     H233531   2.822   6.454   9.111
11097WAT      O33532   5.346   5.924   6.249
11097WAT     H133533   5.414   5.923   6.176
11097WAT     H233534   5.281   5.998   6.233
11098WAT      O33535   9.514   4.609   0.026
11098WAT     H133536   9.476   4.679   0.087
11098WAT     H233537   9.450   4.591  -0.048
11099WAT      O33538   8.924   9.160   0.293
11099WAT     H133539   8.827   9.137   0.282
11099WAT     H233540   8.933   9.257   0.317
11100WAT      O33541   2.957   8.118   5.459
11100WAT     H133542   3.030   8.066   5.502
11100WAT     H233543   2.971   8.121   5.360
11101WAT      O33544   2.532   8.688   4.623
11101WAT     H133545   2.505   8.776   4.663
11101WAT     H233546   2.476   8.615   4.662
11102WAT      O33547   5.121   4.213   2.381
11102WAT     H133548   5.194   4.160   2.425
11102WAT     H233549   5.074   4.156   2.314
11103WAT      O33550   2.352   5.383   5.338
11103WAT     H133551   2.358   5.376   5.238
11103WAT     H233552   2.313   5.298   5.375
11104WAT      O33553   8.219   5.489   8.440
11104WAT     H133554   8.244   5.393   8.427
11104WAT     H233555   8.301   5.546   8.441
11105WAT      O33556   0.920   2.842   5.682
11105WAT     H133557   0.974   2.771   5.637
11105WAT     H233558   0.826   2.839   5.648
11106WAT      O33559   2.615   1.595   7.086
11106WAT     H133560   2.634   1.693   7.088
11106WAT     H233561   2.532   1.576   7.139
11107WAT      O33562   0.018   5.071   1.396
11107WAT     H133563  -0.063   5.117   1.359
11107WAT     H233564   0.099   5.128   1.380
11108WAT      O33565   3.228   5.380   5.352
11108WAT     H133566   3.272   5.375   5.441
11108WAT     H233567   3.197   5.290   5.324
11109WAT      O33568   9.172   4.110   8.894
11109WAT     H133569   9.112   4.119   8.973
11109WAT     H233570   9.267   4.101   8.926
11110WAT      O33571   8.635   7.829   7.428
11110WAT     H133572   8.697   7.785   7.363
11110WAT     H233573   8.554   7.862   7.380
11111WAT      O33574   0.181   6.646   2.509
11111WAT     H133575   0.259   6.670   2.567
11111WAT     H233576   0.214   6.603   2.425
11112WAT      O33577   5.544   4.615   7.551
11112WAT     H133578   5.568   4.523   7.580
11112WAT     H233579   5.472   4.651   7.611
11113WAT      O33580   1.823   4.187   3.881
11113WAT     H133581   1.824   4.287   3.876
11113WAT     H233582   1.888   4.149   3.816
11114WAT      O33583   5.029   1.516   6.153
11114WAT     H133584   5.023   1.599   6.097
11114WAT     H233585   5.113   1.467   6.131
11115WAT      O33586   6.807   1.938   9.376
11115WAT     H133587   6.864   2.007   9.420
11115WAT     H233588   6.726   1.921   9.431
11116WAT      O33589   9.620   2.355   2.489
11116WAT     H133590   9.638   2.411   2.570
11116WAT     H233591   9.701   2.301   2.468
11117WAT      O33592   8.560   7.441   2.231
11117WAT     H133593   8.602   7.410   2.317
11117WAT     H233594   8.471   7.397   2.220
11118WAT      O33595   3.417   1.578   4.142
11118WAT     H133596   3.514   1.589   4.121
11118WAT     H233597   3.406   1.549   4.237
11119WAT      O33598   9.466   2.814   3.213
11119WAT     H133599   9.514   2.733   3.179
11119WAT     H233600   9.429   2.866   3.136
11120WAT      O33601   4.285   7.193   0.036
11120WAT     H133602   4.205   7.233  -0.009
11120WAT     H233603   4.266   7.181   0.133
11121WAT      O33604   8.001   8.838   2.914
11121WAT     H133605   8.035   8.746   2.936
11121WAT     H233606   7.917   8.830   2.862
11122WAT      O33607   6.272   8.805   4.344
11122WAT     H133608   6.347   8.871   4.343
11122WAT     H233609   6.287   8.736   4.273
11123WAT      O33610   2.209   5.383   2.003
11123WAT     H133611   2.242   5.295   2.035
11123WAT     H233612   2.274   5.455   2.029
11124WAT      O33613   4.484   3.966   2.464
11124WAT     H133614   4.452   3.986   2.556
11124WAT     H233615   4.420   3.905   2.418
11125WAT      O33616   2.684   4.846   5.348
11125WAT     H133617   2.674   4.747   5.350
11125WAT     H233618   2.715   4.875   5.258
11126WAT      O33619   4.116   6.542   2.162
11126WAT     H133620   4.121   6.568   2.259
11126WAT     H233621   4.206   6.549   2.121
11127WAT      O33622   8.154   9.202   4.496
11127WAT     H133623   8.212   9.179   4.417
11127WAT     H233624   8.172   9.296   4.523
11128WAT      O33625   0.444   1.877   5.162
11128WAT     H133626   0.472   1.948   5.098
11128WAT     H233627   0.446   1.788   5.116
11129WAT      O33628   9.564   0.093   4.686
11129WAT     H133629   9.589   0.151   4.608
11129WAT     H233630   9.546  -0.000   4.653
11130WAT      O33631   0.375   2.342   8.498
11130WAT     H133632   0.392   2.276   8.571
11130WAT     H233633   0.395   2.434   8.530
11131WAT      O33634   6.459   2.696   7.242
11131WAT     H133635   6.437   2.792   7.262
11131WAT     H233636   6.556   2.680   7.262
11132WAT      O33637   3.913   3.627   2.638
11132WAT     H133638   4.003   3.618   2.595
11132WAT     H233639   3.901   3.721   2.670
11133WAT      O33640   9.206   6.966   7.562
11133WAT     H133641   9.281   6.996   7.622
11133WAT     H233642   9.218   6.870   7.540
11134WAT      O33643   6.312   1.588   5.794
11134WAT     H133644   6.317   1.648   5.714
11134WAT     H233645   6.225   1.538   5.793
11135WAT      O33646   2.610   8.529   9.243
11135WAT     H133647   2.511   8.511   9.246
11135WAT     H233648   2.658   8.442   9.230
11136WAT      O33649   0.150   9.637   5.608
11136WAT     H133650   0.131   9.620   5.705
11136WAT     H233651   0.194   9.727   5.599
11137WAT      O33652   1.572   9.257   0.753
11137WAT     H133653   1.489   9.300   0.718
11137WAT     H233654   1.597   9.298   0.841
11138WAT      O33655   4.862   1.291   8.397
11138WAT     H133656   4.771   1.318   8.429
11138WAT     H233657   4.924   1.369   8.406
11139WAT      O33658   0.575   2.257   3.542
11139WAT     H133659   0.608   2.207   3.463
11139WAT     H233660   0.645   2.258   3.613
11140WAT      O33661   7.201   5.874   3.066
11140WAT     H133662   7.226   5.925   3.148
11140WAT     H233663   7.256   5.791   3.060
11141WAT      O33664   5.579   0.076   6.251
11141WAT     H133665   5.631   0.161   6.265
11141WAT     H233666   5.597   0.014   6.327
11142WAT      O33667   7.115   7.498   1.893
11142WAT     H133668   7.210   7.515   1.918
11142WAT     H233669   7.098   7.399   1.890
11143WAT      O33670   5.055   5.183   6.341
11143WAT     H133671   5.132   5.235   6.305
11143WAT     H233672   5.009   5.135   6.266
11144WAT      O33673   6.795   2.771   2.579
11144WAT     H133674   6.769   2.696   2.639
11144WAT     H233675   6.713   2.815   2.543
11145WAT      O33676   3.243   5.994   5.250
11145WAT     H133677   3.260   5.899   5.276
11145WAT     H233678   3.329   6.035   5.220
11146WAT      O33679   1.054   4.087   9.278
11146WAT     H133680   1.042   4.031   9.360
11146WAT     H233681   1.032   4.033   9.197
11147WAT      O33682   9.066   1.857   9.742
11147WAT     H133683   9.050   1.837   9.838
11147WAT     H233684   9.000   1.925   9.710
11148WAT      O33685   9.499   1.569   7.403
11148WAT     H133686   9.477   1.666   7.391
11148WAT     H233687   9.441   1.514   7.345
11149WAT      O33688   6.655   0.852   0.417
11149WAT     H133689   6.617   0.907   0.343
11149WAT     H233690   6.754   0.843   0.405
11150WAT      O33691   3.994   7.257   0.428
11150WAT     H133692   3.909   7.203   0.425
11150WAT     H233693   3.993   7.323   0.352
11151WAT      O33694   2.929   9.412   4.426
11151WAT     H133695   2.932   9.322   4.469
11151WAT     H233696   3.022   9.438   4.398
11152WAT      O33697   8.979   3.328   6.855
11152WAT     H133698   9.071   3.303   6.826
11152WAT     H233699   8.912   3.269   6.808
11153WAT      O33700   6.482   1.912   9.182
11153WAT     H133701   6.442   2.001   9.205
11153WAT     H233702   6.472   1.850   9.260
11154WAT      O33703   1.500   2.000   6.082
11154WAT     H133704   1.587   1.974   6.040
11154WAT     H233705   1.516   2.029   6.176
11155WAT      O33706   4.728   0.531   4.758
11155WAT     H133707   4.687   0.602   4.815
11155WAT     H233708   4.672   0.448   4.761
11156WAT      O33709   9.446   1.320   4.375
11156WAT     H133710   9.384   1.399   4.372
11156WAT     H233711   9.469   1.293   4.282
11157WAT      O33712   3.394   7.270   5.177
11157WAT     H133713   3.468   7.324   5.215
11157WAT     H233714   3.334   7.239   5.251
11158WAT      O33715   0.363   5.032   8.347
11158WAT     H133716   0.276   5.032   8.396
11158WAT     H233717   0.376   4.943   8.303
11159WAT      O33718   4.596   9.741   2.317
11159WAT     H133719   4.656   9.782   2.247
11159WAT     H233720   4.510   9.792   2.321
11160WAT      O33721   6.768   1.916   3.294
11160WAT     H133722   6.744   1.832   3.344
11160WAT     H233723   6.775   1.991   3.359
11161WAT      O33724   1.830   9.499   1.602
11161WAT     H133725   1.754   9.449   1.645
11161WAT     H233726   1.879   9.550   1.673
11162WAT      O33727   4.058   3.114   3.565
11162WAT     H133728   4.086   3.127   3.470
11162WAT     H233729   4.037   3.017   3.580
11163WAT      O33730   8.108   8.844   0.873
11163WAT     H133731   8.102   8.926   0.928
11163WAT     H233732   8.204   8.826   0.850
11164WAT      O33733   1.972   7.475   2.157
11164WAT     H133734   1.969   7.481   2.057
11164WAT     H233735   2.019   7.391   2.184
11165WAT      O33736   4.117   8.400   0.163
11165WAT     H133737   4.095   8.494   0.136
11165WAT     H233738   4.112   8.340   0.083
11166WAT      O33739   1.058   5.045   6.950
11166WAT     H133740   1.123   5.097   7.006
11166WAT     H233741   0.967   5.049   6.991
11167WAT      O33742   3.136   5.245   7.175
11167WAT     H133743   3.171   5.338   7.169
11167WAT     H233744   3.175   5.199   7.255
11168WAT      O33745   3.209   5.807   1.512
11168WAT     H133746   3.169   5.730   1.562
11168WAT     H233747   3.253   5.870   1.576
11169WAT      O33748   0.813   0.411   6.051
11169WAT     H133749   0.776   0.468   6.125
11169WAT     H233750   0.791   0.315   6.069
11170WAT      O33751   5.093   5.979   1.540
11170WAT     H133752   5.034   5.934   1.473
11170WAT     H233753   5.076   6.077   1.540
11171WAT      O33754   3.742   2.968   7.417
11171WAT     H133755   3.709   2.896   7.355
11171WAT     H233756   3.670   3.037   7.429
11172WAT      O33757   7.162   8.332   1.607
11172WAT     H133758   7.160   8.362   1.702
11172WAT     H233759   7.199   8.239   1.602
11173WAT      O33760   8.560   2.092   4.434
11173WAT     H133761   8.464   2.109   4.412
11173WAT     H233762   8.575   2.107   4.531
11174WAT      O33763   1.321   2.494   2.600
11174WAT     H133764   1.251   2.469   2.533
11174WAT     H233765   1.296   2.581   2.643
11175WAT      O33766   0.080   2.775   4.821
11175WAT     H133767  -0.005   2.825   4.801
11175WAT     H233768   0.082   2.691   4.767
11176WAT      O33769   4.990   7.526   6.289
11176WAT     H133770   5.057   7.598   6.310
11176WAT     H233771   4.943   7.549   6.204
11177WAT      O33772   7.607   5.634   3.559
11177WAT     H133773   7.593   5.635   3.658
11177WAT     H233774   7.687   5.577   3.539
11178WAT      O33775   0.629   2.460   6.665
11178WAT     H133776   0.687   2.539   6.645
11178WAT     H233777   0.670   2.378   6.625
11179WAT      O33778   6.147   2.705   8.114
11179WAT     H133779   6.178   2.672   8.025
11179WAT     H233780   6.195   2.655   8.186
11180WAT      O33781   6.946   3.369   8.624
11180WAT     H133782   6.902   3.294   8.675
11180WAT     H233783   6.918   3.365   8.528
11181WAT      O33784   7.404   7.941   3.473
11181WAT     H133785   7.351   7.876   3.528
11181WAT     H233786   7.358   7.956   3.386
11182WAT      O33787   9.213   1.859   0.505
11182WAT     H133788   9.285   1.906   0.557
11182WAT     H233789   9.126   1.867   0.554
11183WAT      O33790   0.550   7.264   7.755
11183WAT     H133791   0.611   7.268   7.676
11183WAT     H233792   0.480   7.335   7.747
11184WAT      O33793   8.696   0.603   6.804
11184WAT     H133794   8.726   0.525   6.749
11184WAT     H233795   8.776   0.657   6.832
11185WAT      O33796   5.408   2.562   0.268
11185WAT     H133797   5.448   2.644   0.228
11185WAT     H233798   5.406   2.570   0.367
11186WAT      O33799   2.866   5.021   1.833
11186WAT     H133800   2.811   4.942   1.860
11186WAT     H233801   2.963   4.995   1.831
11187WAT      O33802   9.615   6.474   5.314
11187WAT     H133803   9.706   6.505   5.341
11187WAT     H233804   9.564   6.446   5.395
11188WAT      O33805   2.353   2.835   1.371
11188WAT     H133806   2.331   2.809   1.277
11188WAT     H233807   2.276   2.885   1.410
11189WAT      O33808   9.655   3.482   4.213
11189WAT     H133809   9.732   3.523   4.164
11189WAT     H233810   9.673   3.482   4.311
11190WAT      O33811   1.605   6.119   9.077
11190WAT     H133812   1.537   6.050   9.049
11190WAT     H233813   1.693   6.098   9.034
11191WAT      O33814   4.679   6.429   7.567
11191WAT     H133815   4.715   6.337   7.550
11191WAT     H233816   4.585   6.435   7.531
11192WAT      O33817   9.483   7.547   3.528
11192WAT     H133818   9.565   7.602   3.542
11192WAT     H233819   9.471   7.529   3.430
11193WAT      O33820   3.685   1.560   2.580
11193WAT     H133821   3.763   1.539   2.639
11193WAT     H233822   3.681   1.496   2.504
11194WAT      O33823   5.872   6.337   1.121
11194WAT     H133824   5.812   6.258   1.133
11194WAT     H233825   5.932   6.346   1.201
11195WAT      O33826   4.606   7.852   5.636
11195WAT     H133827   4.676   7.803   5.584
11195WAT     H233828   4.632   7.857   5.732
11196WAT      O33829   2.598   1.860   9.071
11196WAT     H133830   2.545   1.942   9.049
11196WAT     H233831   2.670   1.883   9.135
11197WAT      O33832   9.332   1.911   3.536
11197WAT     H133833   9.244   1.868   3.516
11197WAT     H233834   9.390   1.907   3.455
11198WAT      O33835   2.362   0.739   1.769
11198WAT     H133836   2.438   0.753   1.832
11198WAT     H233837   2.398   0.722   1.677
11199WAT      O33838   7.087   7.693   3.297
11199WAT     H133839   7.177   7.652   3.284
11199WAT     H233840   7.097   7.792   3.312
11200WAT      O33841   0.196   8.153   1.679
11200WAT     H133842   0.241   8.240   1.700
11200WAT     H233843   0.098   8.160   1.701
11201WAT      O33844   3.688   2.239   0.201
11201WAT     H133845   3.606   2.272   0.155
11201WAT     H233846   3.663   2.197   0.288
11202WAT      O33847   5.269   6.589   2.755
11202WAT     H133848   5.287   6.501   2.800
11202WAT     H233849   5.322   6.661   2.801
11203WAT      O33850   8.163   5.024   6.056
11203WAT     H133851   8.250   4.975   6.051
11203WAT     H233852   8.180   5.122   6.066
11204WAT      O33853   2.530   2.351   2.644
11204WAT     H133854   2.477   2.345   2.559
11204WAT     H233855   2.580   2.266   2.658
11205WAT      O33856   1.062   6.258   5.541
11205WAT     H133857   0.994   6.327   5.565
11205WAT     H233858   1.149   6.302   5.520
11206WAT      O33859   1.260   8.427   0.384
11206WAT     H133860   1.252   8.462   0.291
11206WAT     H233861   1.236   8.498   0.449
11207WAT      O33862   2.729   4.817   1.200
11207WAT     H133863   2.640   4.805   1.156
11207WAT     H233864   2.746   4.915   1.214
11208WAT      O33865   0.256   9.589   4.197
11208WAT     H133866   0.332   9.634   4.150
11208WAT     H233867   0.255   9.618   4.293
11209WAT      O33868   1.816   2.357   8.970
11209WAT     H133869   1.907   2.320   8.986
11209WAT     H233870   1.795   2.424   9.041
11210WAT      O33871   2.309   7.363   9.692
11210WAT     H133872   2.217   7.324   9.680
11210WAT     H233873   2.344   7.394   9.603
11211WAT      O33874   7.271   3.860   7.712
11211WAT     H133875   7.208   3.854   7.635
11211WAT     H233876   7.277   3.772   7.758
11212WAT      O33877   8.918   4.034   0.646
11212WAT     H133878   9.001   4.074   0.684
11212WAT     H233879   8.899   4.077   0.557
11213WAT      O33880   5.820   7.793   2.329
11213WAT     H133881   5.887   7.814   2.259
11213WAT     H233882   5.845   7.708   2.375
11214WAT      O33883   0.929   7.731   0.736
11214WAT     H133884   0.897   7.664   0.802
11214WAT     H233885   0.869   7.811   0.738
11215WAT      O33886   4.171   7.869   5.958
11215WAT     H133887   4.214   7.884   6.047
11215WAT     H233888   4.128   7.954   5.927
11216WAT      O33889   3.971   1.261   2.360
11216WAT     H133890   4.068   1.273   2.381
11216WAT     H233891   3.957   1.171   2.318
11217WAT      O33892   7.855   5.716   4.381
11217WAT     H133893   7.768   5.697   4.427
11217WAT     H233894   7.930   5.708   4.447
11218WAT      O33895   2.940   2.036   7.883
11218WAT     H133896   2.852   1.988   7.881
11218WAT     H233897   3.014   1.969   7.893
11219WAT      O33898   6.705   4.233   0.703
11219WAT     H133899   6.733   4.280   0.787
11219WAT     H233900   6.727   4.290   0.624
11220WAT      O33901   5.127   8.453   8.999
11220WAT     H133902   5.145   8.423   9.093
11220WAT     H233903   5.058   8.394   8.957
11221WAT      O33904   2.861   5.377   4.814
11221WAT     H133905   2.826   5.297   4.765
11221WAT     H233906   2.864   5.456   4.753
11222WAT      O33907   9.026   6.633   5.982
11222WAT     H133908   9.072   6.554   6.024
11222WAT     H233909   8.928   6.614   5.975
11223WAT      O33910   4.050   2.411   9.486
11223WAT     H133911   4.057   2.506   9.455
11223WAT     H233912   4.100   2.352   9.424
11224WAT      O33913   8.356   2.234   7.993
11224WAT     H133914   8.429   2.166   7.983
11224WAT     H233915   8.275   2.191   8.031
11225WAT      O33916   3.018   3.712   4.117
11225WAT     H133917   3.079   3.672   4.047
11225WAT     H233918   2.931   3.735   4.075
11226WAT      O33919   9.673   2.252   7.838
11226WAT     H133920   9.637   2.163   7.809
11226WAT     H233921   9.708   2.245   7.932
11227WAT      O33922   3.980   0.690   5.080
11227WAT     H133923   4.073   0.672   5.112
11227WAT     H233924   3.971   0.661   4.985
11228WAT      O33925   8.110   1.274   3.040
11228WAT     H133926   8.148   1.361   3.070
11228WAT     H233927   8.182   1.204   3.039
11229WAT      O33928   3.929   5.039   8.735
11229WAT     H133929   3.982   5.104   8.790
11229WAT     H233930   3.847   5.084   8.700
11230WAT      O33931   6.093   3.264   8.803
11230WAT     H133932   6.054   3.355   8.795
11230WAT     H233933   6.109   3.244   8.900
11231WAT      O33934   5.412   0.810   0.259
11231WAT     H133935   5.397   0.757   0.343
11231WAT     H233936   5.509   0.836   0.253
11232WAT      O33937   5.720   6.290   7.675
11232WAT     H133938   5.679   6.381   7.669
11232WAT     H233939   5.697   6.248   7.762
11233WAT      O33940   9.483   1.915   6.786
11233WAT     H133941   9.550   1.883   6.853
11233WAT     H233942   9.400   1.947   6.834
11234WAT      O33943   6.336   5.340   3.869
11234WAT     H133944   6.412   5.295   3.822
11234WAT     H233945   6.348   5.331   3.968
11235WAT      O33946   4.397   4.290   6.532
11235WAT     H133947   4.373   4.197   6.559
11235WAT     H233948   4.320   4.333   6.485
11236WAT      O33949   8.643   5.182   8.819
11236WAT     H133950   8.606   5.198   8.728
11236WAT     H233951   8.578   5.126   8.872
11237WAT      O33952   3.172   5.480   6.513
11237WAT     H133953   3.162   5.435   6.601
11237WAT     H233954   3.256   5.448   6.469
11238WAT      O33955   7.881   4.301   8.502
11238WAT     H133956   7.815   4.312   8.427
11238WAT     H233957   7.894   4.390   8.547
11239WAT      O33958   6.834   4.896   5.735
11239WAT     H133959   6.745   4.920   5.696
11239WAT     H233960   6.902   4.888   5.662
11240WAT      O33961   8.902   2.020   0.373
11240WAT     H133962   8.878   1.938   0.320
11240WAT     H233963   8.920   1.995   0.467
11241WAT      O33964   9.301   8.822   8.275
11241WAT     H133965   9.377   8.758   8.264
11241WAT     H233966   9.306   8.892   8.205
11242WAT      O33967   7.273   4.292   0.352
11242WAT     H133968   7.294   4.234   0.273
11242WAT     H233969   7.263   4.235   0.433
11243WAT      O33970   5.556   9.303   5.244
11243WAT     H133971   5.615   9.363   5.298
11243WAT     H233972   5.559   9.211   5.281
11244WAT      O33973   6.019   5.288   1.786
11244WAT     H133974   6.042   5.288   1.883
11244WAT     H233975   5.970   5.372   1.763
11245WAT      O33976   9.262   3.680   8.439
11245WAT     H133977   9.232   3.605   8.498
11245WAT     H233978   9.207   3.761   8.459
11246WAT      O33979   5.618   6.070   2.911
11246WAT     H133980   5.521   6.068   2.934
11246WAT     H233981   5.631   6.116   2.823
11247WAT      O33982   8.956   1.773   0.958
11247WAT     H133983   8.898   1.759   0.879
11247WAT     H233984   8.906   1.823   1.029
11248WAT      O33985   6.254   2.747   8.962
11248WAT     H133986   6.295   2.837   8.977
11248WAT     H233987   6.221   2.740   8.868
11249WAT      O33988   4.562   7.180   0.888
11249WAT     H133989   4.577   7.223   0.976
11249WAT     H233990   4.496   7.234   0.835
11250WAT      O33991   1.090   4.270   2.990
11250WAT     H133992   1.178   4.276   3.036
11250WAT     H233993   1.103   4.233   2.898
11251WAT      O33994   7.548   6.095   5.142
11251WAT     H133995   7.550   6.172   5.079
11251WAT     H233996   7.543   6.129   5.236
11252WAT      O33997   2.218   2.292   4.191
11252WAT     H133998   2.214   2.266   4.287
11252WAT     H233999   2.192   2.215   4.133
11253WAT      O34000   6.305   5.070   5.295
11253WAT     H134001   6.359   5.034   5.219
11253WAT     H234002   6.319   5.013   5.376
11254WAT      O34003   1.513   4.840   0.734
11254WAT     H134004   1.585   4.846   0.804
11254WAT     H234005   1.465   4.927   0.729
11255WAT      O34006   1.265   9.294   8.657
11255WAT     H134007   1.204   9.363   8.697
11255WAT     H234008   1.314   9.247   8.730
11256WAT      O34009   9.088   2.131   6.622
11256WAT     H134010   9.072   2.201   6.692
11256WAT     H234011   9.114   2.176   6.536
11257WAT      O34012   7.081   5.708   7.828
11257WAT     H134013   7.003   5.659   7.867
11257WAT     H234014   7.119   5.656   7.751
11258WAT      O34015   2.989   3.054   4.680
11258WAT     H134016   2.997   2.984   4.608
11258WAT     H234017   2.997   3.145   4.639
11259WAT      O34018   5.158   8.734   3.696
11259WAT     H134019   5.088   8.764   3.631
11259WAT     H234020   5.119   8.665   3.757
11260WAT      O34021   4.486   0.501   5.377
11260WAT     H134022   4.507   0.563   5.301
11260WAT     H234023   4.387   0.488   5.383
11261WAT      O34024   8.756   6.927   6.543
11261WAT     H134025   8.812   6.924   6.626
11261WAT     H234026   8.668   6.882   6.562
11262WAT      O34027   0.260   8.800   1.587
11262WAT     H134028   0.301   8.741   1.518
11262WAT     H234029   0.307   8.889   1.587
11263WAT      O34030   7.538   9.368   0.639
11263WAT     H134031   7.618   9.424   0.662
11263WAT     H234032   7.508   9.390   0.546
11264WAT      O34033   1.393   9.105   6.081
11264WAT     H134034   1.486   9.096   6.046
11264WAT     H234035   1.387   9.185   6.141
11265WAT      O34036   6.352   4.198   0.443
11265WAT     H134037   6.434   4.245   0.413
11265WAT     H234038   6.325   4.230   0.533
11266WAT      O34039   4.510   0.417   3.367
11266WAT     H134040   4.423   0.387   3.328
11266WAT     H234041   4.494   0.465   3.453
11267WAT      O34042   9.245   4.478   8.167
11267WAT     H134043   9.325   4.426   8.197
11267WAT     H234044   9.165   4.418   8.168
11268WAT      O34045   7.612   4.517   6.669
11268WAT     H134046   7.560   4.461   6.605
11268WAT     H234047   7.691   4.465   6.702
11269WAT      O34048   0.041   0.037   4.975
11269WAT     H134049  -0.034  -0.011   4.930
11269WAT     H234050   0.127  -0.011   4.958
11270WAT      O34051   8.145   7.787   1.201
11270WAT     H134052   8.121   7.855   1.132
11270WAT     H234053   8.214   7.725   1.165
11271WAT      O34054   9.586   0.827   6.289
11271WAT     H134055   9.661   0.831   6.222
11271WAT     H234056   9.499   0.830   6.241
11272WAT      O34057   3.649   1.300   8.272
11272WAT     H134058   3.607   1.211   8.256
11272WAT     H234059   3.581   1.372   8.261
11273WAT      O34060   7.395   0.230   3.096
11273WAT     H134061   7.374   0.183   3.182
11273WAT     H234062   7.479   0.282   3.107
11274WAT      O34063   2.331   1.576   2.526
11274WAT     H134064   2.251   1.609   2.576
11274WAT     H234065   2.409   1.635   2.544
11275WAT      O34066   0.249   0.781   1.342
11275WAT     H134067   0.306   0.763   1.262
11275WAT     H234068   0.270   0.872   1.377
11276WAT      O34069   2.394   7.202   2.456
11276WAT     H134070   2.432   7.256   2.380
11276WAT     H234071   2.378   7.109   2.424
11277WAT      O34072   2.726   5.518   7.053
11277WAT     H134073   2.627   5.513   7.067
11277WAT     H234074   2.772   5.519   7.142
11278WAT      O34075   4.882   7.720   1.712
11278WAT     H134076   4.954   7.669   1.758
11278WAT     H234077   4.922   7.796   1.661
11279WAT      O34078   1.560   5.408   3.319
11279WAT     H134079   1.581   5.467   3.241
11279WAT     H234080   1.503   5.459   3.384
11280WAT      O34081   6.108   3.004   6.382
11280WAT     H134082   6.086   3.099   6.360
11280WAT     H234083   6.042   2.968   6.447
11281WAT      O34084   1.444   1.814   0.368
11281WAT     H134085   1.469   1.839   0.461
11281WAT     H234086   1.509   1.746   0.333
11282WAT      O34087   0.612   4.318   0.242
11282WAT     H134088   0.575   4.364   0.323
11282WAT     H234089   0.539   4.266   0.197
11283WAT      O34090   3.782   5.976   1.760
11283WAT     H134091   3.880   5.998   1.763
11283WAT     H234092   3.771   5.878   1.744
11284WAT      O34093   2.884   2.099   9.727
11284WAT     H134094   2.980   2.127   9.721
11284WAT     H234095   2.826   2.168   9.683
11285WAT      O34096   1.467   2.155   4.936
11285WAT     H134097   1.395   2.104   4.983
11285WAT     H234098   1.532   2.191   5.003
11286WAT      O34099   9.318   1.983   3.252
11286WAT     H134100   9.404   1.992   3.201
11286WAT     H234101   9.257   2.058   3.227
11287WAT      O34102   3.898   9.754   3.909
11287WAT     H134103   3.805   9.742   3.872
11287WAT     H234104   3.964   9.717   3.844
11288WAT      O34105   1.660   0.715   5.044
11288WAT     H134106   1.669   0.740   4.947
11288WAT     H234107   1.643   0.797   5.098
11289WAT      O34108   2.456   8.770   3.352
11289WAT     H134109   2.513   8.700   3.309
11289WAT     H234110   2.513   8.830   3.407
11290WAT      O34111   8.084   8.773   2.645
11290WAT     H134112   8.032   8.694   2.613
11290WAT     H234113   8.105   8.763   2.742
11291WAT      O34114   8.552   5.124   5.244
11291WAT     H134115   8.508   5.075   5.319
11291WAT     H234116   8.589   5.059   5.178
11292WAT      O34117   9.772   9.509   2.565
11292WAT     H134118   9.853   9.463   2.529
11292WAT     H234119   9.799   9.589   2.618
11293WAT      O34120   8.834   9.142   7.608
11293WAT     H134121   8.878   9.162   7.520
11293WAT     H234122   8.735   9.147   7.598
11294WAT      O34123   5.811   1.220   2.572
11294WAT     H134124   5.718   1.254   2.585
11294WAT     H234125   5.854   1.207   2.661
11295WAT      O34126   2.144   2.192   8.100
11295WAT     H134127   2.185   2.262   8.041
11295WAT     H234128   2.072   2.233   8.155
11296WAT      O34129   3.456   5.813   1.360
11296WAT     H134130   3.362   5.817   1.393
11296WAT     H234131   3.479   5.718   1.338
11297WAT      O34132   8.784   8.566   5.905
11297WAT     H134133   8.834   8.482   5.883
11297WAT     H234134   8.845   8.644   5.897
11298WAT      O34135   7.576   4.394   4.030
11298WAT     H134136   7.572   4.322   4.100
11298WAT     H234137   7.549   4.482   4.071
11299WAT      O34138   6.088   4.304   0.544
11299WAT     H134139   6.082   4.387   0.599
11299WAT     H234140   6.060   4.225   0.599
11300WAT      O34141   2.964   4.666   3.897
11300WAT     H134142   2.892   4.691   3.832
11300WAT     H234143   3.030   4.607   3.852
11301WAT      O34144   6.183   5.862   3.800
11301WAT     H134145   6.176   5.763   3.807
11301WAT     H234146   6.263   5.886   3.745
11302WAT      O34147   9.377   2.895   9.429
11302WAT     H134148   9.403   2.958   9.503
11302WAT     H234149   9.278   2.894   9.419
11303WAT      O34150   5.073   9.740   3.415
11303WAT     H134151   5.141   9.762   3.344
11303WAT     H234152   4.981   9.760   3.381
11304WAT      O34153   2.172   7.849   2.724
11304WAT     H134154   2.209   7.904   2.648
11304WAT     H234155   2.114   7.908   2.781
11305WAT      O34156   7.218   4.375   0.746
11305WAT     H134157   7.282   4.438   0.699
11305WAT     H234158   7.267   4.292   0.772
11306WAT      O34159   6.637   2.925   2.265
11306WAT     H134160   6.583   2.990   2.318
11306WAT     H234161   6.683   2.973   2.190
11307WAT      O34162   1.864   7.375   8.254
11307WAT     H134163   1.864   7.297   8.317
11307WAT     H234164   1.956   7.387   8.217
11308WAT      O34165   6.601   5.104   8.095
11308WAT     H134166   6.627   5.195   8.127
11308WAT     H234167   6.548   5.058   8.166
11309WAT      O34168   8.214   4.182   0.733
11309WAT     H134169   8.231   4.183   0.832
11309WAT     H234170   8.116   4.199   0.717
11310WAT      O34171   7.034   0.599   3.737
11310WAT     H134172   7.037   0.581   3.835
11310WAT     H234173   7.047   0.514   3.686
11311WAT      O34174   3.393   4.734   7.735
11311WAT     H134175   3.314   4.691   7.692
11311WAT     H234176   3.477   4.694   7.699
11312WAT      O34177   3.634   0.565   5.730
11312WAT     H134178   3.568   0.541   5.660
11312WAT     H234179   3.680   0.650   5.706
11313WAT      O34180   8.031   3.577   1.352
11313WAT     H134181   8.002   3.498   1.406
11313WAT     H234182   8.009   3.562   1.255
11314WAT      O34183   4.803   4.634   2.862
11314WAT     H134184   4.806   4.535   2.868
11314WAT     H234185   4.888   4.672   2.899
11315WAT      O34186   0.686   4.838   3.829
11315WAT     H134187   0.622   4.771   3.867
11315WAT     H234188   0.738   4.795   3.755
11316WAT      O34189   3.943   0.054   8.876
11316WAT     H134190   3.935   0.153   8.866
11316WAT     H234191   3.944   0.011   8.786
11317WAT      O34192   5.463   1.598   7.058
11317WAT     H134193   5.413   1.666   7.110
11317WAT     H234194   5.559   1.599   7.085
11318WAT      O34195   7.981   8.618   5.592
11318WAT     H134196   8.076   8.617   5.622
11318WAT     H234197   7.955   8.710   5.565
11319WAT      O34198   9.139   8.798   2.870
11319WAT     H134199   9.237   8.788   2.854
11319WAT     H234200   9.118   8.893   2.894
11320WAT      O34201   1.266   6.167   7.755
11320WAT     H134202   1.365   6.156   7.752
11320WAT     H234203   1.228   6.155   7.663
11321WAT      O34204   2.107   2.860   5.554
11321WAT     H134205   2.099   2.950   5.596
11321WAT     H234206   2.136   2.793   5.623
11322WAT      O34207   0.276   8.273   2.028
11322WAT     H134208   0.256   8.221   2.111
11322WAT     H234209   0.242   8.367   2.039
11323WAT      O34210   9.843   3.411   7.136
11323WAT     H134211   9.937   3.426   7.167
11323WAT     H234212   9.843   3.397   7.037
11324WAT      O34213   1.588   6.839   3.215
11324WAT     H134214   1.493   6.847   3.243
11324WAT     H234215   1.627   6.754   3.251
11325WAT      O34216   7.380   0.700   6.080
11325WAT     H134217   7.438   0.621   6.098
11325WAT     H234218   7.329   0.723   6.163
11326WAT      O34219   6.797   7.543   7.003
11326WAT     H134220   6.742   7.464   6.977
11326WAT     H234221   6.737   7.612   7.045
11327WAT      O34222   9.129   1.833   0.105
11327WAT     H134223   9.153   1.766   0.176
11327WAT     H234224   9.191   1.911   0.110
11328WAT      O34225   2.364   8.451   6.368
11328WAT     H134226   2.325   8.369   6.408
11328WAT     H234227   2.404   8.508   6.440
11329WAT      O34228   0.931   1.665   5.016
11329WAT     H134229   0.914   1.623   5.106
11329WAT     H234230   1.024   1.642   4.987
11330WAT      O34231   4.728   1.458   3.219
11330WAT     H134232   4.798   1.400   3.177
11330WAT     H234233   4.644   1.406   3.231
11331WAT      O34234   5.446   9.492   0.347
11331WAT     H134235   5.371   9.427   0.361
11331WAT     H234236   5.533   9.447   0.362
11332WAT      O34237   7.971   3.606   9.155
11332WAT     H134238   7.900   3.537   9.160
11332WAT     H234239   8.058   3.567   9.188
11333WAT      O34240   1.898   1.690   7.220
11333WAT     H134241   1.934   1.728   7.306
11333WAT     H234242   1.799   1.677   7.228
11334WAT      O34243   6.345   1.957   7.874
11334WAT     H134244   6.365   2.028   7.807
11334WAT     H234245   6.429   1.927   7.918
11335WAT      O34246   6.746   4.106   3.311
11335WAT     H134247   6.767   4.032   3.375
11335WAT     H234248   6.647   4.124   3.312
11336WAT      O34249   3.525   7.577   7.765
11336WAT     H134250   3.456   7.533   7.707
11336WAT     H234251   3.616   7.554   7.732
11337WAT      O34252   9.353   8.475   8.106
11337WAT     H134253   9.278   8.434   8.159
11337WAT     H234254   9.325   8.566   8.075
11338WAT      O34255   4.142   1.847   3.294
11338WAT     H134256   4.155   1.928   3.351
11338WAT     H234257   4.192   1.858   3.208
11339WAT      O34258   7.854   1.385   2.345
11339WAT     H134259   7.881   1.319   2.415
11339WAT     H234260   7.935   1.433   2.311
11340WAT      O34261   4.888   6.984   1.805
11340WAT     H134262   4.955   6.910   1.794
11340WAT     H234263   4.804   6.960   1.756
11341WAT      O34264   4.897   0.740   2.204
11341WAT     H134265   4.914   0.714   2.109
11341WAT     H234266   4.872   0.658   2.257
11342WAT      O34267   7.470   2.273   2.218
11342WAT     H134268   7.395   2.334   2.191
11342WAT     H234269   7.555   2.305   2.177
11343WAT      O34270   3.860   4.778   3.378
11343WAT     H134271   3.837   4.703   3.440
11343WAT     H234272   3.781   4.796   3.318
11344WAT      O34273   7.216   1.830   5.106
11344WAT     H134274   7.204   1.869   5.197
11344WAT     H234275   7.157   1.750   5.096
11345WAT      O34276   9.684   7.398   7.703
11345WAT     H134277   9.607   7.386   7.766
11345WAT     H234278   9.769   7.404   7.755
11346WAT      O34279   8.923   8.131   1.549
11346WAT     H134280   8.998   8.161   1.490
11346WAT     H234281   8.863   8.209   1.569
11347WAT      O34282   3.891   4.847   6.833
11347WAT     H134283   3.948   4.917   6.877
11347WAT     H234284   3.947   4.795   6.768
11348WAT      O34285   6.739   3.688   6.123
11348WAT     H134286   6.711   3.743   6.201
11348WAT     H234287   6.768   3.749   6.049
11349WAT      O34288   2.767   8.851   5.278
11349WAT     H134289   2.796   8.757   5.299
11349WAT     H234290   2.739   8.896   5.362
11350WAT      O34291   1.202   3.878   3.696
11350WAT     H134292   1.163   3.881   3.604
11350WAT     H234293   1.177   3.792   3.741
11351WAT      O34294   8.542   9.745   1.912
11351WAT     H134295   8.623   9.696   1.942
11351WAT     H234296   8.507   9.801   1.987
11352WAT      O34297   7.066   8.506   4.557
11352WAT     H134298   7.077   8.585   4.618
11352WAT     H234299   7.156   8.469   4.534
11353WAT      O34300   1.689   0.615   4.200
11353WAT     H134301   1.590   0.610   4.193
11353WAT     H234302   1.714   0.681   4.270
11354WAT      O34303   6.073   3.244   5.321
11354WAT     H134304   6.135   3.270   5.247
11354WAT     H234305   6.071   3.317   5.389
11355WAT      O34306   3.010   9.111   2.025
11355WAT     H134307   3.073   9.104   1.948
11355WAT     H234308   2.960   9.197   2.020
11356WAT      O34309   8.934   2.422   9.444
11356WAT     H134310   8.889   2.449   9.529
11356WAT     H234311   9.028   2.455   9.444
11357WAT      O34312   0.346   3.703   0.111
11357WAT     H134313   0.382   3.668   0.198
11357WAT     H234314   0.408   3.677   0.037
11358WAT      O34315   2.797   2.523   6.554
11358WAT     H134316   2.780   2.523   6.653
11358WAT     H234317   2.893   2.501   6.537
11359WAT      O34318   4.456   2.928   8.525
11359WAT     H134319   4.420   2.964   8.611
11359WAT     H234320   4.382   2.886   8.473
11360WAT      O34321   0.207   4.706   8.523
11360WAT     H134322   0.240   4.702   8.618
11360WAT     H234323   0.128   4.645   8.513
11361WAT      O34324   8.972   0.326   6.812
11361WAT     H134325   9.068   0.304   6.827
11361WAT     H234326   8.932   0.361   6.897
11362WAT      O34327   5.560   7.674   2.621
11362WAT     H134328   5.503   7.672   2.703
11362WAT     H234329   5.508   7.714   2.545
11363WAT      O34330   3.494   9.151   6.040
11363WAT     H134331   3.524   9.103   5.957
11363WAT     H234332   3.503   9.089   6.118
11364WAT      O34333   5.531   3.930   8.387
11364WAT     H134334   5.512   3.852   8.327
11364WAT     H234335   5.465   3.931   8.462
11365WAT      O34336   7.476   9.339   7.792
11365WAT     H134337   7.516   9.424   7.758
11365WAT     H234338   7.427   9.357   7.877
11366WAT      O34339   0.813   2.503   3.089
11366WAT     H134340   0.731   2.447   3.097
11366WAT     H234341   0.888   2.459   3.139
11367WAT      O34342   5.756   6.643   0.686
11367WAT     H134343   5.673   6.600   0.722
11367WAT     H234344   5.779   6.722   0.742
11368WAT      O34345   1.688   3.002   7.693
11368WAT     H134346   1.649   2.911   7.686
11368WAT     H234347   1.754   3.004   7.768
11369WAT      O34348   0.482   2.164   8.333
11369WAT     H134349   0.442   2.239   8.386
11369WAT     H234350   0.412   2.124   8.274
11370WAT      O34351   0.168   9.603   6.727
11370WAT     H134352   0.221   9.524   6.697
11370WAT     H234353   0.172   9.675   6.658
11371WAT      O34354   5.926   2.037   4.702
11371WAT     H134355   5.987   2.005   4.630
11371WAT     H234356   5.873   2.115   4.669
11372WAT      O34357   3.394   6.362   6.963
11372WAT     H134358   3.322   6.342   7.030
11372WAT     H234359   3.436   6.277   6.933
11373WAT      O34360   6.736   7.877   0.465
11373WAT     H134361   6.700   7.935   0.538
11373WAT     H234362   6.835   7.891   0.458
11374WAT      O34363   7.856   1.126   5.268
11374WAT     H134364   7.937   1.137   5.326
11374WAT     H234365   7.788   1.196   5.291
11375WAT      O34366   8.843   3.671   4.240
11375WAT     H134367   8.759   3.725   4.229
11375WAT     H234368   8.863   3.624   4.154
11376WAT      O34369   9.120   0.876   2.415
11376WAT     H134370   9.184   0.889   2.491
11376WAT     H234371   9.112   0.961   2.363
11377WAT      O34372   0.183   0.715   9.442
11377WAT     H134373   0.277   0.741   9.418
11377WAT     H234374   0.165   0.739   9.538
11378WAT      O34375   4.519   3.489   9.083
11378WAT     H134376   4.473   3.405   9.110
11378WAT     H234377   4.455   3.548   9.033
11379WAT      O34378   2.303   3.625   0.216
11379WAT     H134379   2.221   3.670   0.251
11379WAT     H234380   2.342   3.567   0.287
11380WAT      O34381   2.843   4.013   7.752
11380WAT     H134382   2.829   4.061   7.666
11380WAT     H234383   2.818   3.917   7.742
11381WAT      O34384   4.231   6.900   3.112
11381WAT     H134385   4.196   6.977   3.058
11381WAT     H234386   4.245   6.930   3.207
11382WAT      O34387   4.712   2.246   3.669
11382WAT     H134388   4.723   2.262   3.767
11382WAT     H234389   4.735   2.330   3.619
11383WAT      O34390   5.489   5.229   7.827
11383WAT     H134391   5.454   5.135   7.818
11383WAT     H234392   5.584   5.225   7.858
11384WAT      O34393   0.052   0.302   0.335
11384WAT     H134394   0.149   0.295   0.313
11384WAT     H234395  -0.002   0.290   0.252
11385WAT      O34396   7.483   0.136   8.932
11385WAT     H134397   7.456   0.056   8.879
11385WAT     H234398   7.406   0.200   8.939
11386WAT      O34399   0.627   3.867   3.563
11386WAT     H134400   0.718   3.880   3.602
11386WAT     H234401   0.589   3.956   3.537
11387WAT      O34402   8.830   2.720   6.730
11387WAT     H134403   8.925   2.735   6.704
11387WAT     H234404   8.800   2.630   6.697
11388WAT      O34405   3.063   0.030   3.475
11388WAT     H134406   3.053   0.054   3.571
11388WAT     H234407   3.008   0.091   3.419
11389WAT      O34408   2.679   5.839   9.488
11389WAT     H134409   2.663   5.938   9.489
11389WAT     H234410   2.753   5.818   9.424
11390WAT      O34411   8.800   5.696   6.082
11390WAT     H134412   8.828   5.612   6.036
11390WAT     H234413   8.843   5.774   6.038
11391WAT      O34414   8.194   3.444   0.064
11391WAT     H134415   8.137   3.383   0.120
11391WAT     H234416   8.138   3.488  -0.006
11392WAT      O34417   5.586   6.576   2.795
11392WAT     H134418   5.659   6.515   2.826
11392WAT     H234419   5.541   6.535   2.715
11393WAT      O34420   6.124   1.203   0.895
11393WAT     H134421   6.151   1.249   0.811
11393WAT     H234422   6.156   1.108   0.893
11394WAT      O34423   8.522   1.567   3.041
11394WAT     H134424   8.600   1.606   3.089
11394WAT     H234425   8.501   1.622   2.961
11395WAT      O34426   5.851   1.344   6.857
11395WAT     H134427   5.946   1.353   6.829
11395WAT     H234428   5.848   1.318   6.954
11396WAT      O34429   9.287   8.105   4.133
11396WAT     H134430   9.234   8.186   4.107
11396WAT     H234431   9.281   8.037   4.060
11397WAT      O34432   1.684   9.538   7.650
11397WAT     H134433   1.610   9.576   7.593
11397WAT     H234434   1.659   9.446   7.680
11398WAT      O34435   4.179   0.092   2.115
11398WAT     H134436   4.233   0.106   2.032
11398WAT     H234437   4.098   0.038   2.094
11399WAT      O34438   5.938   2.576   1.092
11399WAT     H134439   5.885   2.522   1.027
11399WAT     H234440   5.915   2.673   1.082
11400WAT      O34441   0.584   1.918   7.073
11400WAT     H134442   0.569   1.974   7.154
11400WAT     H234443   0.668   1.947   7.028
11401WAT      O34444   3.924   5.895   7.284
11401WAT     H134445   3.980   5.841   7.348
11401WAT     H234446   3.890   5.977   7.330
11402WAT      O34447   5.136   5.582   3.229
11402WAT     H134448   5.141   5.572   3.129
11402WAT     H234449   5.049   5.544   3.261
11403WAT      O34450   1.321   6.118   2.849
11403WAT     H134451   1.333   6.019   2.852
11403WAT     H234452   1.225   6.141   2.860
11404WAT      O34453   6.959   7.396   5.542
11404WAT     H134454   6.923   7.402   5.635
11404WAT     H234455   6.891   7.432   5.478
11405WAT      O34456   8.842   6.047   4.481
11405WAT     H134457   8.815   5.965   4.430
11405WAT     H234458   8.816   6.128   4.429
11406WAT      O34459   7.363   2.334   7.945
11406WAT     H134460   7.432   2.395   7.906
11406WAT     H234461   7.291   2.317   7.878
11407WAT      O34462   0.732   0.533   6.268
11407WAT     H134463   0.674   0.463   6.311
11407WAT     H234464   0.802   0.561   6.333
11408WAT      O34465   1.319   5.424   0.127
11408WAT     H134466   1.230   5.469   0.137
11408WAT     H234467   1.390   5.493   0.117
11409WAT      O34468   9.454   3.789   8.290
11409WAT     H134469   9.437   3.880   8.328
11409WAT     H234470   9.389   3.724   8.328
11410WAT      O34471   8.085   9.254   7.796
11410WAT     H134472   8.124   9.167   7.766
11410WAT     H234473   7.991   9.240   7.828
11411WAT      O34474   3.172   8.723   3.855
11411WAT     H134475   3.184   8.690   3.761
11411WAT     H234476   3.179   8.822   3.857
11412WAT      O34477   1.908   6.789   7.380
11412WAT     H134478   1.953   6.712   7.335
11412WAT     H234479   1.830   6.754   7.433
11413WAT      O34480   4.206   3.221   6.248
11413WAT     H134481   4.269   3.254   6.177
11413WAT     H234482   4.153   3.298   6.284
11414WAT      O34483   3.354   5.995   7.974
11414WAT     H134484   3.393   5.943   7.898
11414WAT     H234485   3.364   6.093   7.956
11415WAT      O34486   6.295   2.123   8.671
11415WAT     H134487   6.209   2.081   8.699
11415WAT     H234488   6.331   2.179   8.745
11416WAT      O34489   4.500   2.266   4.517
11416WAT     H134490   4.424   2.298   4.460
11416WAT     H234491   4.468   2.253   4.611
11417WAT      O34492   1.674   2.992   8.379
11417WAT     H134493   1.770   2.976   8.354
11417WAT     H234494   1.669   3.063   8.448
11418WAT      O34495   6.969   7.450   8.065
11418WAT     H134496   6.902   7.385   8.029
11418WAT     H234497   6.947   7.542   8.034
11419WAT      O34498   1.580   0.813   6.496
11419WAT     H134499   1.672   0.812   6.535
11419WAT     H234500   1.585   0.828   6.397
11420WAT      O34501   8.974   6.444   0.979
11420WAT     H134502   9.024   6.530   0.976
11420WAT     H234503   9.031   6.370   0.943
11421WAT      O34504   8.656   4.742   2.869
11421WAT     H134505   8.692   4.713   2.780
11421WAT     H234506   8.682   4.675   2.939
11422WAT      O34507   0.970   9.028   6.292
11422WAT     H134508   0.938   9.099   6.355
11422WAT     H234509   1.065   9.004   6.315
11423WAT      O34510   6.022   0.108   7.962
11423WAT     H134511   6.041   0.143   8.054
11423WAT     H234512   6.040   0.179   7.894
11424WAT      O34513   8.912   8.255   9.309
11424WAT     H134514   8.893   8.349   9.279
11424WAT     H234515   9.011   8.244   9.322
11425WAT      O34516   5.036   6.634   7.017
11425WAT     H134517   5.067   6.552   6.968
11425WAT     H234518   5.027   6.710   6.953
11426WAT      O34519   9.101   0.218   7.270
11426WAT     H134520   9.124   0.182   7.361
11426WAT     H234521   9.034   0.158   7.227
11427WAT      O34522   5.818   9.808   2.962
11427WAT     H134523   5.768   9.759   2.891
11427WAT     H234524   5.784   9.779   3.052
11428WAT      O34525   1.827   8.690   5.490
11428WAT     H134526   1.780   8.602   5.484
11428WAT     H234527   1.872   8.697   5.579
11429WAT      O34528   2.513   7.606   2.599
11429WAT     H134529   2.491   7.574   2.507
11429WAT     H234530   2.428   7.627   2.648
11430WAT      O34531   7.667   6.312   6.236
11430WAT     H134532   7.660   6.213   6.229
11430WAT     H234533   7.758   6.336   6.270
11431WAT      O34534   7.905   2.131   4.894
11431WAT     H134535   7.850   2.129   4.977
11431WAT     H234536   7.929   2.037   4.868
11432WAT      O34537   6.646   5.275   4.912
11432WAT     H134538   6.552   5.300   4.888
11432WAT     H234539   6.696   5.357   4.941
11433WAT      O34540   0.480   5.421   4.783
11433WAT     H134541   0.555   5.462   4.834
11433WAT     H234542   0.416   5.377   4.846
11434WAT      O34543   9.037   6.709   3.551
11434WAT     H134544   8.960   6.749   3.502
11434WAT     H234545   9.092   6.653   3.489
11435WAT      O34546   1.646   0.951   2.869
11435WAT     H134547   1.709   0.940   2.792
11435WAT     H234548   1.605   0.862   2.892
11436WAT      O34549   0.394   5.498   0.946
11436WAT     H134550   0.348   5.423   0.994
11436WAT     H234551   0.484   5.513   0.987
11437WAT      O34552   5.144   5.842   7.206
11437WAT     H134553   5.109   5.770   7.266
11437WAT     H234554   5.228   5.810   7.162
11438WAT      O34555   3.504   0.363   2.641
11438WAT     H134556   3.519   0.450   2.687
11438WAT     H234557   3.584   0.341   2.585
11439WAT      O34558   8.162   8.529   1.404
11439WAT     H134559   8.118   8.503   1.318
11439WAT     H234560   8.096   8.577   1.462
11440WAT      O34561   4.488   4.605   0.786
11440WAT     H134562   4.561   4.594   0.719
11440WAT     H234563   4.429   4.524   0.785
11441WAT      O34564   4.964   4.851   6.871
11441WAT     H134565   4.989   4.919   6.940
11441WAT     H234566   4.992   4.883   6.781
11442WAT      O34567   6.231   8.787   3.846
11442WAT     H134568   6.194   8.702   3.885
11442WAT     H234569   6.323   8.770   3.811
11443WAT      O34570   7.938   7.192   4.297
11443WAT     H134571   7.863   7.126   4.299
11443WAT     H234572   8.024   7.144   4.280
11444WAT      O34573   3.176   3.358   2.926
11444WAT     H134574   3.173   3.265   2.890
11444WAT     H234575   3.263   3.371   2.974
11445WAT      O34576   6.900   4.260   4.435
11445WAT     H134577   6.848   4.311   4.366
11445WAT     H234578   6.837   4.202   4.487
11446WAT      O34579   8.164   8.408   0.107
11446WAT     H134580   8.112   8.334   0.064
11446WAT     H234581   8.253   8.417   0.062
11447WAT      O34582   1.980   4.432   7.277
11447WAT     H134583   1.898   4.388   7.243
11447WAT     H234584   2.060   4.397   7.228
11448WAT      O34585   5.920   5.159   2.100
11448WAT     H134586   5.942   5.077   2.152
11448WAT     H234587   6.001   5.216   2.090
11449WAT      O34588   8.661   7.664   9.883
11449WAT     H134589   8.632   7.667   9.787
11449WAT     H234590   8.699   7.753   9.909
11450WAT      O34591   6.528   5.105   6.751
11450WAT     H134592   6.497   5.198   6.773
11450WAT     H234593   6.610   5.084   6.805
11451WAT      O34594   5.647   1.261   4.908
11451WAT     H134595   5.597   1.247   4.993
11451WAT     H234596   5.588   1.242   4.831
11452WAT      O34597   5.685   7.656   4.826
11452WAT     H134598   5.607   7.718   4.829
11452WAT     H234599   5.718   7.648   4.732
11453WAT      O34600   0.547   7.078   6.548
11453WAT     H134601   0.497   7.112   6.469
11453WAT     H234602   0.545   7.146   6.621
11454WAT      O34603   1.181   1.626   4.851
11454WAT     H134604   1.129   1.540   4.852
11454WAT     H234605   1.267   1.612   4.802
11455WAT      O34606   8.978   0.340   4.021
11455WAT     H134607   8.960   0.249   3.984
11455WAT     H234608   9.076   0.354   4.031
11456WAT      O34609   8.866   3.191   6.450
11456WAT     H134610   8.856   3.215   6.546
11456WAT     H234611   8.899   3.097   6.442
11457WAT      O34612   9.380   9.142   4.936
11457WAT     H134613   9.301   9.081   4.947
11457WAT     H234614   9.350   9.228   4.896
11458WAT      O34615   4.400   1.813   8.659
11458WAT     H134616   4.392   1.836   8.562
11458WAT     H234617   4.310   1.820   8.702
11459WAT      O34618   8.976   4.614   1.510
11459WAT     H134619   8.968   4.705   1.550
11459WAT     H234620   8.889   4.566   1.519
11460WAT      O34621   0.331   4.102   6.659
11460WAT     H134622   0.337   4.143   6.568
11460WAT     H234623   0.256   4.146   6.710
11461WAT      O34624   4.478   7.796   3.374
11461WAT     H134625   4.407   7.862   3.400
11461WAT     H234626   4.466   7.772   3.277
11462WAT      O34627   1.682   1.475   6.948
11462WAT     H134628   1.638   1.516   7.027
11462WAT     H234629   1.630   1.395   6.918
11463WAT      O34630   7.821   5.855   5.340
11463WAT     H134631   7.830   5.898   5.430
11463WAT     H234632   7.843   5.921   5.268
11464WAT      O34633   3.883   5.474   5.864
11464WAT     H134634   3.872   5.448   5.768
11464WAT     H234635   3.932   5.561   5.870
11465WAT      O34636   9.877   5.585   4.072
11465WAT     H134637   9.786   5.625   4.071
11465WAT     H234638   9.878   5.508   4.136
11466WAT      O34639   1.687   4.593   0.626
11466WAT     H134640   1.673   4.672   0.685
11466WAT     H234641   1.778   4.598   0.584
11467WAT      O34642   5.718   4.167   7.309
11467WAT     H134643   5.797   4.124   7.352
11467WAT     H234644   5.728   4.164   7.210
11468WAT      O34645   5.001   6.464   0.085
11468WAT     H134646   5.039   6.489  -0.004
11468WAT     H234647   5.052   6.512   0.157
11469WAT      O34648   3.419   5.521   1.333
11469WAT     H134649   3.514   5.504   1.309
11469WAT     H234650   3.401   5.487   1.425
11470WAT      O34651   1.822   8.863   2.290
11470WAT     H134652   1.888   8.818   2.350
11470WAT     H234653   1.758   8.916   2.345
11471WAT      O34654   5.159   0.314   5.686
11471WAT     H134655   5.168   0.318   5.587
11471WAT     H234656   5.249   0.321   5.728
11472WAT      O34657   8.182   2.142   7.173
11472WAT     H134658   8.237   2.140   7.256
11472WAT     H234659   8.236   2.179   7.097
11473WAT      O34660   6.864   2.933   7.266
11473WAT     H134661   6.812   2.962   7.185
11473WAT     H234662   6.923   3.008   7.295
11474WAT      O34663   4.835   1.104   0.495
11474WAT     H134664   4.834   1.191   0.545
11474WAT     H234665   4.883   1.116   0.408
11475WAT      O34666   5.073   0.382   4.011
11475WAT     H134667   5.153   0.441   4.000
11475WAT     H234668   5.026   0.372   3.923
11476WAT      O34669   4.150   6.173   3.487
11476WAT     H134670   4.154   6.080   3.524
11476WAT     H234671   4.095   6.230   3.547
11477WAT      O34672   6.862   6.342   3.294
11477WAT     H134673   6.893   6.261   3.244
11477WAT     H234674   6.769   6.327   3.327
11478WAT      O34675   1.748   4.593   4.854
11478WAT     H134676   1.748   4.529   4.930
11478WAT     H234677   1.716   4.548   4.771
11479WAT      O34678   2.689   1.537   6.819
11479WAT     H134679   2.668   1.449   6.777
11479WAT     H234680   2.616   1.562   6.883
11480WAT      O34681   2.190   2.348   0.691
11480WAT     H134682   2.272   2.316   0.739
11480WAT     H234683   2.186   2.307   0.600
11481WAT      O34684   4.052   5.741   3.293
11481WAT     H134685   4.050   5.784   3.203
11481WAT     H234686   3.971   5.684   3.305
11482WAT      O34687   5.039   0.312   2.855
11482WAT     H134688   5.058   0.281   2.762
11482WAT     H234689   4.940   0.315   2.870
11483WAT      O34690   8.746   1.622   8.498
11483WAT     H134691   8.765   1.584   8.588
11483WAT     H234692   8.802   1.574   8.430
11484WAT      O34693   4.649   7.752   4.876
11484WAT     H134694   4.565   7.806   4.877
11484WAT     H234695   4.687   7.751   4.784
11485WAT      O34696   9.581   4.764   1.484
11485WAT     H134697   9.600   4.747   1.581
11485WAT     H234698   9.577   4.863   1.468
11486WAT      O34699   4.326   2.015   9.101
11486WAT     H134700   4.375   2.038   9.018
11486WAT     H234701   4.234   2.055   9.098
11487WAT      O34702   3.243   2.381   7.993
11487WAT     H134703   3.286   2.467   8.022
11487WAT     H234704   3.143   2.393   7.991
11488WAT      O34705   7.265   7.747   3.604
11488WAT     H134706   7.277   7.689   3.684
11488WAT     H234707   7.168   7.751   3.579
11489WAT      O34708   4.536   0.296   6.511
11489WAT     H134709   4.599   0.373   6.508
11489WAT     H234710   4.472   0.302   6.434
11490WAT      O34711   5.248   5.908   5.620
11490WAT     H134712   5.287   5.818   5.601
11490WAT     H234713   5.149   5.905   5.606
11491WAT      O34714   0.326   7.583   0.781
11491WAT     H134715   0.385   7.656   0.815
11491WAT     H234716   0.233   7.619   0.768
11492WAT      O34717   3.158   4.860   9.879
11492WAT     H134718   3.188   4.955   9.889
11492WAT     H234719   3.127   4.845   9.785
11493WAT      O34720   8.288   7.277   0.876
11493WAT     H134721   8.188   7.277   0.883
11493WAT     H234722   8.321   7.372   0.882
11494WAT      O34723   5.296   4.670   4.104
11494WAT     H134724   5.266   4.647   4.197
11494WAT     H234725   5.288   4.768   4.089
11495WAT      O34726   1.248   1.735   8.315
11495WAT     H134727   1.202   1.816   8.280
11495WAT     H234728   1.186   1.683   8.374
11496WAT      O34729   1.815   7.618   8.356
11496WAT     H134730   1.870   7.687   8.309
11496WAT     H234731   1.842   7.527   8.325
11497WAT      O34732   1.645   0.633   4.616
11497WAT     H134733   1.561   0.580   4.603
11497WAT     H234734   1.713   0.577   4.663
11498WAT      O34735   3.389   3.888   5.271
11498WAT     H134736   3.368   3.911   5.176
11498WAT     H234737   3.377   3.790   5.286
11499WAT      O34738   6.782   8.104   7.766
11499WAT     H134739   6.796   8.194   7.724
11499WAT     H234740   6.806   8.033   7.699
11500WAT      O34741   9.723   9.756   4.843
11500WAT     H134742   9.691   9.721   4.931
11500WAT     H234743   9.664   9.830   4.813
11501WAT      O34744   3.853   2.789   6.616
11501WAT     H134745   3.887   2.770   6.524
11501WAT     H234746   3.900   2.869   6.653
11502WAT      O34747   7.526   8.192   4.088
11502WAT     H134748   7.581   8.119   4.048
11502WAT     H234749   7.430   8.167   4.084
11503WAT      O34750   5.405   7.243   9.722
11503WAT     H134751   5.473   7.289   9.666
11503WAT     H234752   5.419   7.265   9.818
11504WAT      O34753   7.825   6.172   5.931
11504WAT     H134754   7.803   6.100   5.996
11504WAT     H234755   7.747   6.188   5.871
11505WAT      O34756   1.501   1.481   1.632
11505WAT     H134757   1.441   1.407   1.661
11505WAT     H234758   1.490   1.496   1.533
11506WAT      O34759   1.422   5.960   0.690
11506WAT     H134760   1.467   6.050   0.688
11506WAT     H234761   1.456   5.908   0.769
11507WAT      O34762   7.454   7.433   9.639
11507WAT     H134763   7.458   7.533   9.638
11507WAT     H234764   7.489   7.397   9.553
11508WAT      O34765   2.619   3.325   8.967
11508WAT     H134766   2.548   3.380   9.010
11508WAT     H234767   2.591   3.300   8.875
11509WAT      O34768   2.749   2.198   0.193
11509WAT     H134769   2.767   2.142   0.274
11509WAT     H234770   2.772   2.293   0.212
11510WAT      O34771   4.061   3.326   9.110
11510WAT     H134772   4.066   3.345   9.012
11510WAT     H234773   4.013   3.401   9.156
11511WAT      O34774   0.757   6.762   1.536
11511WAT     H134775   0.697   6.835   1.568
11511WAT     H234776   0.848   6.773   1.576
11512WAT      O34777   3.769   4.616   1.940
11512WAT     H134778   3.853   4.638   1.892
11512WAT     H234779   3.755   4.517   1.940
11513WAT      O34780   7.216   8.019   7.103
11513WAT     H134781   7.206   8.098   7.042
11513WAT     H234782   7.128   7.974   7.115
11514WAT      O34783   0.356   3.349   5.261
11514WAT     H134784   0.428   3.366   5.329
11514WAT     H234785   0.267   3.364   5.303
11515WAT      O34786   8.013   6.847   6.347
11515WAT     H134787   7.916   6.841   6.371
11515WAT     H234788   8.068   6.817   6.424
11516WAT      O34789   5.675   5.415   3.605
11516WAT     H134790   5.654   5.338   3.664
11516WAT     H234791   5.669   5.387   3.509
11517WAT      O34792   5.968   8.617   6.887
11517WAT     H134793   6.026   8.697   6.868
11517WAT     H234794   5.928   8.584   6.801
11518WAT      O34795   1.064   6.717   7.418
11518WAT     H134796   0.986   6.751   7.472
11518WAT     H234797   1.041   6.720   7.321
11519WAT      O34798   0.575   9.737   0.717
11519WAT     H134799   0.513   9.790   0.659
11519WAT     H234800   0.535   9.647   0.734
11520WAT      O34801   9.249   5.709   5.437
11520WAT     H134802   9.280   5.762   5.359
11520WAT     H234803   9.278   5.754   5.522
11521WAT      O34804   8.294   5.224   9.188
11521WAT     H134805   8.223   5.287   9.158
11521WAT     H234806   8.318   5.244   9.283
11522WAT      O34807   0.123   2.442   9.710
11522WAT     H134808   0.156   2.354   9.746
11522WAT     H234809   0.095   2.430   9.615
11523WAT      O34810   0.784   3.369   8.582
11523WAT     H134811   0.787   3.289   8.523
11523WAT     H234812   0.786   3.452   8.526
11524WAT      O34813   9.229   5.507   2.095
11524WAT     H134814   9.235   5.503   2.195
11524WAT     H234815   9.176   5.588   2.068
11525WAT      O34816   5.075   3.816   8.622
11525WAT     H134817   5.148   3.883   8.611
11525WAT     H234818   5.072   3.786   8.718
11526WAT      O34819   9.880   8.137   7.055
11526WAT     H134820   9.918   8.045   7.048
11526WAT     H234821   9.953   8.202   7.074
11527WAT      O34822   0.278   4.314   9.860
11527WAT     H134823   0.293   4.262   9.944
11527WAT     H234824   0.332   4.274   9.786
11528WAT      O34825   2.723   1.377   9.125
11528WAT     H134826   2.806   1.372   9.180
11528WAT     H234827   2.719   1.465   9.078
11529WAT      O34828   4.225   4.450   6.345
11529WAT     H134829   4.170   4.533   6.347
11529WAT     H234830   4.294   4.457   6.274
11530WAT      O34831   7.237   8.102   1.919
11530WAT     H134832   7.308   8.088   1.851
11530WAT     H234833   7.209   8.198   1.920
11531WAT      O34834   2.445   9.391   7.161
11531WAT     H134835   2.451   9.403   7.061
11531WAT     H234836   2.474   9.299   7.185
11532WAT      O34837   3.212   3.922   7.563
11532WAT     H134838   3.309   3.902   7.545
11532WAT     H234839   3.190   3.898   7.658
11533WAT      O34840   4.099   2.722   5.807
11533WAT     H134841   4.171   2.653   5.814
11533WAT     H234842   4.016   2.680   5.772
11534WAT      O34843   5.255   1.362   8.610
11534WAT     H134844   5.345   1.322   8.627
11534WAT     H234845   5.188   1.320   8.670
11535WAT      O34846   1.444   2.354   3.535
11535WAT     H134847   1.402   2.264   3.551
11535WAT     H234848   1.409   2.420   3.601
11536WAT      O34849   9.840   2.739   2.006
11536WAT     H134850   9.802   2.790   1.929
11536WAT     H234851   9.808   2.644   2.001
11537WAT      O34852   9.676   9.752   7.773
11537WAT     H134853   9.617   9.742   7.693
11537WAT     H234854   9.628   9.718   7.854
11538WAT      O34855   0.645   6.667   7.591
11538WAT     H134856   0.559   6.615   7.596
11538WAT     H234857   0.640   6.732   7.515
11539WAT      O34858   3.319   8.200   6.241
11539WAT     H134859   3.407   8.199   6.193
11539WAT     H234860   3.331   8.241   6.332
11540WAT      O34861   3.878   3.833   6.692
11540WAT     H134862   3.848   3.783   6.773
11540WAT     H234863   3.969   3.872   6.709
11541WAT      O34864   7.644   0.305   2.813
11541WAT     H134865   7.719   0.369   2.793
11541WAT     H234866   7.682   0.219   2.845
11542WAT      O34867   5.055   4.067   0.482
11542WAT     H134868   5.135   4.034   0.533
11542WAT     H234869   5.063   4.165   0.468
11543WAT      O34870   3.207   6.719   5.098
11543WAT     H134871   3.267   6.783   5.050
11543WAT     H234872   3.253   6.685   5.180
11544WAT      O34873   2.117   1.189   9.261
11544WAT     H134874   2.164   1.218   9.345
11544WAT     H234875   2.163   1.108   9.224
11545WAT      O34876   0.549   0.274   2.631
11545WAT     H134877   0.597   0.189   2.655
11545WAT     H234878   0.531   0.276   2.533
11546WAT      O34879   3.780   6.447   9.073
11546WAT     H134880   3.728   6.375   9.118
11546WAT     H234881   3.739   6.468   8.985
11547WAT      O34882   9.129   8.396   9.514
11547WAT     H134883   9.164   8.303   9.523
11547WAT     H234884   9.030   8.397   9.530
11548WAT      O34885   2.000   0.406   6.826
11548WAT     H134886   1.917   0.451   6.859
11548WAT     H234887   2.030   0.337   6.892
11549WAT      O34888   7.212   6.204   5.243
11549WAT     H134889   7.162   6.290   5.246
11549WAT     H234890   7.301   6.215   5.285
11550WAT      O34891   3.886   3.947   9.878
11550WAT     H134892   3.978   3.954   9.917
11550WAT     H234893   3.893   3.937   9.779
11551WAT      O34894   0.687   8.890   7.523
11551WAT     H134895   0.598   8.935   7.533
11551WAT     H234896   0.748   8.920   7.597
11552WAT      O34897   6.740   8.486   2.876
11552WAT     H134898   6.758   8.509   2.781
11552WAT     H234899   6.670   8.547   2.912
11553WAT      O34900   9.340   3.633   3.115
11553WAT     H134901   9.263   3.674   3.164
11553WAT     H234902   9.390   3.572   3.177
11554WAT      O34903   3.095   9.696   9.655
11554WAT     H134904   3.121   9.628   9.587
11554WAT     H234905   3.176   9.748   9.682
11555WAT      O34906   2.054   4.476   3.615
11555WAT     H134907   2.082   4.398   3.560
11555WAT     H234908   2.034   4.554   3.555
11556WAT      O34909   3.867   2.595   7.500
11556WAT     H134910   3.793   2.575   7.435
11556WAT     H234911   3.829   2.641   7.581
11557WAT      O34912   1.040   3.707   8.973
11557WAT     H134913   1.076   3.692   8.881
11557WAT     H234914   0.976   3.633   8.996
11558WAT      O34915   0.810   9.702   9.370
11558WAT     H134916   0.751   9.724   9.292
11558WAT     H234917   0.761   9.643   9.434
11559WAT      O34918   7.475   1.437   3.676
11559WAT     H134919   7.495   1.485   3.761
11559WAT     H234920   7.387   1.390   3.684
11560WAT      O34921   4.684   4.203   3.888
11560WAT     H134922   4.672   4.296   3.853
11560WAT     H234923   4.598   4.153   3.881
11561WAT      O34924   7.870   6.948   3.636
11561WAT     H134925   7.886   6.923   3.540
11561WAT     H234926   7.916   6.882   3.695
11562WAT      O34927   2.604   6.159   1.697
11562WAT     H134928   2.534   6.141   1.628
11562WAT     H234929   2.561   6.161   1.787
11563WAT      O34930   5.983   3.643   6.662
11563WAT     H134931   6.081   3.652   6.645
11563WAT     H234932   5.962   3.549   6.689
11564WAT      O34933   5.124   7.818   9.360
11564WAT     H134934   5.069   7.761   9.300
11564WAT     H234935   5.084   7.817   9.452
11565WAT      O34936   0.643   8.395   2.072
11565WAT     H134937   0.617   8.484   2.035
11565WAT     H234938   0.569   8.330   2.060
11566WAT      O34939   5.773   1.020   2.019
11566WAT     H134940   5.738   1.110   1.995
11566WAT     H234941   5.819   1.024   2.108
11567WAT      O34942   5.155   2.654   4.999
11567WAT     H134943   5.176   2.695   4.910
11567WAT     H234944   5.183   2.717   5.072
11568WAT      O34945   7.113   5.337   1.602
11568WAT     H134946   7.124   5.425   1.648
11568WAT     H234947   7.037   5.287   1.643
11569WAT      O34948   8.801   1.368   4.563
11569WAT     H134949   8.709   1.366   4.523
11569WAT     H234950   8.797   1.332   4.656
11570WAT      O34951   0.751   3.425   6.591
11570WAT     H134952   0.697   3.423   6.675
11570WAT     H234953   0.789   3.334   6.573
11571WAT      O34954   0.850   9.611   8.441
11571WAT     H134955   0.875   9.537   8.379
11571WAT     H234956   0.791   9.676   8.394
11572WAT      O34957   7.039   7.554   6.915
11572WAT     H134958   6.978   7.566   6.993
11572WAT     H234959   7.059   7.457   6.902
11573WAT      O34960   2.453   1.812   8.656
11573WAT     H134961   2.516   1.781   8.585
11573WAT     H234962   2.491   1.891   8.703
11574WAT      O34963   1.674   8.164   6.557
11574WAT     H134964   1.692   8.257   6.588
11574WAT     H234965   1.756   8.108   6.569
11575WAT      O34966   3.022   4.893   9.629
11575WAT     H134967   3.079   4.936   9.560
11575WAT     H234968   2.945   4.846   9.585
11576WAT      O34969   0.493   1.176   2.573
11576WAT     H134970   0.492   1.138   2.666
11576WAT     H234971   0.453   1.110   2.510
11577WAT      O34972   6.629   9.617   1.563
11577WAT     H134973   6.643   9.706   1.607
11577WAT     H234974   6.712   9.562   1.573
11578WAT      O34975   9.870   3.592   8.382
11578WAT     H134976   9.804   3.530   8.340
11578WAT     H234977   9.962   3.566   8.354
11579WAT      O34978   4.491   6.863   3.962
11579WAT     H134979   4.469   6.814   4.046
11579WAT     H234980   4.511   6.798   3.889
11580WAT      O34981   3.892   3.151   8.102
11580WAT     H134982   3.913   3.241   8.141
11580WAT     H234983   3.976   3.112   8.063
11581WAT      O34984   0.622   9.600   8.136
11581WAT     H134985   0.533   9.592   8.180
11581WAT     H234986   0.662   9.690   8.157
11582WAT      O34987   1.973   6.277   2.479
11582WAT     H134988   1.967   6.308   2.384
11582WAT     H234989   1.991   6.355   2.539
11583WAT      O34990   8.695   9.456   7.004
11583WAT     H134991   8.768   9.498   7.058
11583WAT     H234992   8.734   9.383   6.947
11584WAT      O34993   7.181   6.226   3.817
11584WAT     H134994   7.241   6.219   3.737
11584WAT     H234995   7.086   6.215   3.788
11585WAT      O34996   9.091   0.077   1.458
11585WAT     H134997   9.188   0.078   1.431
11585WAT     H234998   9.080   0.022   1.540
11586WAT      O34999   7.149   3.322   4.878
11586WAT     H135000   7.110   3.291   4.965
11586WAT     H235001   7.223   3.386   4.896
11587WAT      O35002   8.592   8.727   3.733
11587WAT     H135003   8.513   8.752   3.789
11587WAT     H235004   8.591   8.779   3.648
11588WAT      O35005   1.382   7.163   0.837
11588WAT     H135006   1.310   7.214   0.791
11588WAT     H235007   1.439   7.227   0.889
11589WAT      O35008   1.200   6.163   7.045
11589WAT     H135009   1.254   6.195   7.123
11589WAT     H235010   1.105   6.194   7.056
11590WAT      O35011   8.523   1.709   7.025
11590WAT     H135012   8.518   1.792   7.081
11590WAT     H235013   8.563   1.730   6.936
11591WAT      O35014   6.218   5.015   0.846
11591WAT     H135015   6.250   5.107   0.868
11591WAT     H235016   6.153   5.019   0.770
11592WAT      O35017   6.284   1.320   9.349
11592WAT     H135018   6.199   1.269   9.353
11592WAT     H235019   6.264   1.417   9.332
11593WAT      O35020   3.164   0.980   6.662
11593WAT     H135021   3.257   0.999   6.694
11593WAT     H235022   3.157   0.884   6.636
11594WAT      O35023   3.008   7.534   2.366
11594WAT     H135024   3.099   7.570   2.386
11594WAT     H235025   2.995   7.530   2.266
11595WAT      O35026   5.963   9.657   8.414
11595WAT     H135027   5.993   9.719   8.342
11595WAT     H235028   6.039   9.638   8.476
11596WAT      O35029   8.328   8.511   6.497
11596WAT     H135030   8.284   8.500   6.586
11596WAT     H235031   8.425   8.485   6.504
11597WAT      O35032   2.238   1.102   3.829
11597WAT     H135033   2.177   1.164   3.878
11597WAT     H235034   2.229   1.116   3.731
11598WAT      O35035   7.597   1.573   8.014
11598WAT     H135036   7.552   1.503   7.960
11598WAT     H235037   7.559   1.663   7.992
11599WAT      O35038   7.581   4.631   0.432
11599WAT     H135039   7.548   4.721   0.406
11599WAT     H235040   7.670   4.614   0.390
11600WAT      O35041   7.627   4.695   7.110
11600WAT     H135042   7.616   4.646   7.197
11600WAT     H235043   7.642   4.792   7.129
11601WAT      O35044   2.088   3.564   1.597
11601WAT     H135045   2.178   3.547   1.557
11601WAT     H235046   2.017   3.549   1.527
11602WAT      O35047   5.676   6.737   8.783
11602WAT     H135048   5.714   6.802   8.849
11602WAT     H235049   5.578   6.725   8.801
11603WAT      O35050   8.527   7.640   1.667
11603WAT     H135051   8.491   7.709   1.604
11603WAT     H235052   8.519   7.549   1.625
11604WAT      O35053   6.450   0.558   8.948
11604WAT     H135054   6.511   0.513   8.883
11604WAT     H235055   6.442   0.655   8.925
11605WAT      O35056   4.203   9.163   5.496
11605WAT     H135057   4.124   9.115   5.534
11605WAT     H235058   4.195   9.167   5.397
11606WAT      O35059   5.840   9.250   3.307
11606WAT     H135060   5.759   9.232   3.363
11606WAT     H235061   5.820   9.231   3.211
11607WAT      O35062   0.967   2.662   4.879
11607WAT     H135063   1.025   2.685   4.800
11607WAT     H235064   0.923   2.574   4.864
11608WAT      O35065   1.777   2.772   9.448
11608WAT     H135066   1.807   2.765   9.353
11608WAT     H235067   1.783   2.868   9.477
11609WAT      O35068   1.721   9.604   2.423
11609WAT     H135069   1.781   9.674   2.460
11609WAT     H235070   1.626   9.625   2.448
11610WAT      O35071   0.241   8.863   7.715
11610WAT     H135072   0.285   8.949   7.689
11610WAT     H235073   0.299   8.815   7.781
11611WAT      O35074   8.327   4.356   8.151
11611WAT     H135075   8.366   4.388   8.064
11611WAT     H235076   8.228   4.370   8.149
11612WAT      O35077   8.113   5.092   0.583
11612WAT     H135078   8.042   5.033   0.622
11612WAT     H235079   8.079   5.134   0.499
11613WAT      O35080   7.416   8.338   1.131
11613WAT     H135081   7.427   8.326   1.230
11613WAT     H235082   7.374   8.427   1.113
11614WAT      O35083   6.523   0.472   5.870
11614WAT     H135084   6.531   0.503   5.775
11614WAT     H235085   6.612   0.483   5.915
11615WAT      O35086   7.334   9.731   4.394
11615WAT     H135087   7.293   9.737   4.485
11615WAT     H235088   7.284   9.791   4.331
11616WAT      O35089   7.521   2.213   6.589
11616WAT     H135090   7.523   2.267   6.673
11616WAT     H235091   7.465   2.259   6.521
11617WAT      O35092   8.814   7.724   7.253
11617WAT     H135093   8.913   7.735   7.268
11617WAT     H235094   8.797   7.634   7.213
11618WAT      O35095   6.695   9.633   9.382
11618WAT     H135096   6.709   9.572   9.461
11618WAT     H235097   6.779   9.636   9.327
11619WAT      O35098   4.935   1.557   4.980
11619WAT     H135099   4.898   1.551   5.073
11619WAT     H235100   4.904   1.479   4.926
11620WAT      O35101   3.211   4.431   1.551
11620WAT     H135102   3.150   4.390   1.619
11620WAT     H235103   3.299   4.383   1.552
11621WAT      O35104   1.114   8.748   4.558
11621WAT     H135105   1.200   8.716   4.598
11621WAT     H235106   1.042   8.681   4.576
11622WAT      O35107   6.921   8.842   9.477
11622WAT     H135108   6.909   8.886   9.566
11622WAT     H235109   6.991   8.889   9.424
11623WAT      O35110   5.704   8.233   5.569
11623WAT     H135111   5.706   8.142   5.527
11623WAT     H235112   5.645   8.293   5.515
11624WAT      O35113   6.619   0.230   0.644
11624WAT     H135114   6.701   0.186   0.680
11624WAT     H235115   6.542   0.166   0.648
11625WAT      O35116   2.909   6.452   6.846
11625WAT     H135117   2.902   6.379   6.779
11625WAT     H235118   2.945   6.534   6.803
11626WAT      O35119   7.745   9.064   0.962
11626WAT     H135120   7.792   9.014   0.889
11626WAT     H235121   7.663   9.108   0.926
11627WAT      O35122   5.381   7.892   1.708
11627WAT     H135123   5.436   7.914   1.789
11627WAT     H235124   5.318   7.968   1.690
11628WAT      O35125   1.598   0.570   1.369
11628WAT     H135126   1.594   0.638   1.442
11628WAT     H235127   1.603   0.617   1.281
11629WAT      O35128   4.076   5.955   0.298
11629WAT     H135129   4.145   5.883   0.302
11629WAT     H235130   3.986   5.915   0.314
11630WAT      O35131   6.973   1.455   9.481
11630WAT     H135132   7.025   1.422   9.560
11630WAT     H235133   6.971   1.555   9.481
11631WAT      O35134   6.049   4.570   7.788
11631WAT     H135135   5.980   4.605   7.725
11631WAT     H235136   6.141   4.586   7.750
11632WAT      O35137   6.799   3.623   2.700
11632WAT     H135138   6.820   3.528   2.680
11632WAT     H235139   6.701   3.633   2.718
11633WAT      O35140   1.016   1.113   3.965
11633WAT     H135141   1.038   1.187   3.901
11633WAT     H235142   0.942   1.057   3.928
11634WAT      O35143   7.481   3.907   3.827
11634WAT     H135144   7.488   3.817   3.784
11634WAT     H235145   7.395   3.950   3.799
11635WAT      O35146   8.042   5.469   9.726
11635WAT     H135147   8.122   5.529   9.727
11635WAT     H235148   8.001   5.470   9.635
11636WAT      O35149   1.562   2.415   2.118
11636WAT     H135150   1.535   2.328   2.077
11636WAT     H235151   1.619   2.466   2.053
11637WAT      O35152   8.247   5.627   2.161
11637WAT     H135153   8.290   5.605   2.073
11637WAT     H235154   8.164   5.572   2.172
11638WAT      O35155   3.614   2.124   9.569
11638WAT     H135156   3.707   2.150   9.594
11638WAT     H235157   3.613   2.028   9.540
11639WAT      O35158   9.533   8.712   3.417
11639WAT     H135159   9.472   8.788   3.396
11639WAT     H235160   9.489   8.653   3.486
11640WAT      O35161   2.401   6.204   3.955
11640WAT     H135162   2.310   6.194   3.916
11640WAT     H235163   2.444   6.286   3.919
11641WAT      O35164   1.044   2.393   3.230
11641WAT     H135165   1.071   2.302   3.261
11641WAT     H235166   1.067   2.460   3.301
11642WAT      O35167   1.344   2.539   9.679
11642WAT     H135168   1.341   2.638   9.685
11642WAT     H235169   1.389   2.512   9.594
11643WAT      O35170   2.336   1.381   4.267
11643WAT     H135171   2.360   1.436   4.347
11643WAT     H235172   2.355   1.284   4.286
11644WAT      O35173   4.675   4.593   0.584
11644WAT     H135174   4.722   4.513   0.619
11644WAT     H235175   4.736   4.672   0.588
11645WAT      O35176   4.845   1.952   7.927
11645WAT     H135177   4.932   1.924   7.967
11645WAT     H235178   4.862   2.015   7.850
11646WAT      O35179   4.798   1.891   2.180
11646WAT     H135180   4.812   1.796   2.209
11646WAT     H235181   4.829   1.953   2.252
11647WAT      O35182   7.619   2.612   1.675
11647WAT     H135183   7.658   2.531   1.720
11647WAT     H235184   7.657   2.695   1.717
11648WAT      O35185   9.444   0.067   8.224
11648WAT     H135186   9.426   0.160   8.191
11648WAT     H235187   9.428   0.063   8.323
11649WAT      O35188   2.332   0.491   8.115
11649WAT     H135189   2.332   0.523   8.020
11649WAT     H235190   2.238   0.466   8.141
11650WAT      O35191   2.173   6.605   4.602
11650WAT     H135192   2.171   6.511   4.567
11650WAT     H235193   2.141   6.605   4.697
11651WAT      O35194   0.043   7.223   9.079
11651WAT     H135195   0.083   7.256   8.993
11651WAT     H235196   0.112   7.224   9.151
11652WAT      O35197   3.369   5.833   0.166
11652WAT     H135198   3.352   5.872   0.076
11652WAT     H235199   3.320   5.887   0.235
11653WAT      O35200   4.871   6.766   1.543
11653WAT     H135201   4.946   6.723   1.593
11653WAT     H235202   4.821   6.696   1.491
11654WAT      O35203   0.463   9.729   4.019
11654WAT     H135204   0.561   9.728   4.042
11654WAT     H235205   0.453   9.733   3.920
11655WAT      O35206   7.520   8.881   9.035
11655WAT     H135207   7.559   8.893   9.126
11655WAT     H235208   7.547   8.793   8.998
11656WAT      O35209   9.469   8.277   7.962
11656WAT     H135210   9.550   8.269   7.904
11656WAT     H235211   9.465   8.369   8.001
11657WAT      O35212   5.685   9.004   5.120
11657WAT     H135213   5.695   9.088   5.066
11657WAT     H235214   5.714   8.925   5.064
11658WAT      O35215   8.265   4.662   4.955
11658WAT     H135216   8.352   4.625   4.986
11658WAT     H235217   8.269   4.762   4.955
11659WAT      O35218   2.334   1.022   7.019
11659WAT     H135219   2.346   0.934   6.972
11659WAT     H235220   2.366   1.096   6.960
11660WAT      O35221   9.666   8.321   3.187
11660WAT     H135222   9.694   8.417   3.197
11660WAT     H235223   9.715   8.280   3.109
11661WAT      O35224   6.376   0.572   0.650
11661WAT     H135225   6.472   0.590   0.627
11661WAT     H235226   6.335   0.515   0.579
11662WAT      O35227   8.034   5.313   2.857
11662WAT     H135228   8.043   5.227   2.908
11662WAT     H235229   7.939   5.325   2.829
11663WAT      O35230   5.395   2.083   2.067
11663WAT     H135231   5.446   2.124   1.991
11663WAT     H235232   5.454   2.020   2.116
11664WAT      O35233   5.808   1.596   1.559
11664WAT     H135234   5.877   1.656   1.600
11664WAT     H235235   5.848   1.505   1.545
11665WAT      O35236   4.836   7.923   5.012
11665WAT     H135237   4.905   7.935   4.941
11665WAT     H235238   4.755   7.879   4.974
11666WAT      O35239   4.527   6.402   8.525
11666WAT     H135240   4.620   6.425   8.555
11666WAT     H235241   4.502   6.312   8.560
11667WAT      O35242   6.624   0.019   8.143
11667WAT     H135243   6.632   0.022   8.243
11667WAT     H235244   6.593   0.108   8.110
11668WAT      O35245   3.312   8.669   0.596
11668WAT     H135246   3.397   8.619   0.613
11668WAT     H235247   3.294   8.670   0.497
11669WAT      O35248   7.248   0.227   2.729
11669WAT     H135249   7.212   0.153   2.785
11669WAT     H235250   7.216   0.216   2.635
11670WAT      O35251   7.199   3.070   5.696
11670WAT     H135252   7.207   3.103   5.602
11670WAT     H235253   7.116   3.016   5.706
11671WAT      O35254   1.059   5.836   2.436
11671WAT     H135255   1.119   5.893   2.380
11671WAT     H235256   1.101   5.820   2.525
11672WAT      O35257   6.270   7.417   2.905
11672WAT     H135258   6.213   7.484   2.951
11672WAT     H235259   6.363   7.453   2.897
11673WAT      O35260   3.601   5.972   2.184
11673WAT     H135261   3.548   6.040   2.235
11673WAT     H235262   3.539   5.918   2.127
11674WAT      O35263   2.100   4.563   6.082
11674WAT     H135264   2.146   4.652   6.074
11674WAT     H235265   2.016   4.564   6.026
11675WAT      O35266   8.681   6.533   5.202
11675WAT     H135267   8.676   6.630   5.179
11675WAT     H235268   8.763   6.493   5.159
11676WAT      O35269   7.621   6.741   6.863
11676WAT     H135270   7.543   6.742   6.800
11676WAT     H235271   7.592   6.778   6.951
11677WAT      O35272   3.660   6.127   1.221
11677WAT     H135273   3.613   6.132   1.309
11677WAT     H235274   3.662   6.032   1.190
11678WAT      O35275   7.757   3.414   1.858
11678WAT     H135276   7.694   3.468   1.914
11678WAT     H235277   7.789   3.469   1.781
11679WAT      O35278   3.526   6.258   5.160
11679WAT     H135279   3.493   6.283   5.069
11679WAT     H235280   3.478   6.312   5.229
11680WAT      O35281   4.365   2.284   6.798
11680WAT     H135282   4.334   2.219   6.728
11680WAT     H235283   4.461   2.266   6.819
11681WAT      O35284   2.193   6.699   1.654
11681WAT     H135285   2.241   6.784   1.675
11681WAT     H235286   2.236   6.624   1.704
11682WAT      O35287   5.228   7.308   1.537
11682WAT     H135288   5.246   7.251   1.618
11682WAT     H235289   5.289   7.388   1.539
11683WAT      O35290   6.480   3.367   2.900
11683WAT     H135291   6.405   3.432   2.913
11683WAT     H235292   6.442   3.277   2.880
11684WAT      O35293   8.087   5.387   8.068
11684WAT     H135294   8.103   5.485   8.059
11684WAT     H235295   8.173   5.338   8.053
11685WAT      O35296   6.075   1.139   2.704
11685WAT     H135297   6.134   1.078   2.757
11685WAT     H235298   6.043   1.214   2.763
11686WAT      O35299   1.083   5.816   6.893
11686WAT     H135300   1.154   5.860   6.838
11686WAT     H235301   1.122   5.787   6.981
11687WAT      O35302   2.144   6.074   6.532
11687WAT     H135303   2.166   6.110   6.441
11687WAT     H235304   2.053   6.032   6.531
11688WAT      O35305   4.670   1.773   8.623
11688WAT     H135306   4.575   1.759   8.649
11688WAT     H235307   4.690   1.871   8.620
11689WAT      O35308   5.361   6.045   2.953
11689WAT     H135309   5.321   5.972   2.898
11689WAT     H235310   5.321   6.133   2.925
11690WAT      O35311   4.973   8.111   0.225
11690WAT     H135312   4.996   8.173   0.150
11690WAT     H235313   5.025   8.137   0.307
11691WAT      O35314   8.460   6.385   5.200
11691WAT     H135315   8.391   6.445   5.241
11691WAT     H235316   8.544   6.437   5.185
11692WAT      O35317   7.511   7.302   9.359
11692WAT     H135318   7.519   7.366   9.282
11692WAT     H235319   7.463   7.220   9.328
11693WAT      O35320   8.746   8.458   4.885
11693WAT     H135321   8.722   8.367   4.919
11693WAT     H235322   8.730   8.526   4.957
11694WAT      O35323   1.033   8.044   0.940
11694WAT     H135324   0.955   8.024   0.880
11694WAT     H235325   1.082   8.123   0.905
11695WAT      O35326   3.064   4.637   8.402
11695WAT     H135327   3.091   4.602   8.313
11695WAT     H235328   3.045   4.735   8.395
11696WAT      O35329   9.400   5.081   3.442
11696WAT     H135330   9.301   5.088   3.426
11696WAT     H235331   9.429   4.986   3.431
11697WAT      O35332   8.761   4.101   3.922
11697WAT     H135333   8.795   4.007   3.924
11697WAT     H235334   8.770   4.138   3.829
11698WAT      O35335   8.181   5.537   3.026
11698WAT     H135336   8.219   5.455   2.982
11698WAT     H235337   8.151   5.601   2.955
11699WAT      O35338   6.635   0.785   9.256
11699WAT     H135339   6.707   0.764   9.323
11699WAT     H235340   6.677   0.819   9.172
11700WAT      O35341   8.697   9.392   0.702
11700WAT     H135342   8.664   9.419   0.612
11700WAT     H235343   8.622   9.395   0.768
11701WAT      O35344   0.361   2.695   7.875
11701WAT     H135345   0.327   2.783   7.843
11701WAT     H235346   0.459   2.699   7.889
11702WAT      O35347   7.158   9.564   0.488
11702WAT     H135348   7.122   9.632   0.552
11702WAT     H235349   7.153   9.599   0.395
11703WAT      O35350   2.617   9.645   6.433
11703WAT     H135351   2.556   9.602   6.500
11703WAT     H235352   2.662   9.574   6.379
11704WAT      O35353   2.546   7.890   0.280
11704WAT     H135354   2.498   7.803   0.287
11704WAT     H235355   2.645   7.873   0.277
11705WAT      O35356   3.655   9.439   2.909
11705WAT     H135357   3.626   9.355   2.863
11705WAT     H235358   3.668   9.511   2.841
11706WAT      O35359   9.625   2.706   7.520
11706WAT     H135360   9.658   2.620   7.559
11706WAT     H235361   9.702   2.766   7.500
11707WAT      O35362   0.859   6.764   9.295
11707WAT     H135363   0.805   6.802   9.370
11707WAT     H235364   0.831   6.670   9.279
11708WAT      O35365   9.451   4.291   5.588
11708WAT     H135366   9.550   4.297   5.599
11708WAT     H235367   9.423   4.346   5.509
11709WAT      O35368   6.637   2.976   5.620
11709WAT     H135369   6.548   2.987   5.575
11709WAT     H235370   6.624   2.930   5.708
11710WAT      O35371   9.413   6.264   9.109
11710WAT     H135372   9.446   6.350   9.072
11710WAT     H235373   9.368   6.280   9.197
11711WAT      O35374   5.356   3.321   2.546
11711WAT     H135375   5.379   3.411   2.583
11711WAT     H235376   5.301   3.332   2.463
11712WAT      O35377   5.092   8.197   7.136
11712WAT     H135378   5.015   8.255   7.163
11712WAT     H235379   5.155   8.250   7.080
11713WAT      O35380   2.325   0.587   9.312
11713WAT     H135381   2.352   0.502   9.267
11713WAT     H235382   2.367   0.590   9.403
11714WAT      O35383   3.656   5.412   8.713
11714WAT     H135384   3.609   5.427   8.800
11714WAT     H235385   3.709   5.493   8.689
11715WAT      O35386   7.436   1.890   9.646
11715WAT     H135387   7.379   1.942   9.710
11715WAT     H235388   7.505   1.838   9.696
11716WAT      O35389   8.600   8.870   3.497
11716WAT     H135390   8.621   8.958   3.539
11716WAT     H235391   8.680   8.838   3.444
11717WAT      O35392   8.055   5.838   9.856
11717WAT     H135393   8.078   5.932   9.881
11717WAT     H235394   8.025   5.836   9.760
11718WAT      O35395   6.636   4.865   3.826
11718WAT     H135396   6.656   4.813   3.743
11718WAT     H235397   6.538   4.858   3.846
11719WAT      O35398   2.075   6.092   7.366
11719WAT     H135399   1.998   6.138   7.410
11719WAT     H235400   2.041   6.025   7.300
11720WAT      O35401   2.112   2.008   0.776
11720WAT     H135402   2.192   1.967   0.820
11720WAT     H235403   2.127   2.013   0.677
11721WAT      O35404   8.086   9.083   6.354
11721WAT     H135405   7.992   9.049   6.347
11721WAT     H235406   8.087   9.182   6.338
11722WAT      O35407   4.594   9.436   8.573
11722WAT     H135408   4.534   9.395   8.642
11722WAT     H235409   4.545   9.507   8.523
11723WAT      O35410   6.999   4.014   0.289
11723WAT     H135411   7.063   3.967   0.350
11723WAT     H235412   7.019   3.990   0.194
11724WAT      O35413   7.116   8.548   7.439
11724WAT     H135414   7.196   8.537   7.380
11724WAT     H235415   7.115   8.474   7.507
11725WAT      O35416   2.626   0.786   7.919
11725WAT     H135417   2.565   0.836   7.980
11725WAT     H235418   2.602   0.804   7.824
11726WAT      O35419   8.794   2.444   2.375
11726WAT     H135420   8.712   2.496   2.352
11726WAT     H235421   8.769   2.349   2.393
11727WAT      O35422   7.114   0.354   6.349
11727WAT     H135423   7.113   0.261   6.386
11727WAT     H235424   7.053   0.412   6.404
11728WAT      O35425   5.720   4.900   8.959
11728WAT     H135426   5.810   4.899   9.002
11728WAT     H235427   5.693   4.994   8.940
11729WAT      O35428   6.173   0.013   3.464
11729WAT     H135429   6.179  -0.069   3.521
11729WAT     H235430   6.265   0.049   3.449
11730WAT      O35431   1.880   9.595   6.413
11730WAT     H135432   1.871   9.496   6.420
11730WAT     H235433   1.916   9.620   6.323
11731WAT      O35434   1.877   6.142   8.684
11731WAT     H135435   1.814   6.089   8.627
11731WAT     H235436   1.852   6.132   8.780
11732WAT      O35437   9.754   0.332   0.792
11732WAT     H135438   9.700   0.249   0.806
11732WAT     H235439   9.758   0.353   0.694
11733WAT      O35440   8.344   8.766   5.789
11733WAT     H135441   8.334   8.734   5.883
11733WAT     H235442   8.438   8.798   5.775
11734WAT      O35443   4.207   7.016   5.485
11734WAT     H135444   4.263   7.022   5.567
11734WAT     H235445   4.249   6.950   5.421
11735WAT      O35446   8.122   7.922   1.705
11735WAT     H135447   8.194   7.991   1.712
11735WAT     H235448   8.135   7.869   1.621
11736WAT      O35449   3.811   9.844   0.318
11736WAT     H135450   3.796   9.765   0.376
11736WAT     H235451   3.888   9.897   0.353
11737WAT      O35452   7.743   8.489   2.386
11737WAT     H135453   7.790   8.473   2.299
11737WAT     H235454   7.780   8.428   2.456
11738WAT      O35455   5.965   8.658   8.360
11738WAT     H135456   5.965   8.662   8.460
11738WAT     H235457   5.872   8.646   8.327
11739WAT      O35458   2.759   4.493   6.081
11739WAT     H135459   2.754   4.415   6.143
11739WAT     H235460   2.702   4.476   6.001
11740WAT      O35461   2.677   6.631   6.489
11740WAT     H135462   2.686   6.631   6.589
11740WAT     H235463   2.737   6.701   6.450
11741WAT      O35464   7.101   8.392   2.914
11741WAT     H135465   7.151   8.471   2.950
11741WAT     H235466   7.009   8.420   2.887
11742WAT      O35467   2.291   9.651   9.271
11742WAT     H135468   2.236   9.670   9.352
11742WAT     H235469   2.347   9.570   9.287
11743WAT      O35470   3.388   4.828   9.240
11743WAT     H135471   3.434   4.759   9.184
11743WAT     H235472   3.457   4.884   9.286
11744WAT      O35473   7.728   1.572   0.705
11744WAT     H135474   7.708   1.633   0.628
11744WAT     H235475   7.738   1.625   0.788
11745WAT      O35476   9.530   1.945   4.478
11745WAT     H135477   9.626   1.948   4.505
11745WAT     H235478   9.481   2.021   4.520
11746WAT      O35479   6.684   7.703   0.212
11746WAT     H135480   6.660   7.795   0.182
11746WAT     H235481   6.751   7.708   0.286
11747WAT      O35482   8.600   3.366   4.374
11747WAT     H135483   8.619   3.318   4.459
11747WAT     H235484   8.675   3.350   4.309
11748WAT      O35485   2.109   9.407   8.916
11748WAT     H135486   2.146   9.333   8.974
11748WAT     H235487   2.096   9.489   8.971
11749WAT      O35488   4.959   8.906   0.865
11749WAT     H135489   4.984   8.852   0.785
11749WAT     H235490   4.862   8.893   0.886
11750WAT      O35491   6.250   8.030   9.083
11750WAT     H135492   6.174   8.005   9.142
11750WAT     H235493   6.216   8.068   8.997
11751WAT      O35494   4.140   4.210   9.423
11751WAT     H135495   4.232   4.247   9.430
11751WAT     H235496   4.128   4.166   9.334
11752WAT      O35497   6.519   2.422   9.289
11752WAT     H135498   6.549   2.426   9.194
11752WAT     H235499   6.419   2.418   9.292
11753WAT      O35500   8.213   1.181   4.295
11753WAT     H135501   8.271   1.228   4.229
11753WAT     H235502   8.209   1.083   4.271
11754WAT      O35503   2.607   9.630   0.922
11754WAT     H135504   2.691   9.576   0.919
11754WAT     H235505   2.609   9.696   0.847
11755WAT      O35506   3.102   0.618   0.690
11755WAT     H135507   3.029   0.566   0.645
11755WAT     H235508   3.124   0.575   0.777
11756WAT      O35509   3.014   8.921   5.161
11756WAT     H135510   3.044   8.827   5.148
11756WAT     H235511   2.939   8.924   5.227
11757WAT      O35512   7.262   6.187   7.781
11757WAT     H135513   7.249   6.095   7.746
11757WAT     H235514   7.245   6.253   7.708
11758WAT      O35515   7.794   3.355   9.720
11758WAT     H135516   7.893   3.350   9.719
11758WAT     H235517   7.765   3.449   9.737
11759WAT      O35518   8.173   2.881   9.140
11759WAT     H135519   8.105   2.921   9.201
11759WAT     H235520   8.193   2.946   9.066
11760WAT      O35521   7.297   0.130   4.154
11760WAT     H135522   7.373   0.087   4.105
11760WAT     H235523   7.223   0.064   4.166
11761WAT      O35524   1.371   3.287   5.141
11761WAT     H135525   1.284   3.241   5.126
11761WAT     H235526   1.446   3.221   5.132
11762WAT      O35527   0.932   8.993   8.203
11762WAT     H135528   0.845   9.001   8.155
11762WAT     H235529   0.921   9.025   8.297
11763WAT      O35530   5.920   8.548   8.031
11763WAT     H135531   5.903   8.479   8.101
11763WAT     H235532   5.924   8.504   7.941
11764WAT      O35533   2.369   0.084   1.852
11764WAT     H135534   2.391   0.094   1.949
11764WAT     H235535   2.291   0.022   1.842
11765WAT      O35536   3.154   8.313   8.016
11765WAT     H135537   3.245   8.284   8.047
11765WAT     H235538   3.091   8.313   8.093
11766WAT      O35539   1.883   1.633   1.133
11766WAT     H135540   1.932   1.701   1.079
11766WAT     H235541   1.943   1.554   1.149
11767WAT      O35542   5.440   7.375   6.942
11767WAT     H135543   5.390   7.308   6.887
11767WAT     H235544   5.509   7.328   6.996
11768WAT      O35545   3.193   1.203   9.885
11768WAT     H135546   3.220   1.284   9.835
11768WAT     H235547   3.203   1.122   9.827
11769WAT      O35548   4.626   8.575   9.867
11769WAT     H135549   4.676   8.489   9.863
11769WAT     H235550   4.528   8.558   9.872
11770WAT      O35551   1.529   3.330   6.785
11770WAT     H135552   1.618   3.343   6.742
11770WAT     H235553   1.542   3.299   6.880
11771WAT      O35554   4.444   9.088   1.939
11771WAT     H135555   4.474   9.159   1.876
11771WAT     H235556   4.514   9.017   1.946
11772WAT      O35557   4.763   2.129   4.447
11772WAT     H135558   4.687   2.193   4.443
11772WAT     H235559   4.849   2.179   4.449
11773WAT      O35560   2.167   3.089   7.898
11773WAT     H135561   2.262   3.063   7.880
11773WAT     H235562   2.164   3.180   7.939
11774WAT      O35563   8.301   8.839   1.781
11774WAT     H135564   8.377   8.885   1.736
11774WAT     H235565   8.281   8.885   1.868
11775WAT      O35566   9.283   5.118   3.035
11775WAT     H135567   9.355   5.187   3.043
11775WAT     H235568   9.197   5.155   3.072
11776WAT      O35569   2.598   8.057   4.128
11776WAT     H135570   2.686   8.019   4.102
11776WAT     H235571   2.552   7.995   4.192
11777WAT      O35572   4.576   8.368   5.440
11777WAT     H135573   4.552   8.294   5.378
11777WAT     H235574   4.598   8.331   5.530
11778WAT      O35575   6.985   4.586   7.880
11778WAT     H135576   6.949   4.671   7.918
11778WAT     H235577   6.994   4.518   7.953
11779WAT      O35578   0.252   9.003   6.855
11779WAT     H135579   0.233   8.906   6.848
11779WAT     H235580   0.222   9.049   6.771
11780WAT      O35581   5.862   0.431   9.422
11780WAT     H135582   5.804   0.389   9.352
11780WAT     H235583   5.948   0.381   9.430
11781WAT      O35584   5.848   6.887   7.824
11781WAT     H135585   5.781   6.907   7.752
11781WAT     H235586   5.820   6.805   7.873
11782WAT      O35587   3.043   8.966   9.030
11782WAT     H135588   3.094   9.050   9.012
11782WAT     H235589   2.999   8.973   9.120
11783WAT      O35590   3.904   6.415   9.565
11783WAT     H135591   3.841   6.394   9.639
11783WAT     H235592   3.966   6.338   9.550
11784WAT      O35593   7.675   3.316   7.132
11784WAT     H135594   7.707   3.228   7.098
11784WAT     H235595   7.715   3.334   7.222
11785WAT      O35596   6.182   5.376   8.492
11785WAT     H135597   6.209   5.332   8.407
11785WAT     H235598   6.082   5.384   8.494
11786WAT      O35599   7.666   5.908   0.336
11786WAT     H135600   7.721   5.880   0.257
11786WAT     H235601   7.599   5.976   0.307
11787WAT      O35602   5.047   0.840   6.468
11787WAT     H135603   4.978   0.776   6.433
11787WAT     H235604   5.075   0.813   6.560
11788WAT      O35605   1.544   7.317   8.858
11788WAT     H135606   1.531   7.323   8.759
11788WAT     H235607   1.490   7.388   8.902
11789WAT      O35608   9.648   7.660   6.028
11789WAT     H135609   9.580   7.704   6.087
11789WAT     H235610   9.727   7.721   6.017
11790WAT      O35611   9.100   6.366   9.311
11790WAT     H135612   9.115   6.391   9.215
11790WAT     H235613   9.183   6.325   9.349
11791WAT      O35614   2.718   3.061   0.510
11791WAT     H135615   2.798   3.009   0.540
11791WAT     H235616   2.703   3.046   0.412
11792WAT      O35617   3.910   9.670   3.515
11792WAT     H135618   3.819   9.633   3.493
11792WAT     H235619   3.956   9.697   3.430
11793WAT      O35620   1.455   5.884   3.893
11793WAT     H135621   1.527   5.840   3.947
11793WAT     H235622   1.371   5.889   3.947
11794WAT      O35623   6.001   0.700   7.143
11794WAT     H135624   5.926   0.642   7.112
11794WAT     H235625   6.088   0.652   7.128
11795WAT      O35626   2.740   9.614   1.938
11795WAT     H135627   2.653   9.591   1.982
11795WAT     H235628   2.812   9.621   2.007
11796WAT      O35629   1.332   7.932   3.437
11796WAT     H135630   1.397   7.911   3.509
11796WAT     H235631   1.281   7.849   3.412
11797WAT      O35632   6.229   5.248   8.260
11797WAT     H135633   6.253   5.297   8.176
11797WAT     H235634   6.177   5.166   8.237
11798WAT      O35635   6.317   1.350   5.387
11798WAT     H135636   6.365   1.426   5.345
11798WAT     H235637   6.372   1.311   5.460
11799WAT      O35638   3.806   4.155   4.561
11799WAT     H135639   3.895   4.145   4.604
11799WAT     H235640   3.775   4.250   4.571
11800WAT      O35641   5.030   6.169   5.427
11800WAT     H135642   4.945   6.139   5.386
11800WAT     H235643   5.054   6.260   5.393
11801WAT      O35644   6.938   5.262   7.818
11801WAT     H135645   6.982   5.173   7.809
11801WAT     H235646   6.839   5.251   7.808
11802WAT      O35647   4.741   2.270   6.515
11802WAT     H135648   4.669   2.202   6.530
11802WAT     H235649   4.716   2.356   6.559
11803WAT      O35650   2.444   4.365   2.398
11803WAT     H135651   2.533   4.350   2.441
11803WAT     H235652   2.422   4.462   2.398
11804WAT      O35653   3.010   8.780   0.774
11804WAT     H135654   3.047   8.794   0.866
11804WAT     H235655   3.003   8.682   0.755
11805WAT      O35656   4.824   5.256   1.982
11805WAT     H135657   4.792   5.191   1.913
11805WAT     H235658   4.750   5.274   2.048
11806WAT      O35659   4.094   9.232   4.726
11806WAT     H135660   4.070   9.200   4.635
11806WAT     H235661   4.052   9.172   4.795
11807WAT      O35662   0.780   5.416   1.384
11807WAT     H135663   0.796   5.453   1.293
11807WAT     H235664   0.700   5.357   1.383
11808WAT      O35665   1.493   2.832   0.055
11808WAT     H135666   1.472   2.739   0.084
11808WAT     H235667   1.551   2.829  -0.026
11809WAT      O35668   8.973   6.296   1.644
11809WAT     H135669   9.030   6.242   1.706
11809WAT     H235670   8.890   6.244   1.622
11810WAT      O35671   0.203   8.453   1.739
11810WAT     H135672   0.146   8.513   1.683
11810WAT     H235673   0.203   8.486   1.833
11811WAT      O35674   7.854   6.174   6.565
11811WAT     H135675   7.831   6.084   6.528
11811WAT     H235676   7.906   6.163   6.650
11812WAT      O35677   3.701   2.225   7.087
11812WAT     H135678   3.781   2.184   7.044
11812WAT     H235679   3.678   2.310   7.040
11813WAT      O35680   1.156   2.961   4.492
11813WAT     H135681   1.255   2.966   4.478
11813WAT     H235682   1.113   2.918   4.413
11814WAT      O35683   7.203   3.882   1.207
11814WAT     H135684   7.189   3.825   1.126
11814WAT     H235685   7.231   3.974   1.180
11815WAT      O35686   0.161   5.387   6.030
11815WAT     H135687   0.065   5.414   6.037
11815WAT     H235688   0.211   5.418   6.110
11816WAT      O35689   1.940   9.389   5.876
11816WAT     H135690   1.905   9.322   5.809
11816WAT     H235691   1.959   9.343   5.962
11817WAT      O35692   0.963   1.494   4.481
11817WAT     H135693   0.908   1.523   4.560
11817WAT     H235694   1.021   1.417   4.507
11818WAT      O35695   3.087   8.820   2.022
11818WAT     H135696   3.163   8.884   2.009
11818WAT     H235697   3.005   8.871   2.049
11819WAT      O35698   3.976   8.179   4.315
11819WAT     H135699   3.939   8.133   4.396
11819WAT     H235700   3.988   8.276   4.335
11820WAT      O35701   2.090   3.604   7.783
11820WAT     H135702   2.048   3.629   7.870
11820WAT     H235703   2.021   3.560   7.725
11821WAT      O35704   0.443   5.634   7.768
11821WAT     H135705   0.457   5.659   7.864
11821WAT     H235706   0.422   5.537   7.761
11822WAT      O35707   1.429   0.399   0.824
11822WAT     H135708   1.370   0.466   0.777
11822WAT     H235709   1.381   0.363   0.904
11823WAT      O35710   4.171   5.765   2.005
11823WAT     H135711   4.129   5.855   2.019
11823WAT     H235712   4.100   5.696   1.993
11824WAT      O35713   7.638   7.885   1.251
11824WAT     H135714   7.693   7.922   1.176
11824WAT     H235715   7.582   7.809   1.216
11825WAT      O35716   6.633   3.286   4.015
11825WAT     H135717   6.646   3.286   3.916
11825WAT     H235718   6.669   3.200   4.053
11826WAT      O35719   2.455   6.788   0.772
11826WAT     H135720   2.374   6.841   0.746
11826WAT     H235721   2.482   6.812   0.865
11827WAT      O35722   0.858   0.499   1.893
11827WAT     H135723   0.912   0.549   1.825
11827WAT     H235724   0.908   0.418   1.922
11828WAT      O35725   7.416   1.057   2.466
11828WAT     H135726   7.405   1.156   2.474
11828WAT     H235727   7.498   1.029   2.514
11829WAT      O35728   6.739   8.579   5.251
11829WAT     H135729   6.762   8.638   5.328
11829WAT     H235730   6.818   8.523   5.226
11830WAT      O35731   1.252   5.509   4.288
11830WAT     H135732   1.332   5.526   4.346
11830WAT     H235733   1.269   5.429   4.230
11831WAT      O35734   6.445   5.759   2.558
11831WAT     H135735   6.357   5.797   2.531
11831WAT     H235736   6.489   5.718   2.478
11832WAT      O35737   9.595   0.446   5.079
11832WAT     H135738   9.684   0.426   5.040
11832WAT     H235739   9.533   0.478   5.007
11833WAT      O35740   3.573   6.875   4.005
11833WAT     H135741   3.596   6.944   3.937
11833WAT     H235742   3.605   6.905   4.095
11834WAT      O35743   0.047   7.864   5.365
11834WAT     H135744   0.094   7.793   5.419
11834WAT     H235745  -0.046   7.833   5.344
11835WAT      O35746   3.444   8.576   8.096
11835WAT     H135747   3.535   8.559   8.057
11835WAT     H235748   3.450   8.652   8.161
11836WAT      O35749   7.512   2.614   6.604
11836WAT     H135750   7.521   2.664   6.518
11836WAT     H235751   7.560   2.662   6.677
11837WAT      O35752   3.212   1.425   2.847
11837WAT     H135753   3.216   1.335   2.889
11837WAT     H235754   3.294   1.477   2.871
11838WAT      O35755   8.980   6.668   5.186
11838WAT     H135756   8.940   6.658   5.277
11838WAT     H235757   9.039   6.589   5.167
11839WAT      O35758   3.548   7.036   3.362
11839WAT     H135759   3.530   6.964   3.295
11839WAT     H235760   3.616   7.004   3.428
11840WAT      O35761   9.804   2.543   1.008
11840WAT     H135762   9.721   2.499   1.043
11840WAT     H235763   9.852   2.480   0.947
11841WAT      O35764   0.595   9.413   3.079
11841WAT     H135765   0.657   9.462   3.018
11841WAT     H235766   0.637   9.403   3.169
11842WAT      O35767   1.978   6.015   2.451
11842WAT     H135768   1.983   6.115   2.451
11842WAT     H235769   1.910   5.986   2.384
11843WAT      O35770   8.589   1.951   3.155
11843WAT     H135771   8.583   2.047   3.182
11843WAT     H235772   8.513   1.900   3.196
11844WAT      O35773   3.467   7.629   8.428
11844WAT     H135774   3.447   7.534   8.406
11844WAT     H235775   3.481   7.638   8.527
11845WAT      O35776   7.903   0.952   8.053
11845WAT     H135777   7.966   0.984   7.983
11845WAT     H235778   7.809   0.969   8.024
11846WAT      O35779   2.144   5.201   4.716
11846WAT     H135780   2.239   5.212   4.688
11846WAT     H235781   2.107   5.117   4.676
11847WAT      O35782   0.786   6.261   6.962
11847WAT     H135783   0.823   6.302   6.879
11847WAT     H235784   0.690   6.290   6.973
11848WAT      O35785   4.042   6.602   7.028
11848WAT     H135786   4.062   6.625   6.933
11848WAT     H235787   3.993   6.678   7.071
11849WAT      O35788   9.014   3.055   7.243
11849WAT     H135789   8.916   3.073   7.249
11849WAT     H235790   9.032   2.959   7.265
11850WAT      O35791   5.547   0.929   6.307
11850WAT     H135792   5.527   0.974   6.394
11850WAT     H235793   5.471   0.868   6.282
11851WAT      O35794   1.618   7.769   9.771
11851WAT     H135795   1.671   7.796   9.852
11851WAT     H235796   1.521   7.784   9.789
11852WAT      O35797   2.103   1.649   6.573
11852WAT     H135798   2.074   1.706   6.650
11852WAT     H235799   2.117   1.707   6.493
11853WAT      O35800   5.813   1.845   5.520
11853WAT     H135801   5.910   1.824   5.508
11853WAT     H235802   5.794   1.859   5.617
11854WAT      O35803   7.466   8.843   1.367
11854WAT     H135804   7.415   8.876   1.288
11854WAT     H235805   7.534   8.912   1.394
11855WAT      O35806   5.229   9.506   4.763
11855WAT     H135807   5.135   9.472   4.759
11855WAT     H235808   5.263   9.522   4.670
11856WAT      O35809   9.374   2.168   3.685
11856WAT     H135810   9.425   2.198   3.766
11856WAT     H235811   9.337   2.077   3.702
11857WAT      O35812   0.321   5.143   8.916
11857WAT     H135813   0.383   5.210   8.877
11857WAT     H235814   0.249   5.121   8.850
11858WAT      O35815   9.498   6.313   0.257
11858WAT     H135816   9.478   6.399   0.304
11858WAT     H235817   9.567   6.262   0.308
11859WAT      O35818   0.375   2.038   3.004
11859WAT     H135819   0.369   2.076   3.096
11859WAT     H235820   0.470   2.041   2.974
11860WAT      O35821   6.336   9.743   6.680
11860WAT     H135822   6.312   9.839   6.672
11860WAT     H235823   6.356   9.720   6.775
11861WAT      O35824   0.402   1.039   7.213
11861WAT     H135825   0.492   1.080   7.196
11861WAT     H235826   0.405   0.942   7.191
11862WAT      O35827   7.742   8.209   6.870
11862WAT     H135828   7.827   8.233   6.918
11862WAT     H235829   7.724   8.277   6.799
11863WAT      O35830   3.820   3.579   0.145
11863WAT     H135831   3.742   3.639   0.124
11863WAT     H235832   3.807   3.539   0.236
11864WAT      O35833   2.870   0.400   4.986
11864WAT     H135834   2.900   0.321   4.931
11864WAT     H235835   2.805   0.369   5.055
11865WAT      O35836   5.851   2.340   5.123
11865WAT     H135837   5.791   2.391   5.185
11865WAT     H235838   5.909   2.279   5.176
11866WAT      O35839   6.760   0.756   2.317
11866WAT     H135840   6.810   0.800   2.392
11866WAT     H235841   6.711   0.825   2.264
11867WAT      O35842   7.952   3.714   4.753
11867WAT     H135843   8.031   3.716   4.692
11867WAT     H235844   7.869   3.698   4.699
11868WAT      O35845   8.999   2.717   6.166
11868WAT     H135846   9.011   2.805   6.118
11868WAT     H235847   8.903   2.690   6.162
11869WAT      O35848   2.989   9.239   6.127
11869WAT     H135849   2.948   9.330   6.117
11869WAT     H235850   3.003   9.198   6.037
11870WAT      O35851   9.830   7.767   8.554
11870WAT     H135852   9.751   7.792   8.498
11870WAT     H235853   9.913   7.768   8.498
11871WAT      O35854   0.070   6.768   7.342
11871WAT     H135855  -0.014   6.721   7.315
11871WAT     H235856   0.145   6.739   7.282
11872WAT      O35857   4.932   4.368   4.460
11872WAT     H135858   4.854   4.317   4.423
11872WAT     H235859   4.908   4.464   4.469
11873WAT      O35860   0.849   5.900   3.111
11873WAT     H135861   0.750   5.907   3.127
11873WAT     H235862   0.895   5.876   3.196
11874WAT      O35863   6.713   9.608   8.716
11874WAT     H135864   6.672   9.676   8.655
11874WAT     H235865   6.647   9.533   8.730
11875WAT      O35866   5.143   0.322   5.389
11875WAT     H135867   5.242   0.313   5.379
11875WAT     H235868   5.100   0.308   5.299
11876WAT      O35869   4.346   7.770   4.836
11876WAT     H135870   4.248   7.774   4.857
11876WAT     H235871   4.359   7.729   4.746
11877WAT      O35872   0.949   2.993   4.859
11877WAT     H135873   1.047   2.984   4.875
11877WAT     H235874   0.915   2.912   4.811
11878WAT      O35875   7.953   1.488   1.260
11878WAT     H135876   8.040   1.522   1.224
11878WAT     H235877   7.877   1.529   1.209
11879WAT      O35878   2.377   0.613   5.891
11879WAT     H135879   2.368   0.520   5.927
11879WAT     H235880   2.473   0.642   5.896
11880WAT      O35881   5.531   1.310   9.296
11880WAT     H135882   5.452   1.294   9.238
11880WAT     H235883   5.584   1.387   9.260
11881WAT      O35884   3.448   0.109   0.428
11881WAT     H135885   3.437   0.069   0.519
11881WAT     H235886   3.519   0.180   0.431
11882WAT      O35887   2.076   3.620   3.268
11882WAT     H135888   2.019   3.702   3.258
11882WAT     H235889   2.161   3.644   3.316
11883WAT      O35890   8.136   4.481   7.290
11883WAT     H135891   8.207   4.515   7.352
11883WAT     H235892   8.109   4.553   7.226
11884WAT      O35893   7.608   5.499   2.590
11884WAT     H135894   7.510   5.514   2.584
11884WAT     H235895   7.635   5.424   2.529
11885WAT      O35896   2.475   4.710   3.398
11885WAT     H135897   2.380   4.737   3.417
11885WAT     H235898   2.498   4.629   3.451
11886WAT      O35899   9.443   4.402   9.557
11886WAT     H135900   9.502   4.336   9.604
11886WAT     H235901   9.405   4.466   9.623
11887WAT      O35902   9.755   4.826   6.859
11887WAT     H135903   9.826   4.777   6.910
11887WAT     H235904   9.685   4.761   6.830
11888WAT      O35905   0.194   6.929   2.528
11888WAT     H135906   0.162   6.862   2.594
11888WAT     H235907   0.146   6.917   2.441
11889WAT      O35908   2.381   7.250   5.340
11889WAT     H135909   2.472   7.220   5.314
11889WAT     H235910   2.381   7.349   5.355
11890WAT      O35911   0.160   4.810   6.575
11890WAT     H135912   0.233   4.748   6.605
11890WAT     H235913   0.179   4.902   6.610
11891WAT      O35914   6.569   0.581   2.359
11891WAT     H135915   6.649   0.640   2.352
11891WAT     H235916   6.501   0.625   2.419
11892WAT      O35917   3.120   1.446   7.765
11892WAT     H135918   3.118   1.347   7.777
11892WAT     H235919   3.191   1.486   7.822
11893WAT      O35920   4.109   0.809   4.379
11893WAT     H135921   4.158   0.789   4.464
11893WAT     H235922   4.025   0.860   4.400
11894WAT      O35923   3.735   5.256   7.796
11894WAT     H135924   3.723   5.320   7.873
11894WAT     H235925   3.682   5.173   7.814
11895WAT      O35926   4.243   9.467   8.096
11895WAT     H135927   4.273   9.524   8.172
11895WAT     H235928   4.168   9.408   8.126
11896WAT      O35929   1.621   2.214   5.737
11896WAT     H135930   1.603   2.302   5.781
11896WAT     H235931   1.717   2.189   5.753
11897WAT      O35932   0.215   1.585   8.466
11897WAT     H135933   0.293   1.548   8.415
11897WAT     H235934   0.243   1.609   8.558
11898WAT      O35935   0.462   4.388   3.860
11898WAT     H135936   0.480   4.293   3.834
11898WAT     H235937   0.488   4.401   3.956
11899WAT      O35938   2.827   2.651   9.056
11899WAT     H135939   2.809   2.733   9.110
11899WAT     H235940   2.799   2.667   8.962
11900WAT      O35941   4.467   9.290   1.753
11900WAT     H135942   4.564   9.312   1.738
11900WAT     H235943   4.415   9.374   1.767
11901WAT      O35944   4.421   8.711   7.154
11901WAT     H135945   4.520   8.699   7.166
11901WAT     H235946   4.382   8.628   7.115
11902WAT      O35947   7.895   8.037   1.649
11902WAT     H135948   7.976   7.992   1.685
11902WAT     H235949   7.914   8.135   1.636
11903WAT      O35950   9.553   0.348   2.132
11903WAT     H135951   9.552   0.248   2.128
11903WAT     H235952   9.515   0.378   2.219
11904WAT      O35953   3.178   1.503   5.656
11904WAT     H135954   3.245   1.470   5.722
11904WAT     H235955   3.212   1.485   5.563
11905WAT      O35956   8.215   6.441   3.130
11905WAT     H135957   8.298   6.493   3.110
11905WAT     H235958   8.135   6.497   3.110
11906WAT      O35959   6.597   9.467   1.992
11906WAT     H135960   6.501   9.473   1.965
11906WAT     H235961   6.603   9.448   2.090
11907WAT      O35962   7.945   0.596   7.060
11907WAT     H135963   7.978   0.685   7.027
11907WAT     H235964   7.894   0.551   6.987
11908WAT      O35965   7.627   6.307   9.695
11908WAT     H135966   7.702   6.312   9.629
11908WAT     H235967   7.540   6.307   9.646
11909WAT      O35968   0.478   5.700   5.235
11909WAT     H135969   0.535   5.763   5.287
11909WAT     H235970   0.507   5.606   5.252
11910WAT      O35971   7.597   3.147   2.612
11910WAT     H135972   7.561   3.229   2.656
11910WAT     H235973   7.542   3.068   2.638
11911WAT      O35974   0.489   8.532   4.564
11911WAT     H135975   0.497   8.580   4.476
11911WAT     H235976   0.513   8.436   4.551
11912WAT      O35977   6.771   7.039   3.394
11912WAT     H135978   6.822   6.960   3.359
11912WAT     H235979   6.721   7.083   3.319
11913WAT      O35980   7.383   3.403   6.021
11913WAT     H135981   7.288   3.414   6.051
11913WAT     H235982   7.384   3.386   5.922
11914WAT      O35983   5.304   8.170   6.498
11914WAT     H135984   5.288   8.199   6.592
11914WAT     H235985   5.402   8.178   6.477
11915WAT      O35986   9.488   0.989   1.539
11915WAT     H135987   9.388   0.991   1.550
11915WAT     H235988   9.526   1.078   1.565
11916WAT      O35989   7.514   1.706   2.320
11916WAT     H135990   7.490   1.746   2.231
11916WAT     H235991   7.441   1.724   2.386
11917WAT      O35992   8.978   0.800   2.027
11917WAT     H135993   9.029   0.761   2.104
11917WAT     H235994   8.881   0.802   2.048
11918WAT      O35995   8.222   9.172   5.471
11918WAT     H135996   8.135   9.220   5.467
11918WAT     H235997   8.256   9.172   5.565
11919WAT      O35998   1.148   8.588   1.469
11919WAT     H135999   1.098   8.602   1.555
11919WAT     H236000   1.124   8.661   1.405
11920WAT      O36001   1.639   3.661   6.109
11920WAT     H136002   1.626   3.617   6.198
11920WAT     H236003   1.559   3.645   6.052
11921WAT      O36004   7.272   3.079   3.763
11921WAT     H136005   7.226   3.167   3.750
11921WAT     H236006   7.251   3.044   3.854
11922WAT      O36007   8.644   5.241   6.969
11922WAT     H136008   8.589   5.174   6.919
11922WAT     H236009   8.728   5.197   7.002
11923WAT      O36010   4.699   6.385   6.546
11923WAT     H136011   4.724   6.471   6.592
11923WAT     H236012   4.769   6.316   6.563
11924WAT      O36013   8.702   2.049   5.938
11924WAT     H136014   8.788   2.060   5.887
11924WAT     H236015   8.667   2.139   5.963
11925WAT      O36016   7.974   5.587   5.050
11925WAT     H136017   7.996   5.529   4.972
11925WAT     H236018   7.884   5.563   5.086
11926WAT      O36019   5.850   8.467   3.225
11926WAT     H136020   5.819   8.499   3.136
11926WAT     H236021   5.785   8.494   3.295
11927WAT      O36022   6.317   4.209   6.339
11927WAT     H136023   6.259   4.241   6.263
11927WAT     H236024   6.372   4.132   6.309
11928WAT      O36025   2.650   7.231   8.054
11928WAT     H136026   2.749   7.240   8.059
11928WAT     H236027   2.625   7.192   7.966
11929WAT      O36028   3.436   5.366   4.092
11929WAT     H136029   3.434   5.456   4.050
11929WAT     H236030   3.504   5.309   4.045
11930WAT      O36031   5.637   0.534   3.230
11930WAT     H136032   5.634   0.632   3.210
11930WAT     H236033   5.662   0.484   3.148
11931WAT      O36034   1.790   6.779   4.665
11931WAT     H136035   1.879   6.806   4.628
11931WAT     H236036   1.789   6.680   4.681
11932WAT      O36037   9.461   1.775   2.747
11932WAT     H136038   9.496   1.682   2.762
11932WAT     H236039   9.537   1.838   2.734
11933WAT      O36040   2.291   3.410   9.573
11933WAT     H136041   2.208   3.461   9.550
11933WAT     H236042   2.287   3.319   9.531
11934WAT      O36043   5.317   5.532   9.746
11934WAT     H136044   5.276   5.537   9.655
11934WAT     H236045   5.285   5.450   9.793
11935WAT      O36046   5.426   7.405   9.413
11935WAT     H136047   5.486   7.425   9.491
11935WAT     H236048   5.464   7.445   9.330
11936WAT      O36049   8.927   5.064   6.783
11936WAT     H136050   8.923   5.092   6.879
11936WAT     H236051   9.018   5.085   6.747
11937WAT      O36052   2.838   1.842   3.254
11937WAT     H136053   2.905   1.909   3.287
11937WAT     H236054   2.834   1.765   3.318
11938WAT      O36055   1.313   1.892   7.609
11938WAT     H136056   1.216   1.911   7.592
11938WAT     H236057   1.348   1.832   7.537
11939WAT      O36058   1.551   1.177   3.922
11939WAT     H136059   1.460   1.156   3.956
11939WAT     H236060   1.560   1.145   3.828
11940WAT      O36061   5.483   9.564   2.080
11940WAT     H136062   5.479   9.563   2.180
11940WAT     H236063   5.493   9.471   2.046
11941WAT      O36064   4.263   0.949   3.141
11941WAT     H136065   4.221   1.036   3.167
11941WAT     H236066   4.362   0.960   3.137
11942WAT      O36067   6.313   4.555   2.407
11942WAT     H136068   6.323   4.607   2.322
11942WAT     H236069   6.346   4.462   2.393
11943WAT      O36070   7.786   6.229   8.750
11943WAT     H136071   7.856   6.162   8.725
11943WAT     H236072   7.718   6.235   8.677
11944WAT      O36073   7.234   1.395   1.422
11944WAT     H136074   7.138   1.392   1.394
11944WAT     H236075   7.251   1.323   1.490
11945WAT      O36076   9.174   4.077   9.462
11945WAT     H136077   9.124   4.106   9.544
11945WAT     H236078   9.126   4.001   9.420
11946WAT      O36079   4.048   8.162   7.719
11946WAT     H136080   4.074   8.111   7.802
11946WAT     H236081   4.014   8.253   7.745
11947WAT      O36082   4.495   7.104   0.288
11947WAT     H136083   4.487   7.117   0.387
11947WAT     H236084   4.477   7.008   0.266
11948WAT      O36085   8.456   0.760   9.194
11948WAT     H136086   8.380   0.825   9.199
11948WAT     H236087   8.490   0.756   9.100
11949WAT      O36088   5.722   4.174   2.476
11949WAT     H136089   5.812   4.133   2.461
11949WAT     H236090   5.733   4.269   2.505
11950WAT      O36091   0.433   2.087   1.077
11950WAT     H136092   0.335   2.088   1.097
11950WAT     H236093   0.484   2.078   1.163
11951WAT      O36094   0.424   2.054   5.399
11951WAT     H136095   0.452   1.972   5.449
11951WAT     H236096   0.400   2.030   5.305
11952WAT      O36097   4.528   0.066   4.746
11952WAT     H136098   4.460   0.090   4.815
11952WAT     H236099   4.504  -0.022   4.704
11953WAT      O36100   6.854   9.360   6.786
11953WAT     H136101   6.868   9.395   6.693
11953WAT     H236102   6.937   9.312   6.816
11954WAT      O36103   1.639   1.122   4.820
11954WAT     H136104   1.542   1.134   4.796
11954WAT     H236105   1.691   1.103   4.737
11955WAT      O36106   8.458   2.607   8.480
11955WAT     H136107   8.403   2.574   8.403
11955WAT     H236108   8.411   2.587   8.566
11956WAT      O36109   2.104   7.079   8.542
11956WAT     H136110   2.023   7.101   8.488
11956WAT     H236111   2.092   7.111   8.636
11957WAT      O36112   5.950   3.759   3.695
11957WAT     H136113   5.936   3.668   3.734
11957WAT     H236114   5.864   3.810   3.696
11958WAT      O36115   3.908   7.753   5.690
11958WAT     H136116   3.902   7.719   5.784
11958WAT     H236117   4.003   7.769   5.666
11959WAT      O36118   4.247   1.313   7.292
11959WAT     H136119   4.315   1.284   7.360
11959WAT     H236120   4.282   1.296   7.200
11960WAT      O36121   2.303   4.093   2.937
11960WAT     H136122   2.283   4.179   2.985
11960WAT     H236123   2.351   4.030   2.999
11961WAT      O36124   9.065   2.173   2.903
11961WAT     H136125   8.990   2.113   2.930
11961WAT     H236126   9.123   2.124   2.837
11962WAT      O36127   3.097   6.306   3.406
11962WAT     H136128   3.039   6.384   3.382
11962WAT     H236129   3.156   6.331   3.482
11963WAT      O36130   7.159   5.643   1.445
11963WAT     H136131   7.148   5.571   1.376
11963WAT     H236132   7.228   5.615   1.512
11964WAT      O36133   8.101   7.115   5.881
11964WAT     H136134   8.096   7.080   5.975
11964WAT     H236135   8.009   7.138   5.849
11965WAT      O36136   7.987   8.783   9.516
11965WAT     H136137   7.921   8.843   9.470
11965WAT     H236138   7.938   8.713   9.567
11966WAT      O36139   8.351   4.825   0.018
11966WAT     H136140   8.313   4.905   0.064
11966WAT     H236141   8.346   4.746   0.079
11967WAT      O36142   5.364   6.259   7.187
11967WAT     H136143   5.276   6.284   7.227
11967WAT     H236144   5.351   6.190   7.117
11968WAT      O36145   6.890   9.447   8.931
11968WAT     H136146   6.791   9.463   8.929
11968WAT     H236147   6.922   9.423   8.839
11969WAT      O36148   5.929   2.786   9.736
11969WAT     H136149   6.005   2.850   9.744
11969WAT     H236150   5.846   2.827   9.774
11970WAT      O36151   9.038   2.518   1.838
11970WAT     H136152   9.001   2.548   1.926
11970WAT     H236153   9.060   2.598   1.782
11971WAT      O36154   8.334   6.410   0.685
11971WAT     H136155   8.362   6.448   0.773
11971WAT     H236156   8.340   6.481   0.615
11972WAT      O36157   1.416   2.255   1.087
11972WAT     H136158   1.467   2.236   1.171
11972WAT     H236159   1.470   2.313   1.026
11973WAT      O36160   5.583   0.637   6.450
11973WAT     H136161   5.592   0.697   6.530
11973WAT     H236162   5.487   0.611   6.439
11974WAT      O36163   3.051   2.079   1.330
11974WAT     H136164   3.050   2.034   1.420
11974WAT     H236165   3.057   2.010   1.258
11975WAT      O36166   7.093   4.703   0.420
11975WAT     H136167   7.002   4.742   0.403
11975WAT     H236168   7.102   4.682   0.518
11976WAT      O36169   3.103   4.323   1.304
11976WAT     H136170   3.088   4.408   1.252
11976WAT     H236171   3.170   4.339   1.376
11977WAT      O36172   2.824   9.431   0.547
11977WAT     H136173   2.881   9.465   0.472
11977WAT     H236174   2.861   9.344   0.579
11978WAT      O36175   5.375   4.826   6.862
11978WAT     H136176   5.288   4.873   6.847
11978WAT     H236177   5.428   4.827   6.777
11979WAT      O36178   0.621   9.556   7.301
11979WAT     H136179   0.577   9.500   7.231
11979WAT     H236180   0.552   9.586   7.367
11980WAT      O36181   2.985   7.143   8.386
11980WAT     H136182   3.060   7.101   8.335
11980WAT     H236183   2.941   7.074   8.443
11981WAT      O36184   6.241   3.332   5.116
11981WAT     H136185   6.192   3.355   5.032
11981WAT     H236186   6.300   3.408   5.142
11982WAT      O36187   3.016   1.660   8.905
11982WAT     H136188   3.038   1.643   8.809
11982WAT     H236189   3.081   1.611   8.963
11983WAT      O36190   1.808   3.674   2.708
11983WAT     H136191   1.768   3.603   2.766
11983WAT     H236192   1.901   3.693   2.739
11984WAT      O36193   3.382   2.106   6.210
11984WAT     H136194   3.312   2.168   6.174
11984WAT     H236195   3.341   2.018   6.231
11985WAT      O36196   5.153   4.763   3.700
11985WAT     H136197   5.082   4.721   3.756
11985WAT     H236198   5.221   4.695   3.674
11986WAT      O36199   7.705   0.244   1.768
11986WAT     H136200   7.644   0.289   1.833
11986WAT     H236201   7.697   0.289   1.678
11987WAT      O36202   8.703   4.587   4.518
11987WAT     H136203   8.757   4.660   4.476
11987WAT     H236204   8.612   4.620   4.540
11988WAT      O36205   5.451   7.467   7.439
11988WAT     H136206   5.512   7.534   7.482
11988WAT     H236207   5.356   7.497   7.450
11989WAT      O36208   8.966   6.569   2.645
11989WAT     H136209   8.912   6.485   2.641
11989WAT     H236210   8.971   6.602   2.739
11990WAT      O36211   4.659   6.057   3.603
11990WAT     H136212   4.661   6.070   3.504
11990WAT     H236213   4.581   6.108   3.641
11991WAT      O36214   8.943   1.374   3.214
11991WAT     H136215   8.922   1.370   3.116
11991WAT     H236216   8.983   1.463   3.236
11992WAT      O36217   1.831   2.283   6.795
11992WAT     H136218   1.925   2.258   6.771
11992WAT     H236219   1.794   2.218   6.861
11993WAT      O36220   8.145   8.911   4.096
11993WAT     H136221   8.083   8.847   4.142
11993WAT     H236222   8.092   8.988   4.059
11994WAT      O36223   8.256   9.574   2.594
11994WAT     H136224   8.162   9.553   2.623
11994WAT     H236225   8.254   9.638   2.517
11995WAT      O36226   8.560   8.494   0.109
11995WAT     H136227   8.582   8.453   0.197
11995WAT     H236228   8.593   8.435   0.035
11996WAT      O36229   1.048   2.725   0.582
11996WAT     H136230   0.979   2.657   0.558
11996WAT     H236231   1.095   2.696   0.666
11997WAT      O36232   7.130   6.322   6.206
11997WAT     H136233   7.090   6.230   6.205
11997WAT     H236234   7.226   6.316   6.180
11998WAT      O36235   3.192   1.492   7.177
11998WAT     H136236   3.100   1.516   7.209
11998WAT     H236237   3.219   1.555   7.103
11999WAT      O36238   6.905   6.028   6.401
11999WAT     H136239   6.851   6.108   6.376
11999WAT     H236240   6.867   5.946   6.357
12000WAT      O36241   9.210   9.335   7.715
12000WAT     H136242   9.272   9.406   7.749
12000WAT     H236243   9.182   9.357   7.621
12001WAT      O36244   9.491   8.094   4.291
12001WAT     H136245   9.524   8.187   4.279
12001WAT     H236246   9.410   8.079   4.234
12002WAT      O36247   4.774   7.523   0.852
12002WAT     H136248   4.714   7.579   0.908
12002WAT     H236249   4.853   7.495   0.905
12003WAT      O36250   4.994   8.971   8.195
12003WAT     H136251   5.008   8.893   8.135
12003WAT     H236252   4.996   9.056   8.142
12004WAT      O36253   2.920   5.337   7.803
12004WAT     H136254   2.826   5.323   7.833
12004WAT     H236255   2.947   5.261   7.743
12005WAT      O36256   7.310   7.543   2.597
12005WAT     H136257   7.232   7.603   2.614
12005WAT     H236258   7.356   7.521   2.683
12006WAT      O36259   8.277   6.632   7.214
12006WAT     H136260   8.356   6.681   7.251
12006WAT     H236261   8.200   6.696   7.203
12007WAT      O36262   1.033   6.400   9.419
12007WAT     H136263   0.987   6.361   9.498
12007WAT     H236264   1.078   6.485   9.445
12008WAT      O36265   9.765   5.219   3.470
12008WAT     H136266   9.723   5.263   3.549
12008WAT     H236267   9.809   5.287   3.412
12009WAT      O36268   0.531   1.323   0.441
12009WAT     H136269   0.526   1.256   0.515
12009WAT     H236270   0.611   1.381   0.454
12010WAT      O36271   3.979   8.634   4.767
12010WAT     H136272   3.893   8.651   4.719
12010WAT     H236273   3.960   8.593   4.857
12011WAT      O36274   8.306   3.937   0.039
12011WAT     H136275   8.380   3.873   0.057
12011WAT     H236276   8.224   3.908   0.089
12012WAT      O36277   3.161   7.736   5.179
12012WAT     H136278   3.077   7.766   5.133
12012WAT     H236279   3.158   7.637   5.192
12013WAT      O36280   7.154   9.599   2.118
12013WAT     H136281   7.250   9.597   2.090
12013WAT     H236282   7.100   9.647   2.048
12014WAT      O36283   8.681   8.597   7.408
12014WAT     H136284   8.588   8.610   7.442
12014WAT     H236285   8.686   8.513   7.354
12015WAT      O36286   7.955   7.818   3.900
12015WAT     H136287   7.927   7.758   3.825
12015WAT     H236288   7.965   7.764   3.983
12016WAT      O36289   5.928   6.424   7.329
12016WAT     H136290   5.901   6.511   7.371
12016WAT     H236291   5.901   6.349   7.388
12017WAT      O36292   9.679   0.708   4.751
12017WAT     H136293   9.719   0.632   4.700
12017WAT     H236294   9.629   0.672   4.830
12018WAT      O36295   8.842   0.574   6.031
12018WAT     H136296   8.759   0.519   6.039
12018WAT     H236297   8.913   0.536   6.090
12019WAT      O36298   6.327   7.789   3.878
12019WAT     H136299   6.348   7.741   3.963
12019WAT     H236300   6.234   7.827   3.883
12020WAT      O36301   3.504   1.051   7.957
12020WAT     H136302   3.575   1.058   8.026
12020WAT     H236303   3.414   1.063   8.000
12021WAT      O36304   7.285   2.994   1.347
12021WAT     H136305   7.193   2.955   1.356
12021WAT     H236306   7.278   3.093   1.332
12022WAT      O36307   1.034   0.806   8.690
12022WAT     H136308   1.011   0.719   8.646
12022WAT     H236309   1.120   0.795   8.741
12023WAT      O36310   9.206   9.586   5.326
12023WAT     H136311   9.212   9.486   5.334
12023WAT     H236312   9.183   9.625   5.415
12024WAT      O36313   9.623   1.954   3.380
12024WAT     H136314   9.711   1.974   3.336
12024WAT     H236315   9.609   1.855   3.385
12025WAT      O36316   6.776   7.133   0.316
12025WAT     H136317   6.680   7.158   0.334
12025WAT     H236318   6.799   7.159   0.222
12026WAT      O36319   9.767   4.267   0.842
12026WAT     H136320   9.839   4.334   0.825
12026WAT     H236321   9.742   4.223   0.755
12027WAT      O36322   3.144   1.857   7.951
12027WAT     H136323   3.097   1.841   8.038
12027WAT     H236324   3.235   1.893   7.969
12028WAT      O36325   0.643   8.875   8.756
12028WAT     H136326   0.569   8.886   8.690
12028WAT     H236327   0.684   8.965   8.776
12029WAT      O36328   4.568   9.191   9.169
12029WAT     H136329   4.551   9.096   9.144
12029WAT     H236330   4.665   9.211   9.156
12030WAT      O36331   3.069   6.944   1.120
12030WAT     H136332   2.974   6.942   1.088
12030WAT     H236333   3.096   6.853   1.149
12031WAT      O36334   9.781   1.628   6.553
12031WAT     H136335   9.871   1.651   6.515
12031WAT     H236336   9.774   1.530   6.567
12032WAT      O36337   8.634   3.318   7.859
12032WAT     H136338   8.597   3.267   7.937
12032WAT     H236339   8.666   3.254   7.790
12033WAT      O36340   6.866   5.754   3.319
12033WAT     H136341   6.849   5.791   3.228
12033WAT     H236342   6.954   5.707   3.320
12034WAT      O36343   2.779   7.670   1.287
12034WAT     H136344   2.706   7.643   1.349
12034WAT     H236345   2.794   7.598   1.219
12035WAT      O36346   3.898   3.821   8.875
12035WAT     H136347   3.818   3.836   8.817
12035WAT     H236348   3.970   3.886   8.848
12036WAT      O36349   2.118   9.096   9.315
12036WAT     H136350   2.104   9.188   9.352
12036WAT     H236351   2.106   9.029   9.389
12037WAT      O36352   7.782   6.254   2.444
12037WAT     H136353   7.862   6.254   2.504
12037WAT     H236354   7.715   6.320   2.478
12038WAT      O36355   5.505   4.010   2.283
12038WAT     H136356   5.434   4.030   2.351
12038WAT     H236357   5.479   4.051   2.195
12039WAT      O36358   3.971   3.541   7.556
12039WAT     H136359   3.950   3.576   7.647
12039WAT     H236360   4.057   3.489   7.559
12040WAT      O36361   6.788   2.799   0.322
12040WAT     H136362   6.774   2.808   0.223
12040WAT     H236363   6.771   2.887   0.366
12041WAT      O36364   9.479   2.265   2.921
12041WAT     H136365   9.410   2.318   2.872
12041WAT     H236366   9.526   2.203   2.858
12042WAT      O36367   8.705   3.092   7.722
12042WAT     H136368   8.787   3.067   7.773
12042WAT     H236369   8.642   3.014   7.720
12043WAT      O36370   7.922   1.524   9.850
12043WAT     H136371   7.911   1.572   9.937
12043WAT     H236372   7.924   1.590   9.775
12044WAT      O36373   2.375   7.174   9.347
12044WAT     H136374   2.398   7.265   9.382
12044WAT     H236375   2.377   7.175   9.247
12045WAT      O36376   8.867   7.521   1.373
12045WAT     H136377   8.967   7.516   1.381
12045WAT     H236378   8.838   7.616   1.382
12046WAT      O36379   4.535   3.483   8.372
12046WAT     H136380   4.566   3.399   8.327
12046WAT     H236381   4.575   3.488   8.463
12047WAT      O36382   7.193   2.124   6.643
12047WAT     H136383   7.238   2.048   6.690
12047WAT     H236384   7.106   2.092   6.605
12048WAT      O36385   4.567   3.605   2.879
12048WAT     H136386   4.560   3.705   2.890
12048WAT     H236387   4.627   3.568   2.949
12049WAT      O36388   5.193   0.862   3.421
12049WAT     H136389   5.231   0.822   3.337
12049WAT     H236390   5.220   0.806   3.499
12050WAT      O36391   2.883   1.845   0.264
12050WAT     H136392   2.832   1.901   0.329
12050WAT     H236393   2.975   1.828   0.299
12051WAT      O36394   1.860   2.664   4.410
12051WAT     H136395   1.833   2.608   4.332
12051WAT     H236396   1.959   2.676   4.411
12052WAT      O36397   6.369   8.053   4.960
12052WAT     H136398   6.339   7.970   5.007
12052WAT     H236399   6.401   8.030   4.868
12053WAT      O36400   0.807   9.140   4.177
12053WAT     H136401   0.772   9.224   4.135
12053WAT     H236402   0.736   9.099   4.235
12054WAT      O36403   8.318   1.288   0.831
12054WAT     H136404   8.275   1.373   0.862
12054WAT     H236405   8.271   1.210   0.872
12055WAT      O36406   1.146   2.594   7.461
12055WAT     H136407   1.098   2.576   7.547
12055WAT     H236408   1.090   2.563   7.385
12056WAT      O36409   1.638   0.362   4.274
12056WAT     H136410   1.541   0.349   4.298
12056WAT     H236411   1.660   0.459   4.279
12057WAT      O36412   3.099   7.282   0.447
12057WAT     H136413   3.067   7.199   0.403
12057WAT     H236414   3.171   7.260   0.513
12058WAT      O36415   8.346   1.432   2.819
12058WAT     H136416   8.368   1.512   2.874
12058WAT     H236417   8.317   1.357   2.879
12059WAT      O36418   7.740   3.203   7.859
12059WAT     H136419   7.760   3.256   7.941
12059WAT     H236420   7.643   3.178   7.858
12060WAT      O36421   6.868   8.869   4.594
12060WAT     H136422   6.783   8.816   4.600
12060WAT     H236423   6.874   8.930   4.674
12061WAT      O36424   9.659   9.450   0.724
12061WAT     H136425   9.736   9.505   0.695
12061WAT     H236426   9.652   9.368   0.667
12062WAT      O36427   2.051   5.453   8.641
12062WAT     H136428   1.994   5.531   8.615
12062WAT     H236429   2.142   5.485   8.668
12063WAT      O36430   0.391   6.727   2.658
12063WAT     H136431   0.460   6.799   2.646
12063WAT     H236432   0.361   6.726   2.754
12064WAT      O36433   0.190   8.090   7.711
12064WAT     H136434   0.207   8.089   7.612
12064WAT     H236435   0.167   8.183   7.740
12065WAT      O36436   5.655   2.505   7.287
12065WAT     H136437   5.752   2.513   7.309
12065WAT     H236438   5.625   2.411   7.302
12066WAT      O36439   7.621   9.182   2.144
12066WAT     H136440   7.608   9.162   2.047
12066WAT     H236441   7.558   9.128   2.198
12067WAT      O36442   4.793   8.535   8.061
12067WAT     H136443   4.770   8.582   8.146
12067WAT     H236444   4.739   8.451   8.053
12068WAT      O36445   5.639   3.475   9.889
12068WAT     H136446   5.617   3.479   9.792
12068WAT     H236447   5.587   3.401   9.932
12069WAT      O36448   4.934   4.386   2.317
12069WAT     H136449   5.006   4.328   2.356
12069WAT     H236450   4.906   4.350   2.228
12070WAT      O36451   4.510   1.473   5.177
12070WAT     H136452   4.507   1.450   5.080
12070WAT     H236453   4.586   1.535   5.194
12071WAT      O36454   6.326   1.439   0.377
12071WAT     H136455   6.386   1.399   0.446
12071WAT     H236456   6.344   1.537   0.369
12072WAT      O36457   4.304   8.830   2.627
12072WAT     H136458   4.218   8.823   2.576
12072WAT     H236459   4.291   8.794   2.720
12073WAT      O36460   2.798   1.969   1.693
12073WAT     H136461   2.746   1.965   1.778
12073WAT     H236462   2.788   1.881   1.645
12074WAT      O36463   4.778   5.557   9.084
12074WAT     H136464   4.763   5.537   8.987
12074WAT     H236465   4.754   5.477   9.139
12075WAT      O36466   6.574   8.247   4.768
12075WAT     H136467   6.521   8.166   4.743
12075WAT     H236468   6.668   8.236   4.737
12076WAT      O36469   4.042   7.563   0.510
12076WAT     H136470   4.118   7.626   0.494
12076WAT     H236471   4.077   7.478   0.550
12077WAT      O36472   7.265   6.443   6.845
12077WAT     H136473   7.215   6.357   6.832
12077WAT     H236474   7.362   6.422   6.855
12078WAT      O36475   3.340   3.720   3.381
12078WAT     H136476   3.403   3.792   3.410
12078WAT     H236477   3.360   3.695   3.286
12079WAT      O36478   7.562   5.896   1.580
12079WAT     H136479   7.473   5.934   1.605
12079WAT     H236480   7.572   5.898   1.480
12080WAT      O36481   5.201   0.824   5.670
12080WAT     H136482   5.190   0.901   5.607
12080WAT     H236483   5.297   0.816   5.697
12081WAT      O36484   1.564   4.594   4.299
12081WAT     H136485   1.648   4.614   4.350
12081WAT     H236486   1.559   4.495   4.280
12082WAT      O36487   3.955   7.785   0.087
12082WAT     H136488   3.885   7.714   0.095
12082WAT     H236489   3.945   7.849   0.162
12083WAT      O36490   5.657   4.368   0.395
12083WAT     H136491   5.600   4.307   0.450
12083WAT     H236492   5.703   4.434   0.454
12084WAT      O36493   5.402   9.185   5.514
12084WAT     H136494   5.498   9.156   5.505
12084WAT     H236495   5.345   9.127   5.456
12085WAT      O36496   6.494   4.394   0.317
12085WAT     H136497   6.574   4.450   0.336
12085WAT     H236498   6.495   4.366   0.221
12086WAT      O36499   9.215   7.491   2.714
12086WAT     H136500   9.276   7.447   2.780
12086WAT     H236501   9.267   7.559   2.662
12087WAT      O36502   6.641   8.034   6.836
12087WAT     H136503   6.605   7.940   6.833
12087WAT     H236504   6.738   8.032   6.813
12088WAT      O36505   6.112   1.739   8.494
12088WAT     H136506   6.132   1.792   8.412
12088WAT     H236507   6.083   1.800   8.567
12089WAT      O36508   6.198   0.609   2.305
12089WAT     H136509   6.123   0.557   2.264
12089WAT     H236510   6.275   0.611   2.240
12090WAT      O36511   0.367   5.294   1.126
12090WAT     H136512   0.429   5.228   1.168
12090WAT     H236513   0.352   5.371   1.189
12091WAT      O36514   8.393   6.087   5.337
12091WAT     H136515   8.400   6.000   5.386
12091WAT     H236516   8.463   6.091   5.266
12092WAT      O36517   2.027   1.238   4.963
12092WAT     H136518   2.009   1.335   4.944
12092WAT     H236519   1.942   1.193   4.988
12093WAT      O36520   4.470   7.382   0.168
12093WAT     H136521   4.390   7.435   0.143
12093WAT     H236522   4.445   7.285   0.176
12094WAT      O36523   5.065   6.910   1.101
12094WAT     H136524   5.025   6.905   1.192
12094WAT     H236525   5.082   7.005   1.077
12095WAT      O36526   6.065   1.600   0.494
12095WAT     H136527   6.163   1.613   0.510
12095WAT     H236528   6.049   1.573   0.399
12096WAT      O36529   0.588   1.393   6.165
12096WAT     H136530   0.629   1.376   6.075
12096WAT     H236531   0.660   1.390   6.235
12097WAT      O36532   2.846   7.637   4.874
12097WAT     H136533   2.805   7.628   4.783
12097WAT     H236534   2.944   7.616   4.869
12098WAT      O36535   0.845   0.729   4.838
12098WAT     H136536   0.866   0.655   4.775
12098WAT     H236537   0.746   0.740   4.845
12099WAT      O36538   7.092   4.910   9.713
12099WAT     H136539   7.082   4.874   9.621
12099WAT     H236540   7.005   4.901   9.762
12100WAT      O36541   3.390   2.183   8.590
12100WAT     H136542   3.372   2.197   8.493
12100WAT     H236543   3.311   2.138   8.632
12101WAT      O36544   7.312   0.885   7.827
12101WAT     H136545   7.219   0.850   7.831
12101WAT     H236546   7.356   0.872   7.916
12102WAT      O36547   8.696   2.418   1.223
12102WAT     H136548   8.760   2.391   1.151
12102WAT     H236549   8.721   2.508   1.258
12103WAT      O36550   7.479   0.613   8.923
12103WAT     H136551   7.529   0.550   8.983
12103WAT     H236552   7.541   0.682   8.887
12104WAT      O36553   1.065   9.385   6.072
12104WAT     H136554   1.089   9.288   6.081
12104WAT     H236555   1.072   9.430   6.160
12105WAT      O36556   7.911   7.054   3.996
12105WAT     H136557   7.919   6.956   4.013
12105WAT     H236558   8.001   7.094   3.981
12106WAT      O36559   5.582   4.533   2.467
12106WAT     H136560   5.602   4.530   2.369
12106WAT     H236561   5.484   4.548   2.480
12107WAT      O36562   3.853   1.667   2.272
12107WAT     H136563   3.771   1.715   2.241
12107WAT     H236564   3.846   1.570   2.249
12108WAT      O36565   3.956   4.782   3.770
12108WAT     H136566   3.915   4.852   3.829
12108WAT     H236567   4.004   4.715   3.827
12109WAT      O36568   0.319   2.490   9.415
12109WAT     H136569   0.372   2.470   9.498
12109WAT     H236570   0.368   2.453   9.336
12110WAT      O36571   6.201   5.274   0.689
12110WAT     H136572   6.215   5.233   0.599
12110WAT     H236573   6.103   5.274   0.710
12111WAT      O36574   3.274   4.550   0.404
12111WAT     H136575   3.241   4.592   0.319
12111WAT     H236576   3.251   4.609   0.481
12112WAT      O36577   8.525   8.548   5.516
12112WAT     H136578   8.445   8.566   5.574
12112WAT     H236579   8.608   8.566   5.568
12113WAT      O36580   0.477   7.775   7.660
12113WAT     H136581   0.410   7.718   7.614
12113WAT     H236582   0.436   7.816   7.742
12114WAT      O36583   8.725   4.539   1.055
12114WAT     H136584   8.785   4.491   1.120
12114WAT     H236585   8.645   4.574   1.103
12115WAT      O36586   4.217   2.747   7.756
12115WAT     H136587   4.312   2.729   7.783
12115WAT     H236588   4.158   2.673   7.790
12116WAT      O36589   8.608   6.353   2.967
12116WAT     H136590   8.517   6.360   2.926
12116WAT     H236591   8.606   6.288   3.042
12117WAT      O36592   9.455   2.560   2.294
12117WAT     H136593   9.553   2.565   2.279
12117WAT     H236594   9.425   2.636   2.352
12118WAT      O36595   9.166   8.947   9.096
12118WAT     H136596   9.105   9.021   9.124
12118WAT     H236597   9.126   8.900   9.017
12119WAT      O36598   5.084   4.612   2.368
12119WAT     H136599   5.028   4.538   2.329
12119WAT     H236600   5.029   4.665   2.432
12120WAT      O36601   5.724   4.727   9.168
12120WAT     H136602   5.636   4.696   9.205
12120WAT     H236603   5.710   4.812   9.117
12121WAT      O36604   7.696   2.545   8.211
12121WAT     H136605   7.701   2.507   8.119
12121WAT     H236606   7.601   2.548   8.241
12122WAT      O36607   8.155   6.406   8.235
12122WAT     H136608   8.121   6.478   8.174
12122WAT     H236609   8.084   6.380   8.299
12123WAT      O36610   2.673   9.163   6.900
12123WAT     H136611   2.623   9.084   6.863
12123WAT     H236612   2.759   9.132   6.940
12124WAT      O36613   3.911   2.849   9.328
12124WAT     H136614   3.829   2.818   9.375
12124WAT     H236615   3.947   2.930   9.374
12125WAT      O36616   3.489   9.282   8.527
12125WAT     H136617   3.501   9.357   8.461
12125WAT     H236618   3.556   9.292   8.600
12126WAT      O36619   0.881   5.469   5.261
12126WAT     H136620   0.965   5.420   5.287
12126WAT     H236621   0.802   5.412   5.280
12127WAT      O36622   7.460   5.381   7.503
12127WAT     H136623   7.541   5.343   7.549
12127WAT     H236624   7.381   5.322   7.520
12128WAT      O36625   5.294   1.379   8.269
12128WAT     H136626   5.246   1.310   8.324
12128WAT     H236627   5.297   1.349   8.174
12129WAT      O36628   7.320   0.205   5.634
12129WAT     H136629   7.290   0.140   5.704
12129WAT     H236630   7.239   0.248   5.592
12130WAT      O36631   0.899   7.331   7.918
12130WAT     H136632   0.889   7.335   7.818
12130WAT     H236633   0.958   7.254   7.943
12131WAT      O36634   4.030   8.634   1.190
12131WAT     H136635   4.005   8.564   1.257
12131WAT     H236636   4.119   8.612   1.150
12132WAT      O36637   6.657   6.972   1.387
12132WAT     H136638   6.746   6.934   1.412
12132WAT     H236639   6.585   6.907   1.411
12133WAT      O36640   1.806   0.036   1.556
12133WAT     H136641   1.814   0.094   1.475
12133WAT     H236642   1.734   0.071   1.616
12134WAT      O36643   2.445   4.366   1.406
12134WAT     H136644   2.393   4.286   1.437
12134WAT     H236645   2.534   4.367   1.453
12135WAT      O36646   7.338   1.649   1.750
12135WAT     H136647   7.434   1.673   1.735
12135WAT     H236648   7.285   1.670   1.668
12136WAT      O36649   1.419   0.728   7.083
12136WAT     H136650   1.327   0.747   7.048
12136WAT     H236651   1.431   0.776   7.170
12137WAT      O36652   6.282   0.442   0.446
12137WAT     H136653   6.199   0.387   0.431
12137WAT     H236654   6.345   0.426   0.370
12138WAT      O36655   0.739   5.626   5.921
12138WAT     H136656   0.762   5.717   5.956
12138WAT     H236657   0.824   5.579   5.894
12139WAT      O36658   2.108   0.397   5.625
12139WAT     H136659   2.042   0.456   5.578
12139WAT     H236660   2.166   0.351   5.557
12140WAT      O36661   5.030   8.024   6.123
12140WAT     H136662   4.998   8.119   6.117
12140WAT     H236663   4.953   7.963   6.138
12141WAT      O36664   2.865   8.150   0.858
12141WAT     H136665   2.872   8.179   0.954
12141WAT     H236666   2.772   8.119   0.840
12142WAT      O36667   5.755   6.140   9.097
12142WAT     H136668   5.738   6.219   9.038
12142WAT     H236669   5.850   6.143   9.129
12143WAT      O36670   8.074   2.037   5.154
12143WAT     H136671   8.114   2.128   5.163
12143WAT     H236672   7.977   2.046   5.131
12144WAT      O36673   5.892   0.878   1.264
12144WAT     H136674   5.822   0.825   1.216
12144WAT     H236675   5.916   0.958   1.209
12145WAT      O36676   3.359   3.350   5.999
12145WAT     H136677   3.356   3.250   5.995
12145WAT     H236678   3.443   3.379   6.045
12146WAT      O36679   4.917   5.034   8.863
12146WAT     H136680   4.837   4.980   8.836
12146WAT     H236681   4.946   5.008   8.955
12147WAT      O36682   1.281   7.096   6.228
12147WAT     H136683   1.307   7.082   6.324
12147WAT     H236684   1.353   7.061   6.169
12148WAT      O36685   9.512   5.486   8.717
12148WAT     H136686   9.567   5.560   8.755
12148WAT     H236687   9.450   5.523   8.648
12149WAT      O36688   7.344   3.796   5.194
12149WAT     H136689   7.386   3.754   5.274
12149WAT     H236690   7.279   3.732   5.152
12150WAT      O36691   8.657   7.921   6.642
12150WAT     H136692   8.676   7.976   6.561
12150WAT     H236693   8.612   7.836   6.615
12151WAT      O36694   6.734   1.667   6.127
12151WAT     H136695   6.757   1.715   6.043
12151WAT     H236696   6.681   1.727   6.186
12152WAT      O36697   4.339   7.869   1.034
12152WAT     H136698   4.298   7.902   1.118
12152WAT     H236699   4.306   7.777   1.015
12153WAT      O36700   2.871   0.572   4.452
12153WAT     H136701   2.952   0.628   4.434
12153WAT     H236702   2.853   0.513   4.373
12154WAT      O36703   7.177   4.263   7.712
12154WAT     H136704   7.164   4.204   7.792
12154WAT     H236705   7.157   4.357   7.736
12155WAT      O36706   4.498   1.764   0.583
12155WAT     H136707   4.568   1.751   0.513
12155WAT     H236708   4.485   1.862   0.598
12156WAT      O36709   5.495   3.527   2.877
12156WAT     H136710   5.567   3.473   2.921
12156WAT     H236711   5.526   3.553   2.785
12157WAT      O36712   1.473   5.913   2.160
12157WAT     H136713   1.553   5.940   2.108
12157WAT     H236714   1.478   5.815   2.181
12158WAT      O36715   2.486   7.670   4.762
12158WAT     H136716   2.569   7.706   4.719
12158WAT     H236717   2.449   7.595   4.708
12159WAT      O36718   1.143   6.019   1.748
12159WAT     H136719   1.220   6.001   1.809
12159WAT     H236720   1.057   6.006   1.797
12160WAT      O36721   6.881   8.030   9.071
12160WAT     H136722   6.868   7.939   9.032
12160WAT     H236723   6.888   8.024   9.170
12161WAT      O36724   5.930   5.728   8.397
12161WAT     H136725   6.018   5.697   8.363
12161WAT     H236726   5.857   5.687   8.343
12162WAT      O36727   4.193   1.260   1.483
12162WAT     H136728   4.138   1.221   1.410
12162WAT     H236729   4.134   1.282   1.561
12163WAT      O36730   0.145   3.925   0.757
12163WAT     H136731   0.191   3.837   0.749
12163WAT     H236732   0.212   3.997   0.775
12164WAT      O36733   7.689   0.782   6.742
12164WAT     H136734   7.772   0.835   6.723
12164WAT     H236735   7.640   0.765   6.656
12165WAT      O36736   1.194   1.802   3.758
12165WAT     H136737   1.287   1.811   3.723
12165WAT     H236738   1.197   1.770   3.853
12166WAT      O36739   6.246   4.763   8.621
12166WAT     H136740   6.320   4.698   8.604
12166WAT     H236741   6.273   4.827   8.693
12167WAT      O36742   4.694   1.516   0.266
12167WAT     H136743   4.674   1.452   0.339
12167WAT     H236744   4.632   1.500   0.189
12168WAT      O36745   9.044   8.852   8.847
12168WAT     H136746   8.967   8.906   8.811
12168WAT     H236747   9.128   8.878   8.798
12169WAT      O36748   4.482   6.594   7.260
12169WAT     H136749   4.500   6.502   7.224
12169WAT     H236750   4.421   6.642   7.197
12170WAT      O36751   1.779   9.283   3.788
12170WAT     H136752   1.736   9.358   3.737
12170WAT     H236753   1.775   9.199   3.734
12171WAT      O36754   7.439   4.611   1.821
12171WAT     H136755   7.359   4.653   1.863
12171WAT     H236756   7.435   4.512   1.832
12172WAT      O36757   9.670   3.326   0.008
12172WAT     H136758   9.624   3.380  -0.062
12172WAT     H236759   9.602   3.276   0.061
12173WAT      O36760   0.207   6.756   0.558
12173WAT     H136761   0.219   6.832   0.493
12173WAT     H236762   0.130   6.776   0.619
12174WAT      O36763   3.707   2.592   9.835
12174WAT     H136764   3.640   2.521   9.857
12174WAT     H236765   3.762   2.612   9.916
12175WAT      O36766   1.573   8.715   0.847
12175WAT     H136767   1.499   8.664   0.803
12175WAT     H236768   1.554   8.813   0.840
12176WAT      O36769   4.124   5.096   2.393
12176WAT     H136770   4.197   5.163   2.412
12176WAT     H236771   4.046   5.144   2.353
12177WAT      O36772   4.231   8.953   1.433
12177WAT     H136773   4.145   8.972   1.385
12177WAT     H236774   4.284   9.038   1.441
12178WAT      O36775   3.235   2.242   3.487
12178WAT     H136776   3.159   2.179   3.473
12178WAT     H236777   3.319   2.191   3.501
12179WAT      O36778   6.881   4.947   6.739
12179WAT     H136779   6.888   5.036   6.783
12179WAT     H236780   6.854   4.878   6.806
12180WAT      O36781   9.315   0.771   1.910
12180WAT     H136782   9.397   0.728   1.871
12180WAT     H236783   9.247   0.700   1.930
12181WAT      O36784   7.763   7.517   2.056
12181WAT     H136785   7.857   7.502   2.026
12181WAT     H236786   7.709   7.553   1.980
12182WAT      O36787   8.312   4.150   6.954
12182WAT     H136788   8.355   4.132   7.042
12182WAT     H236789   8.289   4.064   6.909
12183WAT      O36790   4.458   8.540   2.161
12183WAT     H136791   4.524   8.592   2.107
12183WAT     H236792   4.505   8.496   2.238
12184WAT      O36793   2.061   8.290   1.391
12184WAT     H136794   2.161   8.297   1.388
12184WAT     H236795   2.034   8.194   1.400
12185WAT      O36796   5.779   5.835   7.884
12185WAT     H136797   5.684   5.860   7.901
12185WAT     H236798   5.785   5.778   7.802
12186WAT      O36799   2.419   2.154   2.225
12186WAT     H136800   2.342   2.102   2.188
12186WAT     H236801   2.386   2.238   2.268
12187WAT      O36802   6.916   1.969   6.614
12187WAT     H136803   6.933   1.870   6.613
12187WAT     H236804   6.884   1.996   6.705
12188WAT      O36805   7.414   8.270   2.392
12188WAT     H136806   7.374   8.180   2.409
12188WAT     H236807   7.491   8.261   2.329
12189WAT      O36808   5.419   7.110   6.133
12189WAT     H136809   5.337   7.164   6.115
12189WAT     H236810   5.499   7.169   6.135
12190WAT      O36811   9.852   6.018   1.551
12190WAT     H136812   9.867   5.989   1.645
12190WAT     H236813   9.796   5.950   1.503
12191WAT      O36814   5.272   0.995   0.666
12191WAT     H136815   5.235   1.031   0.752
12191WAT     H236816   5.360   0.950   0.683
12192WAT      O36817   9.827   1.043   4.526
12192WAT     H136818   9.845   1.068   4.431
12192WAT     H236819   9.837   1.124   4.584
12193WAT      O36820   9.234   6.932   3.564
12193WAT     H136821   9.201   7.017   3.523
12193WAT     H236822   9.159   6.886   3.610
12194WAT      O36823   4.712   2.053   1.654
12194WAT     H136824   4.695   1.972   1.598
12194WAT     H236825   4.718   2.026   1.750
12195WAT      O36826   5.049   3.164   7.686
12195WAT     H136827   5.075   3.090   7.624
12195WAT     H236828   5.086   3.145   7.777
12196WAT      O36829   0.563   6.533   6.178
12196WAT     H136830   0.660   6.534   6.155
12196WAT     H236831   0.532   6.625   6.200
12197WAT      O36832   7.772   1.123   7.797
12197WAT     H136833   7.711   1.097   7.872
12197WAT     H236834   7.717   1.152   7.718
12198WAT      O36835   3.962   4.976   9.175
12198WAT     H136836   3.880   4.947   9.224
12198WAT     H236837   3.952   4.955   9.077
12199WAT      O36838   7.973   0.485   5.065
12199WAT     H136839   7.893   0.456   5.013
12199WAT     H236840   8.010   0.569   5.025
12200WAT      O36841   0.543   7.808   8.740
12200WAT     H136842   0.456   7.785   8.696
12200WAT     H236843   0.575   7.896   8.705
12201WAT      O36844   2.994   2.846   2.718
12201WAT     H136845   3.014   2.779   2.789
12201WAT     H236846   2.913   2.818   2.667
12202WAT      O36847   1.728   1.898   3.086
12202WAT     H136848   1.640   1.937   3.058
12202WAT     H236849   1.713   1.806   3.123
12203WAT      O36850   2.236   4.794   6.764
12203WAT     H136851   2.137   4.788   6.768
12203WAT     H236852   2.272   4.815   6.855
12204WAT      O36853   3.475   7.093   7.766
12204WAT     H136854   3.430   7.126   7.849
12204WAT     H236855   3.442   7.146   7.687
12205WAT      O36856   7.530   9.010   4.009
12205WAT     H136857   7.501   8.931   4.063
12205WAT     H236858   7.572   9.077   4.070
12206WAT      O36859   2.498   4.595   6.404
12206WAT     H136860   2.554   4.633   6.330
12206WAT     H236861   2.437   4.526   6.367
12207WAT      O36862   5.147   1.226   7.107
12207WAT     H136863   5.068   1.165   7.111
12207WAT     H236864   5.165   1.264   7.198
12208WAT      O36865   3.937   7.009   1.284
12208WAT     H136866   3.848   6.971   1.311
12208WAT     H236867   3.924   7.100   1.246
12209WAT      O36868   3.861   2.230   1.016
12209WAT     H136869   3.928   2.221   1.089
12209WAT     H236870   3.805   2.147   1.011
12210WAT      O36871   5.863   7.847   1.282
12210WAT     H136872   5.792   7.857   1.351
12210WAT     H236873   5.865   7.752   1.249
12211WAT      O36874   2.388   6.955   1.103
12211WAT     H136875   2.432   6.873   1.065
12211WAT     H236876   2.312   6.927   1.161
12212WAT      O36877   3.507   2.500   4.911
12212WAT     H136878   3.535   2.587   4.871
12212WAT     H236879   3.511   2.429   4.841
12213WAT      O36880   4.408   9.165   2.340
12213WAT     H136881   4.346   9.204   2.271
12213WAT     H236882   4.407   9.065   2.332
12214WAT      O36883   7.548   6.075   5.588
12214WAT     H136884   7.546   6.125   5.675
12214WAT     H236885   7.550   5.977   5.605
12215WAT      O36886   5.683   8.942   3.823
12215WAT     H136887   5.704   8.907   3.731
12215WAT     H236888   5.668   8.865   3.885
12216WAT      O36889   2.115   5.403   5.618
12216WAT     H136890   2.165   5.319   5.598
12216WAT     H236891   2.160   5.480   5.572
12217WAT      O36892   1.831   6.110   9.564
12217WAT     H136893   1.874   6.116   9.654
12217WAT     H236894   1.810   6.202   9.531
12218WAT      O36895   3.457   9.245   0.583
12218WAT     H136896   3.427   9.176   0.518
12218WAT     H236897   3.405   9.330   0.568
12219WAT      O36898   4.159   3.379   1.380
12219WAT     H136899   4.197   3.372   1.288
12219WAT     H236900   4.231   3.407   1.444
12220WAT      O36901   8.906   8.631   8.834
12220WAT     H136902   8.972   8.704   8.853
12220WAT     H236903   8.831   8.668   8.779
12221WAT      O36904   3.105   6.979   8.736
12221WAT     H136905   3.153   7.018   8.815
12221WAT     H236906   3.172   6.951   8.667
12222WAT      O36907   1.091   3.667   8.118
12222WAT     H136908   1.077   3.599   8.046
12222WAT     H236909   1.108   3.756   8.077
12223WAT      O36910   9.347   3.835   6.031
12223WAT     H136911   9.398   3.846   5.945
12223WAT     H236912   9.270   3.774   6.016
12224WAT      O36913   0.940   6.765   2.028
12224WAT     H136914   0.941   6.668   2.051
12224WAT     H236915   1.017   6.785   1.967
12225WAT      O36916   3.413   4.451   8.130
12225WAT     H136917   3.474   4.377   8.157
12225WAT     H236918   3.412   4.459   8.031
12226WAT      O36919   6.501   8.984   9.529
12226WAT     H136920   6.486   8.885   9.520
12226WAT     H236921   6.471   9.015   9.619
12227WAT      O36922   5.716   4.796   6.810
12227WAT     H136923   5.711   4.698   6.827
12227WAT     H236924   5.804   4.831   6.843
12228WAT      O36925   0.557   7.022   0.026
12228WAT     H136926   0.573   7.120   0.040
12228WAT     H236927   0.591   6.995  -0.065
12229WAT      O36928   3.838   4.527   1.607
12229WAT     H136929   3.776   4.547   1.531
12229WAT     H236930   3.869   4.612   1.648
12230WAT      O36931   1.757   5.669   9.340
12230WAT     H136932   1.798   5.760   9.350
12230WAT     H236933   1.824   5.607   9.298
12231WAT      O36934   9.856   4.086   6.287
12231WAT     H136935   9.848   4.074   6.386
12231WAT     H236936   9.788   4.029   6.241
12232WAT      O36937   5.200   8.700   7.612
12232WAT     H136938   5.262   8.652   7.551
12232WAT     H236939   5.127   8.638   7.641
12233WAT      O36940   5.448   7.648   4.418
12233WAT     H136941   5.435   7.549   4.413
12233WAT     H236942   5.370   7.694   4.376
12234WAT      O36943   0.653   1.074   0.292
12234WAT     H136944   0.659   1.165   0.333
12234WAT     H236945   0.717   1.012   0.337
12235WAT      O36946   7.738   3.271   4.129
12235WAT     H136947   7.659   3.301   4.076
12235WAT     H236948   7.814   3.250   4.067
12236WAT      O36949   6.729   3.396   8.390
12236WAT     H136950   6.639   3.357   8.411
12236WAT     H236951   6.725   3.443   8.302
12237WAT      O36952   0.646   2.413   5.481
12237WAT     H136953   0.684   2.486   5.538
12237WAT     H236954   0.552   2.394   5.508
12238WAT      O36955   7.488   1.347   7.916
12238WAT     H136956   7.487   1.275   7.847
12238WAT     H236957   7.510   1.307   8.005
12239WAT      O36958   8.278   1.975   2.604
12239WAT     H136959   8.294   1.876   2.599
12239WAT     H236960   8.180   1.993   2.610
12240WAT      O36961   2.616   7.745   8.545
12240WAT     H136962   2.658   7.697   8.623
12240WAT     H236963   2.686   7.763   8.476
12241WAT      O36964   4.651   0.447   5.579
12241WAT     H136965   4.585   0.422   5.650
12241WAT     H236966   4.603   0.458   5.492
12242WAT      O36967   7.523   9.183   0.857
12242WAT     H136968   7.466   9.103   0.875
12242WAT     H236969   7.506   9.215   0.764
12243WAT      O36970   2.539   1.856   7.707
12243WAT     H136971   2.447   1.879   7.739
12243WAT     H236972   2.536   1.769   7.657
12244WAT      O36973   2.727   8.100   9.838
12244WAT     H136974   2.797   8.128   9.904
12244WAT     H236975   2.638   8.096   9.885
12245WAT      O36976   7.358   5.201   9.828
12245WAT     H136977   7.366   5.106   9.797
12245WAT     H236978   7.354   5.203   9.928
12246WAT      O36979   5.869   9.447   0.700
12246WAT     H136980   5.942   9.513   0.719
12246WAT     H236981   5.862   9.382   0.775
12247WAT      O36982   2.120   7.760   2.074
12247WAT     H136983   2.154   7.667   2.071
12247WAT     H236984   2.165   7.815   2.004
12248WAT      O36985   1.701   8.772   8.703
12248WAT     H136986   1.627   8.837   8.722
12248WAT     H236987   1.706   8.756   8.604
12249WAT      O36988   7.784   9.736   0.882
12249WAT     H136989   7.845   9.815   0.874
12249WAT     H236990   7.689   9.767   0.880
12250WAT      O36991   7.768   0.022   6.716
12250WAT     H136992   7.690   0.039   6.656
12250WAT     H236993   7.753  -0.063   6.766
12251WAT      O36994   6.565   2.975   9.400
12251WAT     H136995   6.551   2.957   9.498
12251WAT     H236996   6.628   2.908   9.363
12252WAT      O36997   7.787   2.442   6.833
12252WAT     H136998   7.809   2.369   6.897
12252WAT     H236999   7.688   2.442   6.815
12253WAT      O37000   3.660   2.052   3.769
12253WAT     H137001   3.740   2.006   3.809
12253WAT     H237002   3.577   2.013   3.807
12254WAT      O37003   6.982   8.684   7.073
12254WAT     H137004   7.035   8.723   6.997
12254WAT     H237005   6.992   8.743   7.153
12255WAT      O37006   8.356   6.601   9.679
12255WAT     H137007   8.275   6.615   9.737
12255WAT     H237008   8.347   6.657   9.596
12256WAT      O37009   7.509   0.001   0.822
12256WAT     H137010   7.430   0.039   0.870
12256WAT     H237011   7.490  -0.004   0.724
12257WAT      O37012   1.324   5.702   7.582
12257WAT     H137013   1.342   5.605   7.569
12257WAT     H237014   1.226   5.719   7.571
12258WAT      O37015   8.299   2.593   8.204
12258WAT     H137016   8.348   2.558   8.124
12258WAT     H237017   8.283   2.519   8.269
12259WAT      O37018   0.058   8.849   1.748
12259WAT     H137019   0.116   8.885   1.675
12259WAT     H237020   0.081   8.893   1.834
12260WAT      O37021   9.217   2.174   8.251
12260WAT     H137022   9.122   2.203   8.259
12260WAT     H237023   9.234   2.139   8.159
12261WAT      O37024   9.844   0.751   8.958
12261WAT     H137025   9.780   0.787   9.026
12261WAT     H237026   9.877   0.825   8.900
12262WAT      O37027   9.670   1.336   2.670
12262WAT     H137028   9.752   1.373   2.627
12262WAT     H237029   9.613   1.293   2.600
12263WAT      O37030   9.292   1.531   4.369
12263WAT     H137031   9.283   1.630   4.365
12263WAT     H237032   9.212   1.491   4.414
12264WAT      O37033   0.340   5.467   1.353
12264WAT     H137034   0.359   5.493   1.448
12264WAT     H237035   0.244   5.486   1.333
12265WAT      O37036   0.719   1.823   4.280
12265WAT     H137037   0.742   1.726   4.286
12265WAT     H237038   0.711   1.850   4.184
12266WAT      O37039   3.322   0.099   0.194
12266WAT     H137040   3.365   0.118   0.282
12266WAT     H237041   3.386   0.053   0.134
12267WAT      O37042   1.002   2.890   6.673
12267WAT     H137043   1.087   2.886   6.620
12267WAT     H237044   0.924   2.890   6.611
12268WAT      O37045   8.201   4.920   7.061
12268WAT     H137046   8.251   4.992   7.110
12268WAT     H237047   8.265   4.850   7.030
12269WAT      O37048   8.727   9.776   5.333
12269WAT     H137049   8.708   9.827   5.417
12269WAT     H237050   8.642   9.766   5.281
12270WAT      O37051   4.600   3.878   2.896
12270WAT     H137052   4.519   3.932   2.916
12270WAT     H237053   4.660   3.929   2.835
12271WAT      O37054   7.754   3.856   2.130
12271WAT     H137055   7.775   3.927   2.197
12271WAT     H237056   7.754   3.896   2.038
12272WAT      O37057   4.478   7.813   6.667
12272WAT     H137058   4.414   7.813   6.743
12272WAT     H237059   4.445   7.749   6.596
12273WAT      O37060   0.095   3.313   1.193
12273WAT     H137061   0.007   3.265   1.183
12273WAT     H237062   0.169   3.251   1.170
12274WAT      O37063   3.793   8.407   4.771
12274WAT     H137064   3.863   8.366   4.713
12274WAT     H237065   3.828   8.419   4.864
12275WAT      O37066   1.525   2.189   0.005
12275WAT     H137067   1.480   2.209   0.091
12275WAT     H237068   1.614   2.235   0.003
12276WAT      O37069   0.116   4.151   6.836
12276WAT     H137070   0.139   4.248   6.827
12276WAT     H237071   0.042   4.140   6.903
12277WAT      O37072   0.942   3.732   4.539
12277WAT     H137073   0.893   3.653   4.503
12277WAT     H237074   0.904   3.759   4.628
12278WAT      O37075   4.625   8.299   0.499
12278WAT     H137076   4.548   8.298   0.562
12278WAT     H237077   4.643   8.207   0.465
12279WAT      O37078   8.087   7.331   8.250
12279WAT     H137079   8.128   7.244   8.278
12279WAT     H237080   8.108   7.401   8.318
12280WAT      O37081   8.586   8.616   9.476
12280WAT     H137082   8.546   8.646   9.562
12280WAT     H237083   8.535   8.657   9.399
12281WAT      O37084   5.841   4.640   3.573
12281WAT     H137085   5.743   4.622   3.588
12281WAT     H237086   5.888   4.642   3.661
12282WAT      O37087   2.437   1.740   2.928
12282WAT     H137088   2.517   1.723   2.986
12282WAT     H237089   2.353   1.723   2.980
12283WAT      O37090   4.545   7.651   3.767
12283WAT     H137091   4.461   7.616   3.724
12283WAT     H237092   4.529   7.665   3.864
12284WAT      O37093   1.431   9.712   0.482
12284WAT     H137094   1.365   9.640   0.500
12284WAT     H237095   1.505   9.677   0.424
12285WAT      O37096   4.638   3.612   7.102
12285WAT     H137097   4.555   3.648   7.059
12285WAT     H237098   4.656   3.661   7.187
12286WAT      O37099   4.589   1.819   5.658
12286WAT     H137100   4.526   1.742   5.648
12286WAT     H237101   4.537   1.904   5.670
12287WAT      O37102   0.083   5.238   8.297
12287WAT     H137103   0.159   5.180   8.326
12287WAT     H237104   0.072   5.230   8.197
12288WAT      O37105   0.242   1.948   5.740
12288WAT     H137106   0.260   2.013   5.814
12288WAT     H237107   0.190   1.994   5.667
12289WAT      O37108   3.710   4.039   8.311
12289WAT     H137109   3.672   3.947   8.314
12289WAT     H237110   3.724   4.073   8.404
12290WAT      O37111   2.609   4.412   4.943
12290WAT     H137112   2.537   4.361   4.989
12290WAT     H237113   2.698   4.386   4.980
12291WAT      O37114   4.838   1.928   5.116
12291WAT     H137115   4.771   1.873   5.067
12291WAT     H237116   4.794   1.977   5.191
12292WAT      O37117   1.555   8.323   7.892
12292WAT     H137118   1.553   8.391   7.965
12292WAT     H237119   1.524   8.363   7.807
12293WAT      O37120   9.199   5.495   1.648
12293WAT     H137121   9.189   5.593   1.631
12293WAT     H237122   9.243   5.480   1.736
12294WAT      O37123   8.370   4.642   0.205
12294WAT     H137124   8.349   4.559   0.258
12294WAT     H237125   8.339   4.722   0.256
12295WAT      O37126   9.112   0.600   3.365
12295WAT     H137127   9.178   0.590   3.291
12295WAT     H237128   9.160   0.628   3.448
12296WAT      O37129   5.809   7.897   5.846
12296WAT     H137130   5.794   7.972   5.782
12296WAT     H237131   5.862   7.825   5.800
12297WAT      O37132   3.588   0.513   2.132
12297WAT     H137133   3.677   0.554   2.152
12297WAT     H237134   3.549   0.557   2.052
12298WAT      O37135   7.352   9.509   1.606
12298WAT     H137136   7.372   9.464   1.518
12298WAT     H237137   7.369   9.607   1.597
12299WAT      O37138   2.702   5.121   6.702
12299WAT     H137139   2.670   5.105   6.795
12299WAT     H237140   2.721   5.218   6.689
12300WAT      O37141   5.667   4.255   2.204
12300WAT     H137142   5.659   4.187   2.277
12300WAT     H237143   5.762   4.264   2.176
12301WAT      O37144   0.531   7.475   4.257
12301WAT     H137145   0.543   7.501   4.352
12301WAT     H237146   0.547   7.555   4.199
12302WAT      O37147   8.106   2.964   6.838
12302WAT     H137148   8.091   3.044   6.896
12302WAT     H237149   8.032   2.957   6.771
12303WAT      O37150   0.103   6.068   0.817
12303WAT     H137151   0.172   6.112   0.875
12303WAT     H237152   0.136   6.064   0.723
12304WAT      O37153   6.609   8.704   3.224
12304WAT     H137154   6.587   8.726   3.129
12304WAT     H237155   6.525   8.703   3.278
12305WAT      O37156   0.545   7.490   2.822
12305WAT     H137157   0.623   7.552   2.814
12305WAT     H237158   0.493   7.492   2.736
12306WAT      O37159   1.213   0.224   3.784
12306WAT     H137160   1.268   0.183   3.857
12306WAT     H237161   1.117   0.201   3.798
12307WAT      O37162   7.554   9.398   1.765
12307WAT     H137163   7.562   9.299   1.779
12307WAT     H237164   7.477   9.417   1.705
12308WAT      O37165   4.950   2.068   5.898
12308WAT     H137166   4.914   2.047   5.989
12308WAT     H237167   5.036   2.020   5.883
12309WAT      O37168   5.716   5.636   6.801
12309WAT     H137169   5.790   5.595   6.747
12309WAT     H237170   5.628   5.605   6.766
12310WAT      O37171   6.629   0.368   9.449
12310WAT     H137172   6.677   0.317   9.377
12310WAT     H237173   6.562   0.430   9.407
12311WAT      O37174   9.372   0.583   9.713
12311WAT     H137175   9.460   0.596   9.668
12311WAT     H237176   9.371   0.494   9.759
12312WAT      O37177   4.247   2.698   3.361
12312WAT     H137178   4.330   2.722   3.411
12312WAT     H237179   4.229   2.768   3.292
12313WAT      O37180   8.433   7.227   8.615
12313WAT     H137181   8.397   7.133   8.617
12313WAT     H237182   8.415   7.271   8.703
12314WAT      O37183   8.982   6.940   6.708
12314WAT     H137184   9.003   6.926   6.805
12314WAT     H237185   9.046   6.887   6.653
12315WAT      O37186   9.355   2.243   4.568
12315WAT     H137187   9.375   2.268   4.663
12315WAT     H237188   9.283   2.174   4.567
12316WAT      O37189   6.338   2.327   0.438
12316WAT     H137190   6.305   2.286   0.353
12316WAT     H237191   6.298   2.278   0.516
12317WAT      O37192   5.628   7.663   7.552
12317WAT     H137193   5.667   7.697   7.466
12317WAT     H237194   5.575   7.736   7.595
12318WAT      O37195   9.159   3.717   1.439
12318WAT     H137196   9.181   3.656   1.363
12318WAT     H237197   9.090   3.673   1.497
12319WAT      O37198   9.034   6.779   9.363
12319WAT     H137199   8.972   6.857   9.365
12319WAT     H237200   9.119   6.805   9.318
12320WAT      O37201   5.753   9.300   9.806
12320WAT     H137202   5.804   9.289   9.721
12320WAT     H237203   5.750   9.397   9.831
12321WAT      O37204   1.403   6.843   5.943
12321WAT     H137205   1.435   6.874   6.032
12321WAT     H237206   1.386   6.922   5.884
12322WAT      O37207   4.989   7.867   0.402
12322WAT     H137208   4.967   7.805   0.477
12322WAT     H237209   5.062   7.929   0.430
12323WAT      O37210   6.154   4.913   2.363
12323WAT     H137211   6.091   4.912   2.286
12323WAT     H237212   6.130   4.840   2.427
12324WAT      O37213   7.960   3.629   4.349
12324WAT     H137214   7.986   3.642   4.253
12324WAT     H237215   7.921   3.714   4.384
12325WAT      O37216   8.940   2.926   6.410
12325WAT     H137217   9.028   2.907   6.369
12325WAT     H237218   8.867   2.901   6.347
12326WAT      O37219   5.626   7.403   9.602
12326WAT     H137220   5.709   7.377   9.554
12326WAT     H237221   5.641   7.488   9.652
12327WAT      O37222   5.621   3.627   9.231
12327WAT     H137223   5.539   3.632   9.288
12327WAT     H237224   5.688   3.693   9.264
12328WAT      O37225   2.598   4.859   3.900
12328WAT     H137226   2.568   4.949   3.931
12328WAT     H237227   2.630   4.806   3.978
12329WAT      O37228   6.561   3.884   0.796
12329WAT     H137229   6.558   3.947   0.873
12329WAT     H237230   6.519   3.797   0.822
12330WAT      O37231   1.989   2.803   9.606
12330WAT     H137232   1.971   2.895   9.641
12330WAT     H237233   1.921   2.780   9.536
12331WAT      O37234   6.607   6.072   7.128
12331WAT     H137235   6.599   6.172   7.133
12331WAT     H237236   6.615   6.044   7.033
12332WAT      O37237   3.563   5.101   9.084
12332WAT     H137238   3.573   5.102   8.984
12332WAT     H237239   3.468   5.080   9.107
12333WAT      O37240   0.041   0.631   3.646
12333WAT     H137241  -0.044   0.664   3.687
12333WAT     H237242   0.089   0.708   3.604
12334WAT      O37243   6.984   2.345   6.911
12334WAT     H137244   6.974   2.275   6.982
12334WAT     H237245   6.908   2.410   6.918
12335WAT      O37246   8.926   9.644   3.022
12335WAT     H137247   8.882   9.727   2.987
12335WAT     H237248   9.019   9.665   3.052
12336WAT      O37249   4.110   2.973   5.046
12336WAT     H137250   4.105   3.069   5.020
12336WAT     H237251   4.200   2.954   5.085
12337WAT      O37252   0.193   0.888   8.104
12337WAT     H137253   0.169   0.834   8.023
12337WAT     H237254   0.140   0.973   8.103
12338WAT      O37255   7.294   5.697   4.075
12338WAT     H137256   7.291   5.702   4.175
12338WAT     H237257   7.245   5.775   4.036
12339WAT      O37258   5.201   3.956   5.590
12339WAT     H137259   5.289   3.953   5.545
12339WAT     H237260   5.192   3.876   5.651
12340WAT      O37261   5.916   4.227   4.666
12340WAT     H137262   5.841   4.269   4.718
12340WAT     H237263   5.881   4.144   4.621
12341WAT      O37264   3.615   0.583   0.127
12341WAT     H137265   3.597   0.682   0.125
12341WAT     H237266   3.530   0.535   0.147
12342WAT      O37267   5.837   7.669   2.660
12342WAT     H137268   5.749   7.686   2.617
12342WAT     H237269   5.881   7.755   2.683
12343WAT      O37270   8.626   0.476   7.318
12343WAT     H137271   8.595   0.508   7.408
12343WAT     H237272   8.628   0.553   7.254
12344WAT      O37273   8.118   5.090   1.326
12344WAT     H137274   8.146   5.156   1.396
12344WAT     H237275   8.068   5.137   1.253
12345WAT      O37276   2.808   0.328   8.266
12345WAT     H137277   2.886   0.349   8.207
12345WAT     H237278   2.810   0.230   8.288
12346WAT      O37279   3.808   8.916   4.255
12346WAT     H137280   3.756   8.904   4.340
12346WAT     H237281   3.894   8.866   4.262
12347WAT      O37282   8.744   2.195   2.773
12347WAT     H137283   8.660   2.143   2.788
12347WAT     H237284   8.796   2.200   2.858
12348WAT      O37285   3.695   3.547   1.258
12348WAT     H137286   3.648   3.615   1.315
12348WAT     H237287   3.793   3.554   1.272
12349WAT      O37288   0.278   3.730   5.307
12349WAT     H137289   0.201   3.763   5.251
12349WAT     H237290   0.321   3.808   5.353
12350WAT      O37291   9.294   9.764   1.149
12350WAT     H137292   9.286   9.851   1.102
12350WAT     H237293   9.349   9.701   1.093
12351WAT      O37294   5.185   7.471   1.188
12351WAT     H137295   5.190   7.428   1.278
12351WAT     H237296   5.258   7.539   1.180
12352WAT      O37297   1.690   7.953   5.996
12352WAT     H137298   1.619   7.903   6.044
12352WAT     H237299   1.660   8.046   5.978
12353WAT      O37300   3.544   4.913   7.117
12353WAT     H137301   3.477   4.870   7.177
12353WAT     H237302   3.542   4.870   7.028
12354WAT      O37303   7.064   3.360   4.628
12354WAT     H137304   7.077   3.325   4.721
12354WAT     H237305   7.018   3.448   4.632
12355WAT      O37306   0.243   5.214   1.441
12355WAT     H137307   0.257   5.305   1.402
12355WAT     H237308   0.268   5.215   1.538
12356WAT      O37309  -0.002   2.156   5.924
12356WAT     H137310  -0.018   2.192   5.832
12356WAT     H237311   0.095   2.133   5.934
12357WAT      O37312   6.689   1.016   0.147
12357WAT     H137313   6.739   0.956   0.085
12357WAT     H237314   6.624   1.072   0.094
12358WAT      O37315   4.298   3.735   3.795
12358WAT     H137316   4.266   3.670   3.726
12358WAT     H237317   4.388   3.769   3.770
12359WAT      O37318   3.700   9.439   6.679
12359WAT     H137319   3.657   9.472   6.763
12359WAT     H237320   3.629   9.415   6.612
12360WAT      O37321   4.683   2.857   1.999
12360WAT     H137322   4.584   2.860   1.984
12360WAT     H237323   4.702   2.819   2.089
12361WAT      O37324   0.416   5.212   2.442
12361WAT     H137325   0.511   5.192   2.462
12361WAT     H237326   0.410   5.300   2.395
12362WAT      O37327   5.223   6.887   2.564
12362WAT     H137328   5.181   6.799   2.543
12362WAT     H237329   5.177   6.959   2.512
12363WAT      O37330   6.367   1.361   0.125
12363WAT     H137331   6.349   1.375   0.222
12363WAT     H237332   6.380   1.450   0.080
12364WAT      O37333   3.807   8.384   7.539
12364WAT     H137334   3.724   8.440   7.542
12364WAT     H237335   3.869   8.422   7.470
12365WAT      O37336   2.207   5.223   9.800
12365WAT     H137337   2.289   5.277   9.818
12365WAT     H237338   2.214   5.135   9.848
12366WAT      O37339   7.787   0.522   5.308
12366WAT     H137340   7.702   0.542   5.259
12366WAT     H237341   7.848   0.469   5.249
12367WAT      O37342   6.185   5.462   0.080
12367WAT     H137343   6.133   5.399   0.138
12367WAT     H237344   6.132   5.546   0.067
12368WAT      O37345   1.314   3.978   2.231
12368WAT     H137346   1.358   3.915   2.167
12368WAT     H237347   1.238   3.933   2.277
12369WAT      O37348   7.226   8.813   8.607
12369WAT     H137349   7.283   8.737   8.577
12369WAT     H237350   7.189   8.861   8.528
12370WAT      O37351   1.731   4.704   7.503
12370WAT     H137352   1.728   4.776   7.435
12370WAT     H237353   1.678   4.731   7.583
12371WAT      O37354   8.057   0.221   0.534
12371WAT     H137355   8.054   0.294   0.466
12371WAT     H237356   8.114   0.146   0.500
12372WAT      O37357   4.846   1.595   0.897
12372WAT     H137358   4.753   1.626   0.874
12372WAT     H237359   4.844   1.498   0.918
12373WAT      O37360   0.935   7.275   3.918
12373WAT     H137361   0.847   7.313   3.890
12373WAT     H237362   1.002   7.290   3.844
12374WAT      O37363   2.185   0.306   9.120
12374WAT     H137364   2.276   0.314   9.161
12374WAT     H237365   2.116   0.297   9.192
12375WAT      O37366   3.951   1.903   1.365
12375WAT     H137367   3.880   1.958   1.321
12375WAT     H237368   3.948   1.810   1.328
12376WAT      O37369   8.418   2.809   3.511
12376WAT     H137370   8.496   2.747   3.514
12376WAT     H237371   8.361   2.788   3.432
12377WAT      O37372   7.393   9.567   0.791
12377WAT     H137373   7.337   9.489   0.762
12377WAT     H237374   7.348   9.613   0.867
12378WAT      O37375   5.395   4.485   0.315
12378WAT     H137376   5.487   4.501   0.350
12378WAT     H237377   5.398   4.413   0.246
12379WAT      O37378   0.468   8.167   6.015
12379WAT     H137379   0.402   8.130   6.081
12379WAT     H237380   0.559   8.169   6.056
12380WAT      O37381   6.051   7.489   4.070
12380WAT     H137382   6.130   7.467   4.014
12380WAT     H237383   6.058   7.442   4.158
12381WAT      O37384   4.044   8.298   4.651
12381WAT     H137385   4.105   8.339   4.718
12381WAT     H237386   4.058   8.340   4.562
12382WAT      O37387   0.714   3.870   6.303
12382WAT     H137388   0.690   3.933   6.229
12382WAT     H237389   0.688   3.777   6.278
12383WAT      O37390   8.494   5.980   4.352
12383WAT     H137391   8.514   6.002   4.257
12383WAT     H237392   8.560   5.913   4.385
12384WAT      O37393   2.393   3.697   6.748
12384WAT     H137394   2.393   3.605   6.710
12384WAT     H237395   2.430   3.761   6.680
12385WAT      O37396   2.589   4.527   0.176
12385WAT     H137397   2.562   4.482   0.091
12385WAT     H237398   2.634   4.614   0.155
12386WAT      O37399   6.008   3.281   5.874
12386WAT     H137400   6.039   3.352   5.938
12386WAT     H237401   5.949   3.322   5.805
12387WAT      O37402   1.430   0.979   1.553
12387WAT     H137403   1.344   0.956   1.599
12387WAT     H237404   1.412   1.044   1.479
12388WAT      O37405   6.031   6.650   0.310
12388WAT     H137406   5.978   6.644   0.226
12388WAT     H237407   5.983   6.601   0.383
12389WAT      O37408   8.878   4.401   1.249
12389WAT     H137409   8.879   4.384   1.348
12389WAT     H237410   8.965   4.371   1.210
12390WAT      O37411   8.538   8.178   1.941
12390WAT     H137412   8.603   8.106   1.914
12390WAT     H237413   8.569   8.266   1.903
12391WAT      O37414   4.091   8.482   0.877
12391WAT     H137415   4.135   8.515   0.960
12391WAT     H237416   4.015   8.542   0.853
12392WAT      O37417   9.134   0.568   9.605
12392WAT     H137418   9.082   0.487   9.633
12392WAT     H237419   9.227   0.562   9.642
12393WAT      O37420   0.719   7.534   0.202
12393WAT     H137421   0.788   7.532   0.130
12393WAT     H237422   0.633   7.571   0.166
12394WAT      O37423   9.134   8.042   1.796
12394WAT     H137424   9.060   8.096   1.834
12394WAT     H237425   9.100   7.987   1.720
12395WAT      O37426   0.031   9.574   4.010
12395WAT     H137427   0.085   9.603   4.090
12395WAT     H237428   0.053   9.479   3.988
12396WAT      O37429   0.971   1.217   8.585
12396WAT     H137430   0.928   1.250   8.669
12396WAT     H237431   0.927   1.258   8.506
12397WAT      O37432   4.356   0.279   7.661
12397WAT     H137433   4.267   0.244   7.693
12397WAT     H237434   4.387   0.351   7.722
12398WAT      O37435   3.912   8.983   4.718
12398WAT     H137436   3.825   8.992   4.767
12398WAT     H237437   3.981   8.945   4.780
12399WAT      O37438   5.953   4.103   7.425
12399WAT     H137439   6.022   4.093   7.353
12399WAT     H237440   5.976   4.181   7.483
12400WAT      O37441   1.181   8.761   8.363
12400WAT     H137442   1.167   8.736   8.268
12400WAT     H237443   1.247   8.836   8.369
12401WAT      O37444   5.124   3.515   8.636
12401WAT     H137445   5.221   3.538   8.630
12401WAT     H237446   5.080   3.531   8.548
12402WAT      O37447   9.239   6.873   6.492
12402WAT     H137448   9.197   6.953   6.450
12402WAT     H237449   9.229   6.794   6.432
12403WAT      O37450   5.976   3.159   0.122
12403WAT     H137451   5.969   3.157   0.022
12403WAT     H237452   5.888   3.131   0.162
12404WAT      O37453   0.727   0.346   6.655
12404WAT     H137454   0.814   0.348   6.705
12404WAT     H237455   0.694   0.440   6.642
12405WAT      O37456   8.996   1.160   4.025
12405WAT     H137457   8.926   1.177   4.094
12405WAT     H237458   8.956   1.112   3.947
12406WAT      O37459   0.734   9.761   2.911
12406WAT     H137460   0.767   9.668   2.892
12406WAT     H237461   0.795   9.805   2.977
12407WAT      O37462   8.821   3.924   9.161
12407WAT     H137463   8.836   3.832   9.125
12407WAT     H237464   8.724   3.947   9.152
12408WAT      O37465   6.059   0.152   1.786
12408WAT     H137466   6.062   0.221   1.713
12408WAT     H237467   5.981   0.091   1.771
12409WAT      O37468   4.286   8.113   0.451
12409WAT     H137469   4.189   8.127   0.431
12409WAT     H237470   4.315   8.178   0.521
12410WAT      O37471   4.754   9.606   0.683
12410WAT     H137472   4.674   9.585   0.627
12410WAT     H237473   4.836   9.566   0.640
12411WAT      O37474   6.735   6.735   2.173
12411WAT     H137475   6.806   6.708   2.238
12411WAT     H237476   6.679   6.656   2.151
12412WAT      O37477   3.986   8.235   0.915
12412WAT     H137478   3.943   8.197   0.834
12412WAT     H237479   4.025   8.325   0.893
12413WAT      O37480   3.915   6.061   9.105
12413WAT     H137481   3.906   6.005   9.022
12413WAT     H237482   3.861   6.021   9.179
12414WAT      O37483   6.265   3.883   9.139
12414WAT     H137484   6.330   3.899   9.065
12414WAT     H237485   6.174   3.916   9.111
12415WAT      O37486   9.664   3.584   8.057
12415WAT     H137487   9.591   3.650   8.045
12415WAT     H237488   9.686   3.575   8.155
12416WAT      O37489   8.324   2.405   7.442
12416WAT     H137490   8.352   2.421   7.536
12416WAT     H237491   8.388   2.449   7.379
12417WAT      O37492   6.973   2.441   0.926
12417WAT     H137493   6.999   2.509   0.995
12417WAT     H237494   6.877   2.453   0.901
12418WAT      O37495   5.964   3.307   2.860
12418WAT     H137496   5.960   3.370   2.783
12418WAT     H237497   6.035   3.337   2.924
12419WAT      O37498   5.954   7.028   9.127
12419WAT     H137499   6.015   7.009   9.204
12419WAT     H237500   5.861   7.002   9.151
12420WAT      O37501   6.612   7.740   4.766
12420WAT     H137502   6.573   7.732   4.858
12420WAT     H237503   6.712   7.732   4.771
12421WAT      O37504   1.768   7.693   3.557
12421WAT     H137505   1.759   7.622   3.487
12421WAT     H237506   1.837   7.759   3.527
12422WAT      O37507   5.354   7.582   6.540
12422WAT     H137508   5.274   7.604   6.596
12422WAT     H237509   5.329   7.514   6.472
12423WAT      O37510   9.745   2.137   7.143
12423WAT     H137511   9.785   2.199   7.076
12423WAT     H237512   9.716   2.189   7.223
12424WAT      O37513   2.109   2.934   8.906
12424WAT     H137514   2.185   2.869   8.894
12424WAT     H237515   2.060   2.911   8.990
12425WAT      O37516   2.943   0.369   7.751
12425WAT     H137517   2.981   0.375   7.843
12425WAT     H237518   2.934   0.461   7.712
12426WAT      O37519   3.636   1.825   8.467
12426WAT     H137520   3.725   1.854   8.502
12426WAT     H237521   3.619   1.730   8.493
12427WAT      O37522   8.054   9.623   9.184
12427WAT     H137523   8.088   9.673   9.263
12427WAT     H237524   8.019   9.687   9.116
12428WAT      O37525   8.845   6.818   8.697
12428WAT     H137526   8.836   6.806   8.598
12428WAT     H237527   8.779   6.759   8.744
12429WAT      O37528   6.322   6.450   5.845
12429WAT     H137529   6.392   6.390   5.884
12429WAT     H237530   6.355   6.544   5.844
12430WAT      O37531   7.281   2.568   3.992
12430WAT     H137532   7.333   2.486   4.014
12430WAT     H237533   7.193   2.566   4.040
12431WAT      O37534   7.886   4.932   1.418
12431WAT     H137535   7.844   4.850   1.379
12431WAT     H237536   7.974   4.949   1.373
12432WAT      O37537   5.860   1.172   8.885
12432WAT     H137538   5.779   1.165   8.943
12432WAT     H237539   5.891   1.267   8.882
12433WAT      O37540   8.400   3.058   1.658
12433WAT     H137541   8.382   3.124   1.585
12433WAT     H237542   8.356   3.088   1.742
12434WAT      O37543   4.213   0.407   1.036
12434WAT     H137544   4.305   0.445   1.029
12434WAT     H237545   4.203   0.333   0.971
12435WAT      O37546   3.195   6.776   2.814
12435WAT     H137547   3.230   6.745   2.725
12435WAT     H237548   3.095   6.781   2.810
12436WAT      O37549   9.562   9.732   4.179
12436WAT     H137550   9.618   9.796   4.128
12436WAT     H237551   9.611   9.645   4.190
12437WAT      O37552   6.204   2.932   5.134
12437WAT     H137553   6.205   2.969   5.227
12437WAT     H237554   6.239   3.001   5.071
12438WAT      O37555   0.408   5.231   5.449
12438WAT     H137556   0.357   5.229   5.535
12438WAT     H237557   0.380   5.154   5.391
12439WAT      O37558   8.482   9.590   9.187
12439WAT     H137559   8.427   9.514   9.152
12439WAT     H237560   8.543   9.558   9.259
12440WAT      O37561   0.891   1.501   9.736
12440WAT     H137562   0.863   1.572   9.672
12440WAT     H237563   0.841   1.417   9.717
12441WAT      O37564   4.249   7.490   2.376
12441WAT     H137565   4.153   7.466   2.358
12441WAT     H237566   4.290   7.528   2.293
12442WAT      O37567   6.308   4.775   4.332
12442WAT     H137568   6.385   4.824   4.371
12442WAT     H237569   6.341   4.705   4.269
12443WAT      O37570   5.131   4.070   3.902
12443WAT     H137571   5.121   4.130   3.981
12443WAT     H237572   5.187   3.991   3.927
12444WAT      O37573   4.393   5.239   6.609
12444WAT     H137574   4.443   5.215   6.693
12444WAT     H237575   4.457   5.238   6.532
12445WAT      O37576   5.706   3.125   5.556
12445WAT     H137577   5.738   3.133   5.462
12445WAT     H237578   5.688   3.029   5.577
12446WAT      O37579   1.667   5.438   0.914
12446WAT     H137580   1.587   5.433   0.974
12446WAT     H237581   1.673   5.355   0.859
12447WAT      O37582   9.394   7.377   3.711
12447WAT     H137583   9.431   7.443   3.645
12447WAT     H237584   9.295   7.387   3.716
12448WAT      O37585   0.462   7.356   0.684
12448WAT     H137586   0.398   7.426   0.716
12448WAT     H237587   0.513   7.319   0.762
12449WAT      O37588   6.700   8.417   2.361
12449WAT     H137589   6.712   8.320   2.341
12449WAT     H237590   6.628   8.429   2.429
12450WAT      O37591   2.459   3.274   9.293
12450WAT     H137592   2.547   3.298   9.333
12450WAT     H237593   2.427   3.349   9.235
12451WAT      O37594   2.480   5.915   8.399
12451WAT     H137595   2.489   5.885   8.493
12451WAT     H237596   2.522   5.849   8.338
12452WAT      O37597   8.249   2.938   3.257
12452WAT     H137598   8.303   3.016   3.223
12452WAT     H237599   8.170   2.972   3.308
12453WAT      O37600   6.866   4.540   4.123
12453WAT     H137601   6.779   4.561   4.169
12453WAT     H237602   6.898   4.450   4.153
12454WAT      O37603   7.002   2.369   3.010
12454WAT     H137604   7.056   2.313   3.072
12454WAT     H237605   7.048   2.374   2.921
12455WAT      O37606   2.440   5.206   4.610
12455WAT     H137607   2.478   5.263   4.683
12455WAT     H237608   2.447   5.255   4.523
12456WAT      O37609   0.827   8.291   9.689
12456WAT     H137610   0.835   8.287   9.789
12456WAT     H237611   0.886   8.221   9.648
12457WAT      O37612   9.575   1.668   1.854
12457WAT     H137613   9.544   1.577   1.881
12457WAT     H237614   9.671   1.679   1.878
12458WAT      O37615   9.514   1.173   0.219
12458WAT     H137616   9.535   1.171   0.121
12458WAT     H237617   9.418   1.149   0.234
12459WAT      O37618   8.216   0.638   2.960
12459WAT     H137619   8.240   0.609   3.052
12459WAT     H237620   8.126   0.602   2.936
12460WAT      O37621   2.187   4.531   8.076
12460WAT     H137622   2.139   4.540   8.164
12460WAT     H237623   2.278   4.494   8.091
12461WAT      O37624   2.587   0.163   4.775
12461WAT     H137625   2.605   0.150   4.873
12461WAT     H237626   2.646   0.235   4.739
12462WAT      O37627   5.152   8.104   1.788
12462WAT     H137628   5.226   8.141   1.732
12462WAT     H237629   5.176   8.111   1.885
12463WAT      O37630   6.639   6.483   5.583
12463WAT     H137631   6.597   6.408   5.532
12463WAT     H237632   6.568   6.546   5.614
12464WAT      O37633   0.468   1.795   1.202
12464WAT     H137634   0.530   1.752   1.136
12464WAT     H237635   0.381   1.815   1.157
12465WAT      O37636   1.450   7.084   0.325
12465WAT     H137637   1.486   7.002   0.282
12465WAT     H237638   1.489   7.094   0.417
12466WAT      O37639   0.525   4.019   2.673
12466WAT     H137640   0.558   4.055   2.760
12466WAT     H237641   0.473   4.089   2.625
12467WAT      O37642   1.047   6.478   6.460
12467WAT     H137643   1.074   6.385   6.485
12467WAT     H237644   0.952   6.494   6.489
12468WAT      O37645   8.477   0.892   5.340
12468WAT     H137646   8.425   0.858   5.419
12468WAT     H237647   8.445   0.847   5.257
12469WAT      O37648   6.947   7.580   2.139
12469WAT     H137649   6.978   7.568   2.045
12469WAT     H237650   6.998   7.654   2.182
12470WAT      O37651   2.166   1.054   5.135
12470WAT     H137652   2.213   0.984   5.082
12470WAT     H237653   2.143   1.131   5.076
12471WAT      O37654   1.160   1.337   6.063
12471WAT     H137655   1.180   1.315   6.159
12471WAT     H237656   1.240   1.317   6.007
12472WAT      O37657   4.995   5.085   1.377
12472WAT     H137658   4.939   5.081   1.294
12472WAT     H237659   5.088   5.113   1.353
12473WAT      O37660   6.923   0.149   1.072
12473WAT     H137661   6.829   0.158   1.105
12473WAT     H237662   6.982   0.212   1.123
12474WAT      O37663   1.405   9.070   5.224
12474WAT     H137664   1.392   8.992   5.285
12474WAT     H237665   1.496   9.065   5.182
12475WAT      O37666   6.703   2.729   2.989
12475WAT     H137667   6.629   2.792   3.011
12475WAT     H237668   6.686   2.687   2.900
12476WAT      O37669   2.765   3.388   3.148
12476WAT     H137670   2.796   3.327   3.074
12476WAT     H237671   2.706   3.337   3.210
12477WAT      O37672   0.571   6.747   0.974
12477WAT     H137673   0.607   6.836   0.948
12477WAT     H237674   0.588   6.681   0.900
12478WAT      O37675   1.595   5.433   6.171
12478WAT     H137676   1.638   5.523   6.175
12478WAT     H237677   1.587   5.395   6.263
12479WAT      O37678   2.178   4.820   6.066
12479WAT     H137679   2.139   4.872   6.142
12479WAT     H237680   2.158   4.867   5.980
12480WAT      O37681   8.314   6.816   9.490
12480WAT     H137682   8.268   6.848   9.572
12480WAT     H237683   8.258   6.836   9.410
12481WAT      O37684   4.986   4.338   0.415
12481WAT     H137685   4.956   4.323   0.321
12481WAT     H237686   4.934   4.415   0.454
12482WAT      O37687   0.570   6.044   3.251
12482WAT     H137688   0.635   6.096   3.306
12482WAT     H237689   0.506   6.107   3.206
12483WAT      O37690   9.867   6.117   8.035
12483WAT     H137691   9.831   6.210   8.041
12483WAT     H237692   9.880   6.081   8.127
12484WAT      O37693   8.429   1.584   5.993
12484WAT     H137694   8.363   1.623   6.057
12484WAT     H237695   8.477   1.658   5.946
12485WAT      O37696   7.016   3.197   0.039
12485WAT     H137697   6.926   3.185  -0.004
12485WAT     H237698   7.080   3.234  -0.028
12486WAT      O37699   3.845   8.083   8.619
12486WAT     H137700   3.747   8.096   8.636
12486WAT     H237701   3.891   8.172   8.615
12487WAT      O37702   5.356   8.418   5.718
12487WAT     H137703   5.388   8.342   5.775
12487WAT     H237704   5.420   8.431   5.642
12488WAT      O37705   0.551   2.645   7.131
12488WAT     H137706   0.476   2.696   7.173
12488WAT     H237707   0.631   2.650   7.191
12489WAT      O37708   2.509   9.135   7.139
12489WAT     H137709   2.558   9.090   7.213
12489WAT     H237710   2.570   9.148   7.061
12490WAT      O37711   0.592   0.936   4.225
12490WAT     H137712   0.681   0.908   4.187
12490WAT     H237713   0.554   0.860   4.278
12491WAT      O37714   2.180   9.824   2.925
12491WAT     H137715   2.106   9.782   2.872
12491WAT     H237716   2.231   9.887   2.866
12492WAT      O37717   1.702   8.298   1.072
12492WAT     H137718   1.798   8.302   1.100
12492WAT     H237719   1.659   8.219   1.114
12493WAT      O37720   5.662   1.483   3.238
12493WAT     H137721   5.639   1.480   3.336
12493WAT     H237722   5.673   1.390   3.203
12494WAT      O37723   4.056   2.213   1.206
12494WAT     H137724   4.091   2.301   1.175
12494WAT     H237725   4.118   2.140   1.178
12495WAT      O37726   3.147   9.196   3.988
12495WAT     H137727   3.063   9.239   3.956
12495WAT     H237728   3.165   9.114   3.934
12496WAT      O37729   1.291   9.586   5.125
12496WAT     H137730   1.385   9.563   5.100
12496WAT     H237731   1.292   9.662   5.190
12497WAT      O37732   8.698   0.671   8.958
12497WAT     H137733   8.618   0.648   8.902
12497WAT     H237734   8.730   0.589   9.004
12498WAT      O37735   5.349   2.319   5.751
12498WAT     H137736   5.257   2.348   5.777
12498WAT     H237737   5.409   2.320   5.832
12499WAT      O37738   7.412   1.590   2.025
12499WAT     H137739   7.373   1.610   1.935
12499WAT     H237740   7.497   1.540   2.014
12500WAT      O37741   4.766   7.843   9.045
12500WAT     H137742   4.804   7.924   9.090
12500WAT     H237743   4.838   7.796   8.994
12501WAT      O37744   3.757   4.606   7.256
12501WAT     H137745   3.685   4.591   7.189
12501WAT     H237746   3.824   4.670   7.219
12502WAT      O37747   9.233   3.987   6.681
12502WAT     H137748   9.172   4.004   6.759
12502WAT     H237749   9.222   4.061   6.614
12503WAT      O37750   3.771   9.449   5.959
12503WAT     H137751   3.768   9.353   5.931
12503WAT     H237752   3.679   9.480   5.982
12504WAT      O37753   9.042   7.318   9.108
12504WAT     H137754   8.984   7.237   9.112
12504WAT     H237755   9.136   7.290   9.090
12505WAT      O37756   0.556   8.682   4.338
12505WAT     H137757   0.570   8.764   4.394
12505WAT     H237758   0.616   8.686   4.259
12506WAT      O37759   8.178   0.669   8.171
12506WAT     H137760   8.246   0.712   8.112
12506WAT     H237761   8.224   0.611   8.238
12507WAT      O37762   6.427   8.420   1.582
12507WAT     H137763   6.372   8.357   1.528
12507WAT     H237764   6.475   8.369   1.654
12508WAT      O37765   6.873   7.792   1.349
12508WAT     H137766   6.845   7.818   1.441
12508WAT     H237767   6.810   7.723   1.313
12509WAT      O37768   8.137   8.316   4.473
12509WAT     H137769   8.063   8.279   4.530
12509WAT     H237770   8.224   8.304   4.522
12510WAT      O37771   0.172   7.768   8.842
12510WAT     H137772   0.081   7.802   8.820
12510WAT     H237773   0.231   7.776   8.761
12511WAT      O37774   3.108   8.243   6.488
12511WAT     H137775   3.068   8.242   6.580
12511WAT     H237776   3.201   8.209   6.491
12512WAT      O37777   2.372   4.461   5.425
12512WAT     H137778   2.381   4.519   5.344
12512WAT     H237779   2.275   4.446   5.444
12513WAT      O37780   6.683   3.279   9.221
12513WAT     H137781   6.661   3.310   9.314
12513WAT     H237782   6.605   3.295   9.161
12514WAT      O37783   0.198   5.934   5.340
12514WAT     H137784   0.114   5.987   5.354
12514WAT     H237785   0.194   5.851   5.395
12515WAT      O37786   0.318   3.980   1.561
12515WAT     H137787   0.350   3.886   1.546
12515WAT     H237788   0.377   4.025   1.628
12516WAT      O37789   7.265   9.325   8.029
12516WAT     H137790   7.291   9.230   8.046
12516WAT     H237791   7.249   9.371   8.116
12517WAT      O37792   4.397   8.420   7.566
12517WAT     H137793   4.473   8.360   7.540
12517WAT     H237794   4.388   8.421   7.666
12518WAT      O37795   3.346   1.129   8.793
12518WAT     H137796   3.253   1.096   8.782
12518WAT     H237797   3.376   1.116   8.888
12519WAT      O37798   0.968   9.441   8.703
12519WAT     H137799   1.040   9.496   8.745
12519WAT     H237800   0.881   9.489   8.710
12520WAT      O37801   2.906   9.522   6.093
12520WAT     H137802   3.000   9.546   6.117
12520WAT     H237803   2.872   9.586   6.025
12521WAT      O37804   6.378   4.185   0.069
12521WAT     H137805   6.335   4.120   0.007
12521WAT     H237806   6.477   4.174   0.066
12522WAT      O37807   9.868   7.175   9.678
12522WAT     H137808   9.895   7.079   9.685
12522WAT     H237809   9.768   7.181   9.676
12523WAT      O37810   5.374   7.464   8.903
12523WAT     H137811   5.301   7.415   8.951
12523WAT     H237812   5.423   7.400   8.843
12524WAT      O37813   1.656   6.724   0.477
12524WAT     H137814   1.729   6.655   0.470
12524WAT     H237815   1.687   6.798   0.536
12525WAT      O37816   4.010   4.674   1.804
12525WAT     H137817   3.997   4.774   1.803
12525WAT     H237818   4.078   4.649   1.736
12526WAT      O37819   8.278   5.838   7.681
12526WAT     H137820   8.274   5.869   7.776
12526WAT     H237821   8.235   5.748   7.673
12527WAT      O37822   9.782   5.840   4.721
12527WAT     H137823   9.766   5.745   4.747
12527WAT     H237824   9.825   5.889   4.797
12528WAT      O37825   7.602   6.816   0.563
12528WAT     H137826   7.623   6.908   0.532
12528WAT     H237827   7.558   6.820   0.653
12529WAT      O37828   1.930   9.693   5.371
12529WAT     H137829   1.858   9.715   5.305
12529WAT     H237830   1.996   9.631   5.329
12530WAT      O37831   6.813   0.804   8.258
12530WAT     H137832   6.869   0.723   8.273
12530WAT     H237833   6.796   0.850   8.345
12531WAT      O37834   5.333   3.666   4.994
12531WAT     H137835   5.269   3.602   4.951
12531WAT     H237836   5.304   3.760   4.976
12532WAT      O37837   0.197   2.847   4.592
12532WAT     H137838   0.176   2.862   4.689
12532WAT     H237839   0.294   2.825   4.582
12533WAT      O37840   3.750   4.625   5.105
12533WAT     H137841   3.737   4.593   5.012
12533WAT     H237842   3.750   4.725   5.106
12534WAT      O37843   2.222   0.929   3.102
12534WAT     H137844   2.252   1.020   3.072
12534WAT     H237845   2.297   0.885   3.152
12535WAT      O37846   8.991   5.638   5.559
12535WAT     H137847   9.072   5.647   5.501
12535WAT     H237848   8.924   5.708   5.533
12536WAT      O37849   1.761   8.748   9.128
12536WAT     H137850   1.665   8.774   9.117
12536WAT     H237851   1.795   8.783   9.215
12537WAT      O37852   3.023   7.380   8.525
12537WAT     H137853   2.995   7.300   8.472
12537WAT     H237854   2.963   7.389   8.604
12538WAT      O37855   8.628   3.582   6.672
12538WAT     H137856   8.678   3.582   6.758
12538WAT     H237857   8.691   3.561   6.597
12539WAT      O37858   7.240   8.499   9.359
12539WAT     H137859   7.265   8.579   9.414
12539WAT     H237860   7.313   8.431   9.366
12540WAT      O37861   7.464   5.696   3.837
12540WAT     H137862   7.390   5.673   3.900
12540WAT     H237863   7.538   5.740   3.888
12541WAT      O37864   8.996   4.441   8.988
12541WAT     H137865   9.085   4.433   9.032
12541WAT     H237866   8.925   4.407   9.051
12542WAT      O37867   8.640   8.466   7.042
12542WAT     H137868   8.604   8.556   7.017
12542WAT     H237869   8.577   8.395   7.010
12543WAT      O37870   0.422   2.905   8.444
12543WAT     H137871   0.448   2.896   8.540
12543WAT     H237872   0.446   2.996   8.411
12544WAT      O37873   5.610   3.944   6.746
12544WAT     H137874   5.566   3.859   6.716
12544WAT     H237875   5.615   4.008   6.670
12545WAT      O37876   8.630   5.494   9.535
12545WAT     H137877   8.589   5.424   9.594
12545WAT     H237878   8.728   5.478   9.528
12546WAT      O37879   0.384   2.642   0.743
12546WAT     H137880   0.325   2.607   0.816
12546WAT     H237881   0.400   2.569   0.677
12547WAT      O37882   4.922   1.199   2.485
12547WAT     H137883   4.962   1.246   2.406
12547WAT     H237884   4.896   1.106   2.459
12548WAT      O37885   2.423   4.870   2.926
12548WAT     H137886   2.506   4.925   2.923
12548WAT     H237887   2.443   4.781   2.968
12549WAT      O37888   1.144   7.777   4.288
12549WAT     H137889   1.175   7.872   4.287
12549WAT     H237890   1.123   7.748   4.195
12550WAT      O37891   0.230   3.439   7.231
12550WAT     H137892   0.238   3.483   7.320
12550WAT     H237893   0.255   3.342   7.239
12551WAT      O37894   5.709   5.868   0.278
12551WAT     H137895   5.623   5.879   0.328
12551WAT     H237896   5.764   5.798   0.322
12552WAT      O37897   1.660   8.006   2.979
12552WAT     H137898   1.710   8.012   2.893
12552WAT     H237899   1.562   8.000   2.960
12553WAT      O37900   3.995   4.030   2.637
12553WAT     H137901   4.051   4.087   2.696
12553WAT     H237902   4.052   3.987   2.567
12554WAT      O37903   9.466   8.288   8.851
12554WAT     H137904   9.549   8.241   8.819
12554WAT     H237905   9.422   8.334   8.774
12555WAT      O37906   3.927   0.022   5.025
12555WAT     H137907   3.890  -0.067   5.050
12555WAT     H237908   4.002   0.010   4.960
12556WAT      O37909   1.176   6.614   2.395
12556WAT     H137910   1.247   6.685   2.384
12556WAT     H237911   1.193   6.539   2.331
12557WAT      O37912   2.931   7.266   5.884
12557WAT     H137913   2.984   7.193   5.841
12557WAT     H237914   2.870   7.227   5.953
12558WAT      O37915   1.046   9.811   9.275
12558WAT     H137916   0.959   9.774   9.306
12558WAT     H237917   1.066   9.896   9.324
12559WAT      O37918   5.731   3.828   0.406
12559WAT     H137919   5.657   3.874   0.356
12559WAT     H237920   5.798   3.896   0.437
12560WAT      O37921   8.718   3.817   4.948
12560WAT     H137922   8.787   3.783   4.885
12560WAT     H237923   8.718   3.762   5.031
12561WAT      O37924   4.134   5.678   0.821
12561WAT     H137925   4.194   5.607   0.784
12561WAT     H237926   4.189   5.755   0.854
12562WAT      O37927   2.334   1.422   3.125
12562WAT     H137928   2.326   1.521   3.116
12562WAT     H237929   2.429   1.394   3.111
12563WAT      O37930   1.550   4.081   5.847
12563WAT     H137931   1.500   4.122   5.770
12563WAT     H237932   1.598   4.153   5.897
12564WAT      O37933   4.117   8.732   2.386
12564WAT     H137934   4.124   8.632   2.385
12564WAT     H237935   4.157   8.769   2.302
12565WAT      O37936   1.803   1.819   2.242
12565WAT     H137937   1.738   1.760   2.291
12565WAT     H237938   1.834   1.772   2.159
12566WAT      O37939   8.106   2.170   9.387
12566WAT     H137940   8.119   2.204   9.480
12566WAT     H237941   8.133   2.240   9.321
12567WAT      O37942   4.293   4.509   8.630
12567WAT     H137943   4.265   4.459   8.548
12567WAT     H237944   4.255   4.602   8.628
12568WAT      O37945   4.910   1.879   3.789
12568WAT     H137946   4.818   1.915   3.801
12568WAT     H237947   4.916   1.831   3.702
12569WAT      O37948   9.860   8.686   2.745
12569WAT     H137949   9.959   8.694   2.735
12569WAT     H237950   9.823   8.772   2.782
12570WAT      O37951   4.899   6.359   7.928
12570WAT     H137952   4.918   6.263   7.910
12570WAT     H237953   4.811   6.384   7.886
12571WAT      O37954   0.751   1.464   0.341
12571WAT     H137955   0.813   1.426   0.272
12571WAT     H237956   0.773   1.560   0.356
12572WAT      O37957   1.452   2.493   6.483
12572WAT     H137958   1.535   2.487   6.538
12572WAT     H237959   1.476   2.515   6.389
12573WAT      O37960   8.873   3.437   0.285
12573WAT     H137961   8.945   3.402   0.345
12573WAT     H237962   8.785   3.430   0.331
12574WAT      O37963   9.294   9.548   3.259
12574WAT     H137964   9.218   9.483   3.269
12574WAT     H237965   9.324   9.578   3.350
12575WAT      O37966   3.516   3.748   4.838
12575WAT     H137967   3.463   3.832   4.830
12575WAT     H237968   3.614   3.770   4.843
12576WAT      O37969   4.436   7.417   3.463
12576WAT     H137970   4.453   7.432   3.366
12576WAT     H237971   4.364   7.347   3.473
12577WAT      O37972   7.661   5.002   3.174
12577WAT     H137973   7.633   4.973   3.082
12577WAT     H237974   7.705   5.091   3.169
12578WAT      O37975   5.092   0.060   4.939
12578WAT     H137976   5.187   0.084   4.961
12578WAT     H237977   5.043   0.039   5.024
12579WAT      O37978   6.114   4.326   2.555
12579WAT     H137979   6.048   4.269   2.505
12579WAT     H237980   6.199   4.274   2.567
12580WAT      O37981   9.666   0.379   1.671
12580WAT     H137982   9.715   0.365   1.585
12580WAT     H237983   9.691   0.468   1.709
12581WAT      O37984   5.751   0.444   3.013
12581WAT     H137985   5.733   0.406   2.922
12581WAT     H237986   5.840   0.490   3.012
12582WAT      O37987   9.573   6.599   3.256
12582WAT     H137988   9.631   6.677   3.276
12582WAT     H237989   9.630   6.520   3.233
12583WAT      O37990   7.669   1.560   2.673
12583WAT     H137991   7.739   1.507   2.721
12583WAT     H237992   7.691   1.562   2.575
12584WAT      O37993   0.086   7.074   7.970
12584WAT     H137994   0.166   7.053   8.026
12584WAT     H237995   0.112   7.078   7.874
12585WAT      O37996   4.340   6.254   4.413
12585WAT     H137997   4.298   6.245   4.504
12585WAT     H237998   4.419   6.314   4.419
12586WAT      O37999   0.269   5.754   6.971
12586WAT     H138000   0.291   5.755   6.873
12586WAT     H238001   0.171   5.736   6.983
12587WAT      O38002   3.798   3.283   6.104
12587WAT     H138003   3.794   3.319   6.011
12587WAT     H238004   3.886   3.306   6.145
12588WAT      O38005   6.080   5.675   5.940
12588WAT     H138006   6.069   5.601   5.873
12588WAT     H238007   6.128   5.752   5.898
12589WAT      O38008   5.265   3.313   7.235
12589WAT     H138009   5.175   3.346   7.262
12589WAT     H238010   5.279   3.330   7.138
12590WAT      O38011   8.275   4.816   5.767
12590WAT     H138012   8.188   4.865   5.763
12590WAT     H238013   8.264   4.733   5.821
12591WAT      O38014   1.471   4.699   4.083
12591WAT     H138015   1.536   4.774   4.070
12591WAT     H238016   1.495   4.648   4.166
12592WAT      O38017   0.149   5.326   7.714
12592WAT     H138018   0.151   5.227   7.706
12592WAT     H238019   0.242   5.361   7.721
12593WAT      O38020   4.079   5.326   0.846
12593WAT     H138021   4.042   5.233   0.834
12593WAT     H238022   4.109   5.338   0.940
12594WAT      O38023   4.373   5.518   3.568
12594WAT     H138024   4.281   5.549   3.592
12594WAT     H238025   4.439   5.589   3.588
12595WAT      O38026   4.852   4.308   7.222
12595WAT     H138027   4.906   4.227   7.200
12595WAT     H238028   4.859   4.328   7.320
12596WAT      O38029   8.336   9.619   3.963
12596WAT     H138030   8.299   9.708   3.937
12596WAT     H238031   8.264   9.564   4.005
12597WAT      O38032   0.830   8.036   0.758
12597WAT     H138033   0.746   8.032   0.812
12597WAT     H238034   0.815   7.991   0.670
12598WAT      O38035   3.294   3.853   8.052
12598WAT     H138036   3.285   3.934   8.110
12598WAT     H238037   3.249   3.775   8.096
12599WAT      O38038   0.777   2.770   8.524
12599WAT     H138039   0.728   2.778   8.438
12599WAT     H238040   0.840   2.692   8.520
12600WAT      O38041   6.238   5.901   2.467
12600WAT     H138042   6.298   5.908   2.387
12600WAT     H238043   6.153   5.856   2.440
12601WAT      O38044   5.375   3.539   1.832
12601WAT     H138045   5.378   3.439   1.832
12601WAT     H238046   5.468   3.575   1.843
12602WAT      O38047   0.711   0.002   1.297
12602WAT     H138048   0.737   0.028   1.390
12602WAT     H238049   0.611   0.004   1.289
12603WAT      O38050   4.987   3.440   3.231
12603WAT     H138051   5.027   3.414   3.144
12603WAT     H238052   4.996   3.363   3.295
12604WAT      O38053   3.676   3.038   6.735
12604WAT     H138054   3.618   3.119   6.738
12604WAT     H238055   3.767   3.062   6.700
12605WAT      O38056   1.862   8.741   8.400
12605WAT     H138057   1.882   8.839   8.400
12605WAT     H238058   1.763   8.727   8.400
12606WAT      O38059   9.581   0.178   6.517
12606WAT     H138060   9.492   0.219   6.497
12606WAT     H238061   9.653   0.231   6.472
12607WAT      O38062   7.170   3.384   1.531
12607WAT     H138063   7.111   3.303   1.538
12607WAT     H238064   7.156   3.427   1.442
12608WAT      O38065   2.437   3.904   0.913
12608WAT     H138066   2.461   3.886   0.817
12608WAT     H238067   2.343   3.936   0.918
12609WAT      O38068   2.690   1.115   7.787
12609WAT     H138069   2.598   1.088   7.762
12609WAT     H238070   2.686   1.191   7.852
12610WAT      O38071   5.728   4.501   9.016
12610WAT     H138072   5.729   4.421   9.075
12610WAT     H238073   5.730   4.584   9.072
12611WAT      O38074   6.785   5.128   5.373
12611WAT     H138075   6.848   5.143   5.297
12611WAT     H238076   6.714   5.063   5.345
12612WAT      O38077   1.114   8.805   5.965
12612WAT     H138078   1.133   8.901   5.942
12612WAT     H238079   1.163   8.780   6.049
12613WAT      O38080   0.098   3.101   6.591
12613WAT     H138081   0.071   3.162   6.666
12613WAT     H238082   0.104   3.153   6.506
12614WAT      O38083   1.177   5.901   8.944
12614WAT     H138084   1.112   5.938   9.011
12614WAT     H238085   1.157   5.805   8.927
12615WAT      O38086   3.125   8.362   7.748
12615WAT     H138087   3.115   8.351   7.847
12615WAT     H238088   3.077   8.444   7.719
12616WAT      O38089   1.353   6.016   1.940
12616WAT     H138090   1.307   6.089   1.991
12616WAT     H238091   1.390   5.949   2.004
12617WAT      O38092   8.197   5.242   5.767
12617WAT     H138093   8.212   5.282   5.858
12617WAT     H238094   8.102   5.258   5.739
12618WAT      O38095   3.857   0.250   1.853
12618WAT     H138096   3.869   0.227   1.950
12618WAT     H238097   3.797   0.329   1.845
12619WAT      O38098   0.546   1.025   8.890
12619WAT     H138099   0.494   1.075   8.820
12619WAT     H238100   0.626   0.982   8.848
12620WAT      O38101   3.853   4.057   0.411
12620WAT     H138102   3.945   4.029   0.380
12620WAT     H238103   3.807   3.978   0.453
12621WAT      O38104   6.001   5.989   7.208
12621WAT     H138105   6.056   6.067   7.177
12621WAT     H238106   6.015   5.912   7.146
12622WAT      O38107   3.973   4.763   7.185
12622WAT     H138108   4.032   4.700   7.135
12622WAT     H238109   4.027   4.814   7.252
12623WAT      O38110   7.362   1.554   1.204
12623WAT     H138111   7.297   1.628   1.189
12623WAT     H238112   7.328   1.494   1.277
12624WAT      O38113   7.346   5.010   9.636
12624WAT     H138114   7.263   4.954   9.643
12624WAT     H238115   7.426   4.951   9.631
12625WAT      O38116   9.556   0.698   7.472
12625WAT     H138117   9.486   0.700   7.401
12625WAT     H238118   9.642   0.733   7.435
12626WAT      O38119   1.548   5.408   5.918
12626WAT     H138120   1.499   5.324   5.892
12626WAT     H238121   1.562   5.408   6.017
12627WAT      O38122   4.333   5.185   8.607
12627WAT     H138123   4.364   5.278   8.587
12627WAT     H238124   4.380   5.120   8.547
12628WAT      O38125   7.336   4.993   9.346
12628WAT     H138126   7.259   5.026   9.400
12628WAT     H238127   7.302   4.947   9.264
12629WAT      O38128   3.671   6.951   9.782
12629WAT     H138129   3.609   6.894   9.837
12629WAT     H238130   3.629   6.969   9.693
12630WAT      O38131   9.492   6.246   6.915
12630WAT     H138132   9.437   6.217   6.993
12630WAT     H238133   9.585   6.269   6.946
12631WAT      O38134   2.162   7.157   7.548
12631WAT     H138135   2.195   7.238   7.501
12631WAT     H238136   2.126   7.092   7.482
12632WAT      O38137   0.715   2.724   3.407
12632WAT     H138138   0.787   2.673   3.454
12632WAT     H238139   0.739   2.733   3.310
12633WAT      O38140   2.797   8.966   0.668
12633WAT     H138141   2.828   8.953   0.574
12633WAT     H238142   2.819   8.885   0.722
12634WAT      O38143   2.924   2.797   0.131
12634WAT     H138144   2.980   2.714   0.137
12634WAT     H238145   2.843   2.778   0.074
12635WAT      O38146   0.440   1.000   2.351
12635WAT     H138147   0.450   0.902   2.333
12635WAT     H238148   0.472   1.051   2.271
12636WAT      O38149   0.972   0.240   1.895
12636WAT     H138150   1.004   0.163   1.951
12636WAT     H238151   1.021   0.240   1.808
12637WAT      O38152   6.532   6.578   0.137
12637WAT     H138153   6.456   6.591   0.200
12637WAT     H238154   6.614   6.551   0.188
12638WAT      O38155   2.920   8.846   1.562
12638WAT     H138156   2.960   8.779   1.625
12638WAT     H238157   2.832   8.878   1.598
12639WAT      O38158   8.181   3.234   2.979
12639WAT     H138159   8.095   3.184   2.982
12639WAT     H238160   8.191   3.277   2.889
12640WAT      O38161   6.766   7.504   6.199
12640WAT     H138162   6.820   7.567   6.254
12640WAT     H238163   6.781   7.523   6.102
12641WAT      O38164   1.181   2.135   1.134
12641WAT     H138165   1.114   2.206   1.112
12641WAT     H238166   1.273   2.170   1.114
12642WAT      O38167   4.056   6.023   1.763
12642WAT     H138168   4.089   6.037   1.669
12642WAT     H238169   4.134   6.022   1.825
12643WAT      O38170   1.642   5.227   0.183
12643WAT     H138171   1.555   5.186   0.156
12643WAT     H238172   1.627   5.294   0.256
12644WAT      O38173   6.626   2.133   8.824
12644WAT     H138174   6.697   2.202   8.834
12644WAT     H238175   6.538   2.172   8.849
12645WAT      O38176   1.744   6.259   5.867
12645WAT     H138177   1.824   6.203   5.848
12645WAT     H238178   1.716   6.247   5.962
12646WAT      O38179   3.303   9.487   9.345
12646WAT     H138180   3.212   9.523   9.366
12646WAT     H238181   3.294   9.410   9.282
12647WAT      O38182   4.477   1.642   7.627
12647WAT     H138183   4.459   1.591   7.543
12647WAT     H238184   4.391   1.654   7.677
12648WAT      O38185   6.986   2.525   4.053
12648WAT     H138186   6.972   2.615   4.011
12648WAT     H238187   6.966   2.532   4.151
12649WAT      O38188   1.909   7.896   7.888
12649WAT     H138189   1.849   7.928   7.961
12649WAT     H238190   1.987   7.847   7.927
12650WAT      O38191   7.241   3.312   8.925
12650WAT     H138192   7.226   3.230   8.870
12650WAT     H238193   7.187   3.387   8.888
12651WAT      O38194   5.730   7.980   5.483
12651WAT     H138195   5.805   7.918   5.459
12651WAT     H238196   5.657   7.928   5.528
12652WAT      O38197   5.745   8.508   9.579
12652WAT     H138198   5.698   8.596   9.577
12652WAT     H238199   5.689   8.439   9.533
12653WAT      O38200   3.684   7.262   6.434
12653WAT     H138201   3.690   7.295   6.528
12653WAT     H238202   3.608   7.197   6.426
12654WAT      O38203   7.105   2.869   0.086
12654WAT     H138204   7.126   2.960   0.122
12654WAT     H238205   7.005   2.858   0.082
12655WAT      O38206   6.117   3.586   1.482
12655WAT     H138207   6.170   3.670   1.468
12655WAT     H238208   6.022   3.602   1.454
12656WAT      O38209   3.507   1.332   6.129
12656WAT     H138210   3.596   1.327   6.084
12656WAT     H238211   3.490   1.426   6.159
12657WAT      O38212   5.302   0.596   5.125
12657WAT     H138213   5.317   0.514   5.069
12657WAT     H238214   5.336   0.676   5.076
12658WAT      O38215   1.540   5.216   9.279
12658WAT     H138216   1.480   5.227   9.358
12658WAT     H238217   1.513   5.280   9.207
12659WAT      O38218   0.963   1.961   3.289
12659WAT     H138219   0.907   1.913   3.357
12659WAT     H238220   0.965   1.909   3.204
12660WAT      O38221   7.336   0.475   8.730
12660WAT     H138222   7.314   0.542   8.659
12660WAT     H238223   7.366   0.521   8.813
12661WAT      O38224   3.048   8.782   6.145
12661WAT     H138225   3.041   8.821   6.053
12661WAT     H238226   2.996   8.838   6.209
12662WAT      O38227   7.652   7.096   7.697
12662WAT     H138228   7.607   7.131   7.779
12662WAT     H238229   7.645   7.164   7.624
12663WAT      O38230   3.334   4.845   5.996
12663WAT     H138231   3.320   4.844   6.095
12663WAT     H238232   3.380   4.931   5.970
12664WAT      O38233   8.260   5.762   3.602
12664WAT     H138234   8.273   5.666   3.626
12664WAT     H238235   8.190   5.769   3.531
12665WAT      O38236   8.507   4.163   3.987
12665WAT     H138237   8.598   4.150   3.947
12665WAT     H238238   8.440   4.168   3.913
12666WAT      O38239   7.881   6.046   4.470
12666WAT     H138240   7.921   5.960   4.501
12666WAT     H238241   7.955   6.107   4.440
12667WAT      O38242   7.554   6.430   6.846
12667WAT     H138243   7.573   6.527   6.859
12667WAT     H238244   7.604   6.397   6.766
12668WAT      O38245   1.907   5.555   5.700
12668WAT     H138246   1.969   5.490   5.655
12668WAT     H238247   1.817   5.513   5.710
12669WAT      O38248   6.251   9.456   3.440
12669WAT     H138249   6.263   9.437   3.537
12669WAT     H238250   6.339   9.455   3.394
12670WAT      O38251   9.159   7.980   3.341
12670WAT     H138252   9.083   8.022   3.390
12670WAT     H238253   9.233   7.960   3.406
12671WAT      O38254   8.058   8.202   6.645
12671WAT     H138255   8.152   8.210   6.614
12671WAT     H238256   7.996   8.204   6.567
12672WAT      O38257   9.133   1.683   2.115
12672WAT     H138258   9.125   1.591   2.154
12672WAT     H238259   9.042   1.718   2.093
12673WAT      O38260   7.069   5.891   3.720
12673WAT     H138261   7.030   5.952   3.789
12673WAT     H238262   7.021   5.903   3.633
12674WAT      O38263   2.583   8.629   8.566
12674WAT     H138264   2.663   8.629   8.507
12674WAT     H238265   2.523   8.553   8.542
12675WAT      O38266   8.364   1.139   3.695
12675WAT     H138267   8.387   1.204   3.768
12675WAT     H238268   8.419   1.160   3.614
12676WAT      O38269   9.149   1.548   8.490
12676WAT     H138270   9.112   1.627   8.539
12676WAT     H238271   9.162   1.473   8.554
12677WAT      O38272   6.912   0.994   8.672
12677WAT     H138273   6.980   0.933   8.715
12677WAT     H238274   6.933   1.089   8.697
12678WAT      O38275   5.882   1.258   3.363
12678WAT     H138276   5.972   1.252   3.405
12678WAT     H238277   5.878   1.339   3.304
12679WAT      O38278   7.970   9.297   4.251
12679WAT     H138279   8.012   9.281   4.340
12679WAT     H238280   8.009   9.380   4.210
12680WAT      O38281   9.157   7.028   8.988
12680WAT     H138282   9.244   7.021   8.939
12680WAT     H238283   9.082   7.024   8.923
12681WAT      O38284   7.379   7.790   2.234
12681WAT     H138285   7.440   7.834   2.300
12681WAT     H238286   7.392   7.690   2.238
12682WAT      O38287   3.541   1.753   2.429
12682WAT     H138288   3.456   1.745   2.481
12682WAT     H238289   3.618   1.722   2.485
12683WAT      O38290   4.510   1.365   8.973
12683WAT     H138291   4.459   1.451   8.966
12683WAT     H238292   4.501   1.314   8.888
12684WAT      O38293   3.953   8.807   1.802
12684WAT     H138294   3.923   8.758   1.884
12684WAT     H238295   4.050   8.832   1.811
12685WAT      O38296   2.126   6.560   8.543
12685WAT     H138297   2.101   6.593   8.452
12685WAT     H238298   2.226   6.562   8.553
12686WAT      O38299   4.928   2.228   1.583
12686WAT     H138300   4.920   2.308   1.643
12686WAT     H238301   4.857   2.161   1.607
12687WAT      O38302   3.364   2.031   4.874
12687WAT     H138303   3.276   2.009   4.916
12687WAT     H238304   3.438   2.004   4.936
12688WAT      O38305   7.497   0.913   5.335
12688WAT     H138306   7.514   0.977   5.409
12688WAT     H238307   7.583   0.884   5.295
12689WAT      O38308   0.269   6.284   1.285
12689WAT     H138309   0.225   6.201   1.250
12689WAT     H238310   0.357   6.297   1.239
12690WAT      O38311   6.133   9.098   1.815
12690WAT     H138312   6.150   9.074   1.719
12690WAT     H238313   6.052   9.157   1.820
12691WAT      O38314   5.603   5.391   1.423
12691WAT     H138315   5.657   5.475   1.430
12691WAT     H238316   5.515   5.412   1.381
12692WAT      O38317   9.104   4.163   7.654
12692WAT     H138318   9.133   4.217   7.733
12692WAT     H238319   9.150   4.197   7.572
12693WAT      O38320   3.759   1.029   9.847
12693WAT     H138321   3.852   1.000   9.869
12693WAT     H238322   3.744   1.018   9.748
12694WAT      O38323   2.908   9.150   7.180
12694WAT     H138324   2.931   9.096   7.098
12694WAT     H238325   2.919   9.092   7.261
12695WAT      O38326   8.817   6.510   1.347
12695WAT     H138327   8.746   6.439   1.352
12695WAT     H238328   8.786   6.583   1.286
12696WAT      O38329   6.799   9.269   6.457
12696WAT     H138330   6.735   9.282   6.381
12696WAT     H238331   6.833   9.358   6.486
12697WAT      O38332   1.929   9.005   2.605
12697WAT     H138333   1.989   9.068   2.556
12697WAT     H238334   1.835   9.019   2.573
12698WAT      O38335   0.310   2.250   9.871
12698WAT     H138336   0.354   2.173   9.825
12698WAT     H238337   0.268   2.218   9.956
12699WAT      O38338   1.880   2.407   0.898
12699WAT     H138339   1.872   2.458   0.983
12699WAT     H238340   1.789   2.383   0.865
12700WAT      O38341   9.485   1.516   9.108
12700WAT     H138342   9.552   1.557   9.046
12700WAT     H238343   9.393   1.538   9.077
12701WAT      O38344   2.118   8.292   6.409
12701WAT     H138345   2.072   8.218   6.360
12701WAT     H238346   2.121   8.374   6.352
12702WAT      O38347   5.160   0.832   6.816
12702WAT     H138348   5.119   0.875   6.896
12702WAT     H238349   5.259   0.823   6.830
12703WAT      O38350   0.639   1.134   1.672
12703WAT     H138351   0.544   1.116   1.695
12703WAT     H238352   0.652   1.124   1.573
12704WAT      O38353   6.518   1.368   3.320
12704WAT     H138354   6.541   1.288   3.376
12704WAT     H238355   6.516   1.341   3.224
12705WAT      O38356   8.272   8.581   5.622
12705WAT     H138357   8.287   8.657   5.685
12705WAT     H238358   8.272   8.495   5.673
12706WAT      O38359   7.855   9.550   2.919
12706WAT     H138360   7.812   9.536   3.008
12706WAT     H238361   7.786   9.543   2.847
12707WAT      O38362   4.100   1.832   6.455
12707WAT     H138363   4.032   1.819   6.382
12707WAT     H238364   4.138   1.743   6.481
12708WAT      O38365   7.565   5.896   8.846
12708WAT     H138366   7.526   5.891   8.938
12708WAT     H238367   7.539   5.982   8.803
12709WAT      O38368   3.359   1.387   3.569
12709WAT     H138369   3.263   1.383   3.597
12709WAT     H238370   3.417   1.385   3.650
12710WAT      O38371   9.414   2.795   2.894
12710WAT     H138372   9.336   2.737   2.872
12710WAT     H238373   9.384   2.872   2.950
12711WAT      O38374   6.004   2.307   5.752
12711WAT     H138375   5.920   2.319   5.699
12711WAT     H238376   6.076   2.366   5.716
12712WAT      O38377   6.539   1.757   3.587
12712WAT     H138378   6.482   1.818   3.531
12712WAT     H238379   6.576   1.684   3.530
12713WAT      O38380   9.863   3.354   2.498
12713WAT     H138381   9.789   3.338   2.434
12713WAT     H238382   9.848   3.441   2.546
12714WAT      O38383   1.833   5.904   2.771
12714WAT     H138384   1.898   5.829   2.755
12714WAT     H238385   1.834   5.966   2.692
12715WAT      O38386   5.795   6.932   2.371
12715WAT     H138387   5.730   6.965   2.303
12715WAT     H238388   5.750   6.925   2.460
12716WAT      O38389   6.548   4.808   1.620
12716WAT     H138390   6.456   4.773   1.599
12716WAT     H238391   6.603   4.735   1.660
12717WAT      O38392   5.427   8.103   2.428
12717WAT     H138393   5.339   8.056   2.435
12717WAT     H238394   5.495   8.055   2.484
12718WAT      O38395   2.855   1.795   5.343
12718WAT     H138396   2.785   1.723   5.342
12718WAT     H238397   2.824   1.870   5.403
12719WAT      O38398   4.677   8.761   1.647
12719WAT     H138399   4.658   8.857   1.665
12719WAT     H238400   4.707   8.750   1.552
12720WAT      O38401   8.584   4.317   0.107
12720WAT     H138402   8.669   4.269   0.088
12720WAT     H238403   8.581   4.343   0.204
12721WAT      O38404   5.549   7.562   2.885
12721WAT     H138405   5.631   7.577   2.831
12721WAT     H238406   5.560   7.604   2.975
12722WAT      O38407   4.366   0.604   3.949
12722WAT     H138408   4.369   0.691   3.900
12722WAT     H238409   4.441   0.599   4.016
12723WAT      O38410   2.376   2.900   5.775
12723WAT     H138411   2.430   2.922   5.856
12723WAT     H238412   2.292   2.854   5.802
12724WAT      O38413   5.314   7.386   2.542
12724WAT     H138414   5.305   7.355   2.636
12724WAT     H238415   5.318   7.308   2.480
12725WAT      O38416   8.571   9.170   1.129
12725WAT     H138417   8.528   9.105   1.066
12725WAT     H238418   8.646   9.217   1.081
12726WAT      O38419   0.118   5.421   4.774
12726WAT     H138420   0.165   5.363   4.841
12726WAT     H238421   0.153   5.400   4.682
12727WAT      O38422   8.399   1.736   4.257
12727WAT     H138423   8.494   1.745   4.288
12727WAT     H238424   8.387   1.646   4.215
12728WAT      O38425   4.059   3.372   4.604
12728WAT     H138426   4.059   3.388   4.703
12728WAT     H238427   3.998   3.438   4.559
12729WAT      O38428   4.325   8.799   7.902
12729WAT     H138429   4.410   8.784   7.852
12729WAT     H238430   4.345   8.816   7.998
12730WAT      O38431   2.520   1.763   2.541
12730WAT     H138432   2.531   1.842   2.602
12730WAT     H238433   2.586   1.769   2.466
12731WAT      O38434   6.002   0.031   1.139
12731WAT     H138435   5.960   0.001   1.224
12731WAT     H238436   5.965  -0.022   1.062
12732WAT      O38437   7.209   2.847   5.448
12732WAT     H138438   7.196   2.772   5.383
12732WAT     H238439   7.301   2.843   5.486
12733WAT      O38440   7.273   7.024   0.605
12733WAT     H138441   7.208   7.071   0.546
12733WAT     H238442   7.364   7.065   0.594
12734WAT      O38443   4.566   8.145   2.101
12734WAT     H138444   4.641   8.203   2.132
12734WAT     H238445   4.500   8.200   2.050
12735WAT      O38446   2.327   4.312   2.073
12735WAT     H138447   2.402   4.335   2.134
12735WAT     H238448   2.352   4.336   1.979
12736WAT      O38449   6.714   8.486   9.669
12736WAT     H138450   6.737   8.494   9.572
12736WAT     H238451   6.754   8.564   9.719
12737WAT      O38452   1.306   7.681   6.093
12737WAT     H138453   1.316   7.753   6.161
12737WAT     H238454   1.396   7.652   6.061
12738WAT      O38455   4.364   0.754   9.607
12738WAT     H138456   4.444   0.794   9.652
12738WAT     H238457   4.288   0.751   9.672
12739WAT      O38458   8.069   1.472   0.611
12739WAT     H138459   8.109   1.517   0.531
12739WAT     H238460   8.016   1.392   0.581
12740WAT      O38461   9.871   1.734   8.734
12740WAT     H138462   9.830   1.789   8.806
12740WAT     H238463   9.826   1.645   8.729
12741WAT      O38464   1.974   9.043   1.083
12741WAT     H138465   1.947   8.959   1.035
12741WAT     H238466   1.998   9.022   1.177
12742WAT      O38467   0.732   0.498   4.474
12742WAT     H138468   0.796   0.531   4.403
12742WAT     H238469   0.660   0.566   4.487
12743WAT      O38470   9.710   0.822   7.906
12743WAT     H138471   9.800   0.779   7.910
12743WAT     H238472   9.656   0.791   7.984
12744WAT      O38473   7.781   2.599   6.309
12744WAT     H138474   7.785   2.534   6.384
12744WAT     H238475   7.869   2.599   6.260
12745WAT      O38476   6.898   9.106   5.495
12745WAT     H138477   6.886   9.152   5.583
12745WAT     H238478   6.824   9.039   5.482
12746WAT      O38479   0.804   6.219   4.981
12746WAT     H138480   0.815   6.284   5.057
12746WAT     H238481   0.788   6.270   4.896
12747WAT      O38482   9.752   6.277   3.493
12747WAT     H138483   9.819   6.351   3.499
12747WAT     H238484   9.692   6.292   3.414
12748WAT      O38485   1.910   0.350   9.022
12748WAT     H138486   2.005   0.324   9.008
12748WAT     H238487   1.863   0.354   8.933
12749WAT      O38488   6.336   8.114   9.579
12749WAT     H138489   6.283   8.171   9.516
12749WAT     H238490   6.296   8.120   9.670
12750WAT      O38491   9.687   3.692   9.062
12750WAT     H138492   9.648   3.697   8.970
12750WAT     H238493   9.743   3.610   9.070
12751WAT      O38494   1.233   8.231   1.103
12751WAT     H138495   1.193   8.252   1.014
12751WAT     H238496   1.201   8.297   1.171
12752WAT      O38497   7.901   0.907   8.784
12752WAT     H138498   7.950   0.923   8.698
12752WAT     H238499   7.953   0.946   8.860
12753WAT      O38500   7.780   1.655   0.991
12753WAT     H138501   7.806   1.686   1.083
12753WAT     H238502   7.698   1.598   0.997
12754WAT      O38503   7.738   5.541   6.954
12754WAT     H138504   7.782   5.496   6.877
12754WAT     H238505   7.720   5.475   7.026
12755WAT      O38506   4.595   8.592   7.351
12755WAT     H138507   4.498   8.568   7.348
12755WAT     H238508   4.648   8.512   7.377
12756WAT      O38509   8.220   4.997   3.667
12756WAT     H138510   8.263   4.931   3.605
12756WAT     H238511   8.168   4.948   3.737
12757WAT      O38512   5.375   4.559   3.868
12757WAT     H138513   5.364   4.628   3.940
12757WAT     H238514   5.408   4.474   3.908
12758WAT      O38515   3.717   8.541   9.495
12758WAT     H138516   3.685   8.539   9.590
12758WAT     H238517   3.813   8.566   9.493
12759WAT      O38518   5.668   5.854   8.734
12759WAT     H138519   5.583   5.817   8.697
12759WAT     H238520   5.659   5.864   8.833
12760WAT      O38521   7.685   0.865   1.286
12760WAT     H138522   7.738   0.818   1.357
12760WAT     H238523   7.740   0.937   1.245
12761WAT      O38524   6.700   1.316   5.930
12761WAT     H138525   6.779   1.355   5.977
12761WAT     H238526   6.621   1.376   5.940
12762WAT      O38527   7.147   5.798   1.092
12762WAT     H138528   7.197   5.813   1.007
12762WAT     H238529   7.062   5.852   1.091
12763WAT      O38530   0.542   8.800   9.795
12763WAT     H138531   0.616   8.865   9.810
12763WAT     H238532   0.580   8.710   9.777
12764WAT      O38533   9.501   9.328   7.291
12764WAT     H138534   9.493   9.323   7.391
12764WAT     H238535   9.412   9.308   7.250
12765WAT      O38536   3.003   2.116   0.598
12765WAT     H138537   3.098   2.145   0.585
12765WAT     H238538   3.002   2.025   0.641
12766WAT      O38539   9.564   7.323   6.687
12766WAT     H138540   9.526   7.231   6.672
12766WAT     H238541   9.580   7.336   6.785
12767WAT      O38542   5.781   0.156   5.660
12767WAT     H138543   5.832   0.189   5.740
12767WAT     H238544   5.686   0.138   5.687
12768WAT      O38545   6.884   7.717   4.475
12768WAT     H138546   6.888   7.756   4.567
12768WAT     H238547   6.790   7.721   4.442
12769WAT      O38548   9.132   5.660   9.887
12769WAT     H138549   9.097   5.726   9.820
12769WAT     H238550   9.157   5.709   9.971
12770WAT      O38551   1.961   8.763   2.490
12770WAT     H138552   2.003   8.706   2.560
12770WAT     H238553   1.932   8.850   2.531
12771WAT      O38554   7.186   6.635   3.036
12771WAT     H138555   7.202   6.552   2.983
12771WAT     H238556   7.094   6.632   3.075
12772WAT      O38557   7.923   1.185   1.416
12772WAT     H138558   7.914   1.264   1.477
12772WAT     H238559   7.889   1.210   1.325
12773WAT      O38560   2.489   6.509   6.155
12773WAT     H138561   2.432   6.464   6.224
12773WAT     H238562   2.514   6.443   6.084
12774WAT      O38563   2.369   7.528   0.007
12774WAT     H138564   2.336   7.459  -0.057
12774WAT     H238565   2.406   7.606  -0.044
12775WAT      O38566   0.786   9.541   6.679
12775WAT     H138567   0.726   9.468   6.648
12775WAT     H238568   0.743   9.589   6.756
12776WAT      O38569   6.885   2.586   7.847
12776WAT     H138570   6.879   2.685   7.863
12776WAT     H238571   6.917   2.569   7.754
12777WAT      O38572   1.635   3.345   9.670
12777WAT     H138573   1.705   3.336   9.741
12777WAT     H238574   1.554   3.294   9.697
12778WAT      O38575   8.666   6.383   8.929
12778WAT     H138576   8.657   6.296   8.977
12778WAT     H238577   8.744   6.434   8.966
12779WAT      O38578   3.311   1.851   5.168
12779WAT     H138579   3.230   1.882   5.118
12779WAT     H238580   3.284   1.817   5.258
12780WAT      O38581   8.558   1.368   8.254
12780WAT     H138582   8.602   1.342   8.339
12780WAT     H238583   8.550   1.467   8.248
12781WAT      O38584   5.489   7.391   0.096
12781WAT     H138585   5.501   7.413   0.193
12781WAT     H238586   5.560   7.327   0.067
12782WAT      O38587   7.508   8.267   0.163
12782WAT     H138588   7.578   8.220   0.217
12782WAT     H238589   7.495   8.360   0.197
12783WAT      O38590   9.867   7.676   6.340
12783WAT     H138591   9.885   7.579   6.356
12783WAT     H238592   9.948   7.718   6.299
12784WAT      O38593   0.553   6.857   4.716
12784WAT     H138594   0.594   6.770   4.691
12784WAT     H238595   0.611   6.903   4.784
12785WAT      O38596   4.992   8.882   2.422
12785WAT     H138597   4.954   8.795   2.454
12785WAT     H238598   5.091   8.880   2.433
12786WAT      O38599   1.936   5.798   9.008
12786WAT     H138600   2.006   5.728   9.017
12786WAT     H238601   1.950   5.869   9.077
12787WAT      O38602   3.350   5.120   2.815
12787WAT     H138603   3.298   5.201   2.842
12787WAT     H238604   3.429   5.148   2.761
12788WAT      O38605   4.067   0.370   4.012
12788WAT     H138606   4.075   0.427   4.094
12788WAT     H238607   4.023   0.284   4.036
12789WAT      O38608   9.498   2.073   8.100
12789WAT     H138609   9.413   2.109   8.061
12789WAT     H238610   9.525   1.991   8.051
12790WAT      O38611   2.784   0.419   4.252
12790WAT     H138612   2.695   0.448   4.216
12790WAT     H238613   2.794   0.321   4.241
12791WAT      O38614   1.848   8.853   0.433
12791WAT     H138615   1.832   8.889   0.525
12791WAT     H238616   1.762   8.851   0.383
12792WAT      O38617   3.018   0.637   9.222
12792WAT     H138618   3.100   0.670   9.176
12792WAT     H238619   3.010   0.538   9.207
12793WAT      O38620   7.429   3.577   0.321
12793WAT     H138621   7.507   3.543   0.373
12793WAT     H238622   7.415   3.518   0.241
12794WAT      O38623   2.039   5.802   7.488
12794WAT     H138624   2.018   5.706   7.466
12794WAT     H238625   2.051   5.854   7.404
12795WAT      O38626   9.250   1.903   4.881
12795WAT     H138627   9.266   1.851   4.797
12795WAT     H238628   9.199   1.986   4.859
12796WAT      O38629   5.727   0.393   7.331
12796WAT     H138630   5.726   0.400   7.430
12796WAT     H238631   5.643   0.350   7.299
12797WAT      O38632   3.787   6.426   1.513
12797WAT     H138633   3.769   6.412   1.611
12797WAT     H238634   3.882   6.401   1.493
12798WAT      O38635   3.403   6.912   5.429
12798WAT     H138636   3.359   6.999   5.406
12798WAT     H238637   3.490   6.931   5.475
12799WAT      O38638   8.584   6.181   3.163
12799WAT     H138639   8.609   6.089   3.133
12799WAT     H238640   8.561   6.179   3.260
12800WAT      O38641   5.771   4.401   2.593
12800WAT     H138642   5.686   4.448   2.568
12800WAT     H238643   5.844   4.469   2.605
12801WAT      O38644   4.707   0.529   6.913
12801WAT     H138645   4.775   0.516   6.841
12801WAT     H238646   4.618   0.498   6.881
12802WAT      O38647   7.111   0.613   7.390
12802WAT     H138648   7.016   0.587   7.409
12802WAT     H238649   7.145   0.670   7.464
12803WAT      O38650   6.045   9.329   7.444
12803WAT     H138651   6.137   9.313   7.407
12803WAT     H238652   6.039   9.422   7.479
12804WAT      O38653   0.783   0.930   9.478
12804WAT     H138654   0.755   0.912   9.383
12804WAT     H238655   0.836   1.015   9.481
12805WAT      O38656   7.452   6.214   5.381
12805WAT     H138657   7.470   6.168   5.467
12805WAT     H238658   7.439   6.312   5.398
12806WAT      O38659   0.644   6.324   6.322
12806WAT     H138660   0.617   6.328   6.419
12806WAT     H238661   0.609   6.405   6.275
12807WAT      O38662   2.736   6.718   5.260
12807WAT     H138663   2.670   6.688   5.190
12807WAT     H238664   2.819   6.752   5.215
12808WAT      O38665   2.947   6.524   3.404
12808WAT     H138666   2.977   6.616   3.429
12808WAT     H238667   2.862   6.530   3.351
12809WAT      O38668   9.362   2.980   4.780
12809WAT     H138669   9.369   2.916   4.857
12809WAT     H238670   9.403   2.938   4.699
12810WAT      O38671   1.321   8.440   2.145
12810WAT     H138672   1.232   8.395   2.144
12810WAT     H238673   1.312   8.533   2.110
12811WAT      O38674   9.081   7.559   0.009
12811WAT     H138675   9.047   7.496  -0.061
12811WAT     H238676   9.040   7.536   0.097
12812WAT      O38677   8.168   2.115   3.343
12812WAT     H138678   8.116   2.062   3.277
12812WAT     H238679   8.183   2.061   3.425
12813WAT      O38680   8.187   2.957   0.197
12813WAT     H138681   8.165   2.861   0.180
12813WAT     H238682   8.207   3.002   0.110
12814WAT      O38683   3.866   8.028   6.054
12814WAT     H138684   3.942   8.068   6.002
12814WAT     H238685   3.785   8.023   5.996
12815WAT      O38686   0.005   0.388   5.968
12815WAT     H138687   0.041   0.464   6.022
12815WAT     H238688  -0.028   0.315   6.029
12816WAT      O38689   7.293   8.224   5.741
12816WAT     H138690   7.287   8.154   5.671
12816WAT     H238691   7.389   8.245   5.760
12817WAT      O38692   2.911   3.735   4.834
12817WAT     H138693   2.879   3.786   4.913
12817WAT     H238694   2.912   3.637   4.856
12818WAT      O38695   5.239   6.237   9.613
12818WAT     H138696   5.309   6.208   9.679
12818WAT     H238697   5.151   6.198   9.639
12819WAT      O38698   6.129   0.721   1.304
12819WAT     H138699   6.053   0.785   1.290
12819WAT     H238700   6.127   0.652   1.232
12820WAT      O38701   3.509   5.120   5.502
12820WAT     H138702   3.442   5.165   5.562
12820WAT     H238703   3.537   5.034   5.544
12821WAT      O38704   0.052   2.037   2.598
12821WAT     H138705   0.121   2.089   2.647
12821WAT     H238706   0.095   1.962   2.548
12822WAT      O38707   9.035   5.977   0.574
12822WAT     H138708   9.100   5.916   0.527
12822WAT     H238709   8.955   5.924   0.603
12823WAT      O38710   6.396   6.948   3.791
12823WAT     H138711   6.481   6.967   3.742
12823WAT     H238712   6.415   6.942   3.889
12824WAT      O38713   7.455   6.433   1.908
12824WAT     H138714   7.538   6.434   1.853
12824WAT     H238715   7.391   6.502   1.873
12825WAT      O38716   0.779   3.993   4.653
12825WAT     H138717   0.759   3.959   4.562
12825WAT     H238718   0.777   3.917   4.718
12826WAT      O38719   2.507   8.264   5.406
12826WAT     H138720   2.514   8.198   5.481
12826WAT     H238721   2.459   8.222   5.330
12827WAT      O38722   8.059   7.523   5.868
12827WAT     H138723   8.045   7.588   5.794
12827WAT     H238724   8.102   7.440   5.832
12828WAT      O38725   4.413   9.752   9.785
12828WAT     H138726   4.351   9.748   9.863
12828WAT     H238727   4.461   9.840   9.785
12829WAT      O38728   5.567   6.878   5.168
12829WAT     H138729   5.570   6.797   5.227
12829WAT     H238730   5.650   6.932   5.182
12830WAT      O38731   8.817   6.367   7.152
12830WAT     H138732   8.745   6.431   7.181
12830WAT     H238733   8.795   6.276   7.186
12831WAT      O38734   0.276   5.950   3.881
12831WAT     H138735   0.210   6.023   3.862
12831WAT     H238736   0.325   5.970   3.966
12832WAT      O38737   8.856   4.053   8.668
12832WAT     H138738   8.782   4.107   8.709
12832WAT     H238739   8.844   4.052   8.569
12833WAT      O38740   8.413   3.199   8.001
12833WAT     H138741   8.410   3.118   8.061
12833WAT     H238742   8.345   3.188   7.928
12834WAT      O38743   2.754   9.606   4.970
12834WAT     H138744   2.675   9.647   5.016
12834WAT     H238745   2.835   9.660   4.990
12835WAT      O38746   5.009   8.482   5.599
12835WAT     H138747   5.051   8.570   5.576
12835WAT     H238748   4.922   8.498   5.646
12836WAT      O38749   4.614   4.184   2.114
12836WAT     H138750   4.528   4.185   2.165
12836WAT     H238751   4.686   4.144   2.170
12837WAT      O38752   8.219   4.013   6.522
12837WAT     H138753   8.265   3.928   6.499
12837WAT     H238754   8.169   4.002   6.609
12838WAT      O38755   2.019   3.607   0.945
12838WAT     H138756   2.106   3.619   0.897
12838WAT     H238757   1.970   3.529   0.907
12839WAT      O38758   7.153   2.991   4.006
12839WAT     H138759   7.191   2.980   4.098
12839WAT     H238760   7.084   3.064   4.008
12840WAT      O38761   7.001   2.042   9.097
12840WAT     H138762   7.022   1.975   9.025
12840WAT     H238763   6.902   2.053   9.104
12841WAT      O38764   9.106   5.755   1.620
12841WAT     H138765   9.042   5.755   1.544
12841WAT     H238766   9.071   5.811   1.695
12842WAT      O38767   4.675   0.822   9.140
12842WAT     H138768   4.724   0.747   9.184
12842WAT     H238769   4.580   0.794   9.124
12843WAT      O38770   7.311   7.885   5.367
12843WAT     H138771   7.315   7.847   5.274
12843WAT     H238772   7.319   7.811   5.434
12844WAT      O38773   1.909   3.451   1.393
12844WAT     H138774   1.817   3.477   1.363
12844WAT     H238775   1.911   3.354   1.416
12845WAT      O38776   5.644   0.562   3.995
12845WAT     H138777   5.554   0.518   3.999
12845WAT     H238778   5.666   0.583   3.899
12846WAT      O38779   1.850   1.293   9.536
12846WAT     H138780   1.775   1.333   9.589
12846WAT     H238781   1.814   1.247   9.456
12847WAT      O38782   5.114   4.809   0.881
12847WAT     H138783   5.207   4.776   0.894
12847WAT     H238784   5.067   4.812   0.970
12848WAT      O38785   0.737   7.242   0.274
12848WAT     H138786   0.802   7.182   0.228
12848WAT     H238787   0.756   7.337   0.251
12849WAT      O38788   3.218   9.567   2.565
12849WAT     H138789   3.315   9.564   2.589
12849WAT     H238790   3.208   9.584   2.467
12850WAT      O38791   9.326   0.309   0.647
12850WAT     H138792   9.262   0.279   0.718
12850WAT     H238793   9.370   0.394   0.676
12851WAT      O38794   8.879   3.715   7.569
12851WAT     H138795   8.829   3.633   7.598
12851WAT     H238796   8.825   3.796   7.589
12852WAT      O38797   1.951   9.583   3.537
12852WAT     H138798   1.954   9.659   3.602
12852WAT     H238799   1.871   9.526   3.557
12853WAT      O38800   7.126   0.196   7.629
12853WAT     H138801   7.093   0.129   7.563
12853WAT     H238802   7.107   0.288   7.594
12854WAT      O38803   8.544   5.975   6.079
12854WAT     H138804   8.595   6.008   6.158
12854WAT     H238805   8.495   6.051   6.037
12855WAT      O38806   8.444   0.261   6.524
12855WAT     H138807   8.371   0.219   6.470
12855WAT     H238808   8.519   0.288   6.464
12856WAT      O38809   2.211   3.694   0.776
12856WAT     H138810   2.213   3.622   0.707
12856WAT     H238811   2.303   3.706   0.815
12857WAT      O38812   5.081   9.234   4.351
12857WAT     H138813   5.046   9.148   4.388
12857WAT     H238814   5.181   9.229   4.343
12858WAT      O38815   7.518   6.166   1.994
12858WAT     H138816   7.611   6.194   2.017
12858WAT     H238817   7.469   6.243   1.953
12859WAT      O38818   4.997   0.097   4.066
12859WAT     H138819   4.964   0.136   4.152
12859WAT     H238820   5.092   0.125   4.051
12860WAT      O38821   8.450   5.949   1.278
12860WAT     H138822   8.525   6.000   1.235
12860WAT     H238823   8.488   5.873   1.332
12861WAT      O38824   0.172   5.192   3.982
12861WAT     H138825   0.165   5.116   3.917
12861WAT     H238826   0.118   5.269   3.948
12862WAT      O38827   2.856   3.466   9.639
12862WAT     H138828   2.899   3.377   9.655
12862WAT     H238829   2.924   3.539   9.646
12863WAT      O38830   9.003   4.268   8.123
12863WAT     H138831   8.947   4.187   8.105
12863WAT     H238832   9.022   4.275   8.221
12864WAT      O38833   5.054   1.647   2.906
12864WAT     H138834   5.019   1.690   2.989
12864WAT     H238835   5.008   1.560   2.891
12865WAT      O38836   4.930   6.560   0.770
12865WAT     H138837   4.865   6.524   0.703
12865WAT     H238838   5.023   6.536   0.742
12866WAT      O38839   0.948   6.132   5.900
12866WAT     H138840   0.952   6.041   5.859
12866WAT     H238841   0.920   6.198   5.830
12867WAT      O38842   3.815   4.446   0.822
12867WAT     H138843   3.744   4.390   0.865
12867WAT     H238844   3.869   4.391   0.760
12868WAT      O38845   2.401   9.305   8.621
12868WAT     H138846   2.430   9.248   8.698
12868WAT     H238847   2.352   9.249   8.554
12869WAT      O38848   1.134   1.572   2.356
12869WAT     H138849   1.188   1.622   2.288
12869WAT     H238850   1.132   1.623   2.442
12870WAT      O38851   5.032   8.634   1.878
12870WAT     H138852   5.088   8.578   1.939
12870WAT     H238853   4.957   8.577   1.842
12871WAT      O38854   8.284   9.329   2.673
12871WAT     H138855   8.293   9.425   2.648
12871WAT     H238856   8.198   9.316   2.722
12872WAT      O38857   0.952   4.084   7.919
12872WAT     H138858   0.983   4.155   7.981
12872WAT     H238859   0.955   4.117   7.825
12873WAT      O38860   2.732   7.659   5.354
12873WAT     H138861   2.821   7.612   5.360
12873WAT     H238862   2.697   7.651   5.261
12874WAT      O38863   3.003   7.501   5.770
12874WAT     H138864   2.996   7.411   5.813
12874WAT     H238865   2.995   7.492   5.671
12875WAT      O38866   5.638   2.259   7.000
12875WAT     H138867   5.732   2.265   7.033
12875WAT     H238868   5.580   2.322   7.052
12876WAT      O38869   5.720   7.444   7.693
12876WAT     H138870   5.775   7.464   7.774
12876WAT     H238871   5.686   7.530   7.654
12877WAT      O38872   4.185   0.459   1.322
12877WAT     H138873   4.199   0.456   1.223
12877WAT     H238874   4.207   0.551   1.356
12878WAT      O38875   3.120   6.440   0.123
12878WAT     H138876   3.058   6.376   0.078
12878WAT     H238877   3.116   6.428   0.222
12879WAT      O38878   3.738   7.617   6.299
12879WAT     H138879   3.788   7.619   6.385
12879WAT     H238880   3.771   7.691   6.239
12880WAT      O38881   8.759   3.438   1.381
12880WAT     H138882   8.805   3.352   1.403
12880WAT     H238883   8.796   3.474   1.296
12881WAT      O38884   3.620   0.199   3.433
12881WAT     H138885   3.552   0.264   3.467
12881WAT     H238886   3.662   0.150   3.510
12882WAT      O38887   0.727   5.041   9.714
12882WAT     H138888   0.670   5.008   9.789
12882WAT     H238889   0.811   4.986   9.710
12883WAT      O38890   7.229   6.596   0.102
12883WAT     H138891   7.214   6.629   0.195
12883WAT     H238892   7.152   6.538   0.075
12884WAT      O38893   7.912   1.768   6.973
12884WAT     H138894   7.890   1.708   7.050
12884WAT     H238895   7.932   1.860   7.006
12885WAT      O38896   8.034   8.333   3.537
12885WAT     H138897   8.055   8.392   3.615
12885WAT     H238898   8.077   8.370   3.455
12886WAT      O38899   0.383   7.868   7.166
12886WAT     H138900   0.299   7.883   7.217
12886WAT     H238901   0.403   7.947   7.109
12887WAT      O38902   5.461   4.869   2.446
12887WAT     H138903   5.478   4.939   2.515
12887WAT     H238904   5.421   4.788   2.490
12888WAT      O38905   5.006   3.156   6.968
12888WAT     H138906   4.907   3.160   6.957
12888WAT     H238907   5.029   3.145   7.065
12889WAT      O38908   3.595   0.741   8.252
12889WAT     H138909   3.664   0.799   8.295
12889WAT     H238910   3.605   0.745   8.152
12890WAT      O38911   8.871   8.962   1.956
12890WAT     H138912   8.797   8.896   1.942
12890WAT     H238913   8.947   8.918   2.004
12891WAT      O38914   2.956   4.079   7.322
12891WAT     H138915   2.877   4.087   7.383
12891WAT     H238916   3.015   4.159   7.333
12892WAT      O38917   3.896   0.481   9.136
12892WAT     H138918   3.926   0.417   9.065
12892WAT     H238919   3.941   0.569   9.123
12893WAT      O38920   0.746   8.804   2.271
12893WAT     H138921   0.738   8.903   2.255
12893WAT     H238922   0.688   8.779   2.349
12894WAT      O38923   9.634   4.606   3.875
12894WAT     H138924   9.647   4.511   3.903
12894WAT     H238925   9.537   4.628   3.873
12895WAT      O38926   6.462   6.973   4.746
12895WAT     H138927   6.470   6.912   4.668
12895WAT     H238928   6.424   6.923   4.824
12896WAT      O38929   4.175   2.910   0.998
12896WAT     H138930   4.152   3.007   1.002
12896WAT     H238931   4.093   2.857   0.979
12897WAT      O38932   8.652   5.778   6.325
12897WAT     H138933   8.696   5.740   6.244
12897WAT     H238934   8.613   5.867   6.304
12898WAT      O38935   8.640   9.142   0.301
12898WAT     H138936   8.589   9.175   0.380
12898WAT     H238937   8.632   9.207   0.226
12899WAT      O38938   2.518   1.293   1.909
12899WAT     H138939   2.458   1.368   1.879
12899WAT     H238940   2.482   1.206   1.875
12900WAT      O38941   7.682   0.421   2.374
12900WAT     H138942   7.647   0.499   2.323
12900WAT     H238943   7.684   0.340   2.315
12901WAT      O38944   6.301   5.241   6.070
12901WAT     H138945   6.222   5.302   6.061
12901WAT     H238946   6.271   5.148   6.090
12902WAT      O38947   1.087   2.420   1.874
12902WAT     H138948   1.091   2.331   1.830
12902WAT     H238949   1.066   2.490   1.806
12903WAT      O38950   5.307   8.636   1.584
12903WAT     H138951   5.314   8.689   1.669
12903WAT     H238952   5.227   8.667   1.533
12904WAT      O38953   6.107   5.894   1.916
12904WAT     H138954   6.183   5.945   1.956
12904WAT     H238955   6.023   5.914   1.965
12905WAT      O38956   3.662   3.077   9.844
12905WAT     H138957   3.656   3.021   9.926
12905WAT     H238958   3.688   3.171   9.869
12906WAT      O38959   3.009   7.633   8.436
12906WAT     H138960   3.000   7.537   8.463
12906WAT     H238961   3.102   7.650   8.402
12907WAT      O38962   9.797   3.650   5.874
12907WAT     H138963   9.722   3.644   5.940
12907WAT     H238964   9.762   3.631   5.782
12908WAT      O38965   3.312   4.136   7.409
12908WAT     H138966   3.246   4.066   7.437
12908WAT     H238967   3.273   4.190   7.334
12909WAT      O38968   2.474   6.944   9.434
12909WAT     H138969   2.446   7.034   9.401
12909WAT     H238970   2.393   6.892   9.462
12910WAT      O38971   9.366   7.849   3.471
12910WAT     H138972   9.445   7.861   3.410
12910WAT     H238973   9.313   7.770   3.440
12911WAT      O38974   8.074   3.935   3.962
12911WAT     H138975   8.152   3.924   3.901
12911WAT     H238976   8.050   3.847   4.003
12912WAT      O38977   0.501   8.678   7.278
12912WAT     H138978   0.449   8.605   7.322
12912WAT     H238979   0.463   8.767   7.306
12913WAT      O38980   5.180   7.737   7.334
12913WAT     H138981   5.273   7.767   7.310
12913WAT     H238982   5.168   7.744   7.433
12914WAT      O38983   3.247   9.580   4.648
12914WAT     H138984   3.168   9.528   4.680
12914WAT     H238985   3.323   9.567   4.712
12915WAT      O38986   9.190   1.936   1.731
12915WAT     H138987   9.184   1.860   1.666
12915WAT     H238988   9.103   1.945   1.779
12916WAT      O38989   2.511   6.337   5.949
12916WAT     H138990   2.425   6.330   5.898
12916WAT     H238991   2.587   6.337   5.885
12917WAT      O38992   8.803   8.564   0.369
12917WAT     H138993   8.853   8.534   0.450
12917WAT     H238994   8.816   8.497   0.296
12918WAT      O38995   1.408   5.341   8.642
12918WAT     H138996   1.363   5.413   8.693
12918WAT     H238997   1.362   5.254   8.659
12919WAT      O38998   3.312   2.208   6.874
12919WAT     H138999   3.341   2.240   6.784
12919WAT     H239000   3.379   2.141   6.908
12920WAT      O39001   1.889   7.976   2.520
12920WAT     H139002   1.973   7.930   2.489
12920WAT     H239003   1.870   8.054   2.460
12921WAT      O39004   7.488   7.407   8.610
12921WAT     H139005   7.451   7.436   8.522
12921WAT     H239006   7.488   7.307   8.615
12922WAT      O39007   2.921   2.943   0.654
12922WAT     H139008   2.982   2.881   0.606
12922WAT     H239009   2.950   2.952   0.749
12923WAT      O39010   2.125   3.725   3.730
12923WAT     H139011   2.162   3.782   3.803
12923WAT     H239012   2.056   3.776   3.679
12924WAT      O39013   0.084   9.041   5.171
12924WAT     H139014  -0.010   9.057   5.201
12924WAT     H239015   0.146   9.097   5.226
12925WAT      O39016   3.913   0.888   9.268
12925WAT     H139017   3.933   0.947   9.190
12925WAT     H239018   3.972   0.913   9.345
12926WAT      O39019   5.095   2.101   8.804
12926WAT     H139020   5.027   2.174   8.794
12926WAT     H239021   5.088   2.062   8.896
12927WAT      O39022   4.424   5.449   3.982
12927WAT     H139023   4.381   5.382   3.923
12927WAT     H239024   4.415   5.422   4.077
12928WAT      O39025   4.183   0.558   5.801
12928WAT     H139026   4.246   0.614   5.748
12928WAT     H239027   4.179   0.466   5.762
12929WAT      O39028   2.036   0.896   2.705
12929WAT     H139029   2.110   0.919   2.642
12929WAT     H239030   1.948   0.905   2.659
12930WAT      O39031   3.551   6.870   2.150
12930WAT     H139032   3.556   6.969   2.136
12930WAT     H239033   3.620   6.825   2.093
12931WAT      O39034   2.973   2.519   5.532
12931WAT     H139035   2.962   2.617   5.549
12931WAT     H239036   3.057   2.504   5.480
12932WAT      O39037   5.665   7.850   8.570
12932WAT     H139038   5.764   7.839   8.563
12932WAT     H239039   5.625   7.850   8.479
12933WAT      O39040   4.537   5.943   7.534
12933WAT     H139041   4.572   5.998   7.610
12933WAT     H239042   4.581   5.853   7.535
12934WAT      O39043   3.023   6.998   1.984
12934WAT     H139044   2.968   7.064   1.934
12934WAT     H239045   3.089   6.955   1.922
12935WAT      O39046   7.183   2.959   5.033
12935WAT     H139047   7.128   2.887   5.076
12935WAT     H239048   7.149   2.977   4.941
12936WAT      O39049   0.995   7.038   4.823
12936WAT     H139050   1.055   7.092   4.882
12936WAT     H239051   1.050   6.977   4.766
12937WAT      O39052   9.166   8.467   0.466
12937WAT     H139053   9.074   8.460   0.505
12937WAT     H239054   9.232   8.479   0.540
12938WAT      O39055   5.732   0.207   2.837
12938WAT     H139056   5.801   0.236   2.771
12938WAT     H239057   5.765   0.126   2.886
12939WAT      O39058   6.196   7.064   6.681
12939WAT     H139059   6.262   6.999   6.643
12939WAT     H239060   6.143   7.019   6.753
12940WAT      O39061   4.048   3.743   9.085
12940WAT     H139062   3.988   3.766   9.009
12940WAT     H239063   4.015   3.661   9.130
12941WAT      O39064   4.287   7.355   8.006
12941WAT     H139065   4.243   7.360   8.096
12941WAT     H239066   4.229   7.400   7.938
12942WAT      O39067   4.194   2.157   5.423
12942WAT     H139068   4.110   2.204   5.452
12942WAT     H239069   4.273   2.208   5.456
12943WAT      O39070   6.974   4.477   0.806
12943WAT     H139071   6.899   4.420   0.839
12943WAT     H239072   7.054   4.420   0.788
12944WAT      O39073   2.383   7.600   1.080
12944WAT     H139074   2.348   7.679   1.132
12944WAT     H239075   2.476   7.620   1.050
12945WAT      O39076   6.866   4.116   2.139
12945WAT     H139077   6.954   4.134   2.094
12945WAT     H239078   6.881   4.097   2.236
12946WAT      O39079   8.640   5.487   6.708
12946WAT     H139080   8.575   5.422   6.669
12946WAT     H239081   8.632   5.486   6.808
12947WAT      O39082   7.494   7.992   2.047
12947WAT     H139083   7.409   8.014   1.999
12947WAT     H239084   7.488   7.900   2.086
12948WAT      O39085   4.504   8.395   7.098
12948WAT     H139086   4.582   8.380   7.036
12948WAT     H239087   4.494   8.315   7.158
12949WAT      O39088   7.465   4.451   0.604
12949WAT     H139089   7.474   4.551   0.597
12949WAT     H239090   7.460   4.412   0.513
12950WAT      O39091   0.224   1.333   8.282
12950WAT     H139092   0.211   1.418   8.231
12950WAT     H239093   0.153   1.326   8.353
12951WAT      O39094   2.215   2.521   0.876
12951WAT     H139095   2.121   2.516   0.911
12951WAT     H239096   2.221   2.468   0.791
12952WAT      O39097   6.853   1.078   6.618
12952WAT     H139098   6.815   1.122   6.537
12952WAT     H239099   6.877   1.147   6.686
12953WAT      O39100   2.718   8.697   4.190
12953WAT     H139101   2.756   8.667   4.103
12953WAT     H239102   2.755   8.641   4.264
12954WAT      O39103   2.996   0.873   0.802
12954WAT     H139104   3.026   0.779   0.782
12954WAT     H239105   3.076   0.930   0.821
12955WAT      O39106   0.907   8.809   7.730
12955WAT     H139107   1.001   8.794   7.761
12955WAT     H239108   0.871   8.725   7.690
12956WAT      O39109   5.342   0.820   8.204
12956WAT     H139110   5.354   0.886   8.279
12956WAT     H239111   5.430   0.804   8.160
12957WAT      O39112   6.012   0.950   3.135
12957WAT     H139113   6.091   0.894   3.160
12957WAT     H239114   6.037   1.010   3.059
12958WAT      O39115   9.205   2.215   4.049
12958WAT     H139116   9.205   2.117   4.028
12958WAT     H239117   9.114   2.253   4.031
12959WAT      O39118   9.693   5.465   3.102
12959WAT     H139119   9.788   5.491   3.081
12959WAT     H239120   9.666   5.507   3.189
12960WAT      O39121   1.943   0.610   5.489
12960WAT     H139122   2.029   0.645   5.452
12960WAT     H239123   1.871   0.618   5.420
12961WAT      O39124   3.239   9.622   7.382
12961WAT     H139125   3.171   9.667   7.324
12961WAT     H239126   3.330   9.638   7.344
12962WAT      O39127   1.421   4.624   6.246
12962WAT     H139128   1.473   4.554   6.296
12962WAT     H239129   1.351   4.662   6.306
12963WAT      O39130   8.322   2.829   7.833
12963WAT     H139131   8.303   2.831   7.932
12963WAT     H239132   8.268   2.755   7.792
12964WAT      O39133   9.699   3.336   6.540
12964WAT     H139134   9.599   3.328   6.546
12964WAT     H239135   9.723   3.398   6.465
12965WAT      O39136   7.516   0.053   1.345
12965WAT     H139137   7.610   0.083   1.330
12965WAT     H239138   7.507  -0.043   1.318
12966WAT      O39139   6.202   7.634   6.900
12966WAT     H139140   6.197   7.667   6.806
12966WAT     H239141   6.195   7.711   6.963
12967WAT      O39142   3.962   4.578   8.125
12967WAT     H139143   3.874   4.600   8.083
12967WAT     H239144   4.034   4.635   8.085
12968WAT      O39145   9.879   0.804   5.809
12968WAT     H139146   9.882   0.843   5.717
12968WAT     H239147   9.972   0.787   5.840
12969WAT      O39148   9.056   9.761   7.796
12969WAT     H139149   8.962   9.734   7.818
12969WAT     H239150   9.061   9.787   7.700
12970WAT      O39151   7.762   6.612   3.312
12970WAT     H139152   7.788   6.531   3.365
12970WAT     H239153   7.663   6.624   3.316
12971WAT      O39154   0.974   1.153   5.352
12971WAT     H139155   0.892   1.174   5.298
12971WAT     H239156   0.964   1.192   5.443
12972WAT      O39157   5.742   2.649   7.898
12972WAT     H139158   5.715   2.700   7.979
12972WAT     H239159   5.717   2.701   7.816
12973WAT      O39160   8.846   7.889   9.539
12973WAT     H139161   8.882   7.980   9.562
12973WAT     H239162   8.747   7.889   9.551
12974WAT      O39163   0.718   0.518   1.460
12974WAT     H139164   0.793   0.578   1.432
12974WAT     H239165   0.637   0.573   1.482
12975WAT      O39166   7.270   1.374   8.314
12975WAT     H139167   7.227   1.296   8.360
12975WAT     H239168   7.238   1.459   8.356
12976WAT      O39169   6.490   2.236   6.321
12976WAT     H139170   6.548   2.300   6.370
12976WAT     H239171   6.506   2.143   6.355
12977WAT      O39172   2.015   1.884   4.556
12977WAT     H139173   1.920   1.916   4.554
12977WAT     H239174   2.055   1.907   4.645
12978WAT      O39175   1.278   7.221   4.034
12978WAT     H139176   1.248   7.305   4.080
12978WAT     H239177   1.223   7.144   4.067
12979WAT      O39178   4.020   4.647   0.523
12979WAT     H139179   3.942   4.710   0.524
12979WAT     H239180   4.097   4.690   0.476
12980WAT      O39181   0.830   4.282   2.607
12980WAT     H139182   0.780   4.254   2.524
12980WAT     H239183   0.830   4.206   2.672
12981WAT      O39184   8.487   8.733   9.736
12981WAT     H139185   8.392   8.758   9.718
12981WAT     H239186   8.501   8.727   9.835
12982WAT      O39187   8.257   2.332   5.997
12982WAT     H139188   8.282   2.411   5.940
12982WAT     H239189   8.339   2.280   6.019
12983WAT      O39190   8.013   0.079   0.934
12983WAT     H139191   7.945   0.107   1.002
12983WAT     H239192   8.005   0.139   0.854
12984WAT      O39193   0.208   2.314   5.073
12984WAT     H139194   0.300   2.352   5.068
12984WAT     H239195   0.160   2.352   5.153
12985WAT      O39196   0.847   3.517   9.089
12985WAT     H139197   0.778   3.447   9.067
12985WAT     H239198   0.802   3.605   9.102
12986WAT      O39199   4.617   7.358   9.714
12986WAT     H139200   4.586   7.269   9.746
12986WAT     H239201   4.607   7.426   9.787
12987WAT      O39202   0.900   8.962   3.970
12987WAT     H139203   0.849   8.999   3.892
12987WAT     H239204   0.884   9.020   4.051
12988WAT      O39205   7.744   6.431   8.353
12988WAT     H139206   7.841   6.408   8.343
12988WAT     H239207   7.734   6.530   8.366
12989WAT      O39208   1.879   0.653   2.798
12989WAT     H139209   1.883   0.646   2.698
12989WAT     H239210   1.923   0.737   2.827
12990WAT      O39211   7.931   0.733   3.757
12990WAT     H139212   7.879   0.689   3.830
12990WAT     H239213   8.029   0.726   3.777
12991WAT      O39214   1.182   8.501   7.323
12991WAT     H139215   1.110   8.546   7.269
12991WAT     H239216   1.271   8.521   7.282
12992WAT      O39217   4.960   3.510   1.088
12992WAT     H139218   5.035   3.464   1.136
12992WAT     H239219   4.874   3.465   1.111
12993WAT      O39220   4.776   6.148   6.004
12993WAT     H139221   4.844   6.090   5.958
12993WAT     H239222   4.756   6.228   5.947
12994WAT      O39223   4.137   2.581   4.197
12994WAT     H139224   4.174   2.638   4.124
12994WAT     H239225   4.154   2.485   4.177
12995WAT      O39226   7.297   3.610   8.549
12995WAT     H139227   7.285   3.511   8.559
12995WAT     H239228   7.220   3.647   8.497
12996WAT      O39229   5.385   2.061   2.520
12996WAT     H139230   5.315   1.997   2.491
12996WAT     H239231   5.429   2.028   2.603
12997WAT      O39232   2.930   5.395   6.147
12997WAT     H139233   2.987   5.314   6.148
12997WAT     H239234   2.891   5.410   6.237
12998WAT      O39235   6.584   4.983   9.567
12998WAT     H139236   6.523   4.949   9.495
12998WAT     H239237   6.589   5.083   9.560
12999WAT      O39238   3.019   6.374   0.394
12999WAT     H139239   3.075   6.304   0.437
12999WAT     H239240   2.996   6.444   0.462
13000WAT      O39241   5.494   7.176   8.054
13000WAT     H139242   5.402   7.169   8.093
13000WAT     H239243   5.543   7.090   8.070
13001WAT      O39244   5.545   2.510   1.186
13001WAT     H139245   5.617   2.520   1.254
13001WAT     H239246   5.470   2.455   1.223
13002WAT      O39247   9.557   4.364   3.165
13002WAT     H139248   9.505   4.300   3.220
13002WAT     H239249   9.515   4.374   3.075
13003WAT      O39250   8.304   2.900   8.670
13003WAT     H139251   8.392   2.859   8.645
13003WAT     H239252   8.274   2.864   8.758
13004WAT      O39253   0.144   5.620   7.504
13004WAT     H139254   0.070   5.612   7.438
13004WAT     H239255   0.227   5.652   7.459
13005WAT      O39256   1.110   0.509   4.554
13005WAT     H139257   1.195   0.474   4.515
13005WAT     H239258   1.046   0.530   4.481
13006WAT      O39259   3.160   7.165   3.090
13006WAT     H139260   3.069   7.167   3.050
13006WAT     H239261   3.158   7.205   3.182
13007WAT      O39262   2.296   2.293   9.838
13007WAT     H139263   2.209   2.271   9.882
13007WAT     H239264   2.313   2.226   9.765
13008WAT      O39265   9.103   8.753   4.171
13008WAT     H139266   9.192   8.745   4.216
13008WAT     H239267   9.110   8.720   4.077
13009WAT      O39268   4.637   1.924   1.299
13009WAT     H139269   4.561   1.988   1.309
13009WAT     H239270   4.724   1.974   1.304
13010WAT      O39271   7.531   8.358   8.319
13010WAT     H139272   7.500   8.437   8.265
13010WAT     H239273   7.593   8.389   8.390
13011WAT      O39274   6.568   1.143   4.155
13011WAT     H139275   6.608   1.145   4.247
13011WAT     H239276   6.572   1.234   4.114
13012WAT      O39277   9.860   7.752   1.763
13012WAT     H139278   9.934   7.738   1.698
13012WAT     H239279   9.789   7.808   1.721
13013WAT      O39280   8.582   1.222   1.376
13013WAT     H139281   8.609   1.301   1.320
13013WAT     H239282   8.620   1.231   1.468
13014WAT      O39283   1.408   8.195   3.594
13014WAT     H139284   1.368   8.193   3.503
13014WAT     H239285   1.422   8.102   3.627
13015WAT      O39286   0.071   6.480   0.529
13015WAT     H139287   0.098   6.573   0.552
13015WAT     H239288   0.038   6.477   0.435
13016WAT      O39289   9.696   3.830   3.863
13016WAT     H139290   9.632   3.789   3.928
13016WAT     H239291   9.727   3.919   3.898
13017WAT      O39292   8.200   3.697   5.861
13017WAT     H139293   8.241   3.649   5.783
13017WAT     H239294   8.241   3.788   5.868
13018WAT      O39295   8.311   7.285   5.603
13018WAT     H139296   8.341   7.192   5.585
13018WAT     H239297   8.305   7.300   5.702
13019WAT      O39298   9.501   8.203   0.525
13019WAT     H139299   9.551   8.176   0.443
13019WAT     H239300   9.439   8.130   0.552
13020WAT      O39301   6.753   8.519   4.781
13020WAT     H139302   6.703   8.550   4.701
13020WAT     H239303   6.731   8.578   4.859
13021WAT      O39304   5.599   4.616   1.392
13021WAT     H139305   5.649   4.703   1.394
13021WAT     H239306   5.657   4.546   1.351
13022WAT      O39307   4.312   5.246   3.614
13022WAT     H139308   4.382   5.177   3.633
13022WAT     H239309   4.353   5.324   3.567
13023WAT      O39310   3.084   1.069   3.457
13023WAT     H139311   3.051   1.010   3.530
13023WAT     H239312   3.013   1.135   3.432
13024WAT      O39313   3.410   4.401   0.047
13024WAT     H139314   3.499   4.404   0.001
13024WAT     H239315   3.380   4.493   0.070
13025WAT      O39316   3.619   6.008   5.212
13025WAT     H139317   3.717   5.991   5.205
13025WAT     H239318   3.599   6.103   5.190
13026WAT      O39319   4.897   7.860   3.829
13026WAT     H139320   4.983   7.810   3.821
13026WAT     H239321   4.845   7.824   3.907
13027WAT      O39322   5.353   4.573   2.276
13027WAT     H139323   5.353   4.611   2.184
13027WAT     H239324   5.260   4.578   2.314
13028WAT      O39325   1.752   3.009   9.621
13028WAT     H139326   1.838   3.041   9.661
13028WAT     H239327   1.718   3.075   9.554
13029WAT      O39328   9.106   5.038   4.401
13029WAT     H139329   9.107   5.136   4.418
13029WAT     H239330   9.196   5.008   4.370
13030WAT      O39331   8.882   3.397   8.439
13030WAT     H139332   8.916   3.490   8.455
13030WAT     H239333   8.861   3.385   8.342
13031WAT      O39334   5.927   5.538   6.648
13031WAT     H139335   5.913   5.509   6.554
13031WAT     H239336   5.994   5.478   6.692
13032WAT      O39337   1.531   2.965   6.811
13032WAT     H139338   1.472   2.961   6.730
13032WAT     H239339   1.484   3.012   6.885
13033WAT      O39340   1.810   5.084   8.890
13033WAT     H139341   1.724   5.060   8.935
13033WAT     H239342   1.879   5.107   8.959
13034WAT      O39343   3.573   3.063   9.259
13034WAT     H139344   3.579   3.064   9.359
13034WAT     H239345   3.654   3.109   9.221
13035WAT      O39346   8.615   7.486   7.527
13035WAT     H139347   8.682   7.480   7.454
13035WAT     H239348   8.608   7.580   7.559
13036WAT      O39349   4.467   6.341   3.232
13036WAT     H139350   4.456   6.382   3.322
13036WAT     H239351   4.433   6.246   3.235
13037WAT      O39352   7.613   8.891   6.972
13037WAT     H139353   7.646   8.943   7.050
13037WAT     H239354   7.545   8.946   6.922
13038WAT      O39355   6.595   8.339   7.964
13038WAT     H139356   6.693   8.327   7.978
13038WAT     H239357   6.579   8.403   7.889
13039WAT      O39358   3.579   6.642   9.474
13039WAT     H139359   3.654   6.707   9.482
13039WAT     H239360   3.557   6.628   9.377
13040WAT      O39361   6.123   3.807   5.026
13040WAT     H139362   6.052   3.874   5.004
13040WAT     H239363   6.172   3.781   4.943
13041WAT      O39364   2.978   2.084   6.227
13041WAT     H139365   3.041   2.152   6.189
13041WAT     H239366   2.971   2.096   6.326
13042WAT      O39367   3.534   6.406   0.938
13042WAT     H139368   3.475   6.484   0.917
13042WAT     H239369   3.617   6.438   0.983
13043WAT      O39370   2.680   4.079   7.117
13043WAT     H139371   2.767   4.030   7.117
13043WAT     H239372   2.673   4.134   7.033
13044WAT      O39373   5.724   5.752   9.787
13044WAT     H139374   5.668   5.682   9.831
13044WAT     H239375   5.771   5.806   9.857
13045WAT      O39376   4.491   0.549   8.879
13045WAT     H139377   4.458   0.587   8.965
13045WAT     H239378   4.507   0.451   8.889
13046WAT      O39379   4.724   5.715   5.312
13046WAT     H139380   4.678   5.730   5.224
13046WAT     H239381   4.708   5.794   5.372
13047WAT      O39382   1.675   4.732   6.450
13047WAT     H139383   1.762   4.741   6.402
13047WAT     H239384   1.648   4.820   6.489
13048WAT      O39385   5.334   3.103   5.329
13048WAT     H139386   5.271   3.105   5.251
13048WAT     H239387   5.284   3.124   5.413
13049WAT      O39388   1.993   5.128   9.101
13049WAT     H139389   1.983   5.151   9.198
13049WAT     H239390   2.057   5.052   9.091
13050WAT      O39391   3.905   8.934   5.506
13050WAT     H139392   3.878   8.864   5.440
13050WAT     H239393   3.840   9.010   5.504
13051WAT      O39394   2.533   4.101   9.523
13051WAT     H139395   2.543   4.034   9.597
13051WAT     H239396   2.440   4.096   9.487
13052WAT      O39397   2.713   7.666   5.803
13052WAT     H139398   2.652   7.609   5.858
13052WAT     H239399   2.803   7.622   5.797
13053WAT      O39400   8.487   8.508   2.082
13053WAT     H139401   8.439   8.580   2.133
13053WAT     H239402   8.563   8.473   2.136
13054WAT      O39403   1.874   4.721   1.839
13054WAT     H139404   1.819   4.649   1.881
13054WAT     H239405   1.896   4.697   1.745
13055WAT      O39406   5.149   6.815   9.465
13055WAT     H139407   5.231   6.766   9.494
13055WAT     H239408   5.069   6.774   9.509
13056WAT      O39409   0.468   7.157   0.288
13056WAT     H139410   0.463   7.116   0.198
13056WAT     H239411   0.555   7.207   0.297
13057WAT      O39412   1.283   6.261   0.133
13057WAT     H139413   1.351   6.205   0.181
13057WAT     H239414   1.322   6.352   0.114
13058WAT      O39415   3.439   2.081   5.766
13058WAT     H139416   3.513   2.023   5.731
13058WAT     H239417   3.467   2.121   5.853
13059WAT      O39418   8.715   5.208   4.310
13059WAT     H139419   8.673   5.278   4.253
13059WAT     H239420   8.749   5.134   4.252
13060WAT      O39421   7.775   2.039   0.155
13060WAT     H139422   7.694   2.071   0.106
13060WAT     H239423   7.828   2.117   0.188
13061WAT      O39424   3.079   0.010   0.523
13061WAT     H139425   3.077  -0.025   0.429
13061WAT     H239426   3.152   0.078   0.531
13062WAT      O39427   8.154   5.758   5.202
13062WAT     H139428   8.080   5.703   5.165
13062WAT     H239429   8.140   5.854   5.176
13063WAT      O39430   0.547   0.151   8.586
13063WAT     H139431   0.485   0.202   8.527
13063WAT     H239432   0.630   0.204   8.602
13064WAT      O39433   9.886   3.765   9.372
13064WAT     H139434   9.802   3.813   9.397
13064WAT     H239435   9.949   3.765   9.450
13065WAT      O39436   9.416   8.486   1.879
13065WAT     H139437   9.492   8.447   1.826
13065WAT     H239438   9.446   8.570   1.924
13066WAT      O39439   5.802   8.185   1.423
13066WAT     H139440   5.742   8.141   1.490
13066WAT     H239441   5.804   8.284   1.438
13067WAT      O39442   0.935   7.794   5.104
13067WAT     H139443   0.953   7.801   5.006
13067WAT     H239444   0.854   7.847   5.128
13068WAT      O39445   9.453   4.892   4.627
13068WAT     H139446   9.358   4.887   4.658
13068WAT     H239447   9.486   4.801   4.604
13069WAT      O39448   5.692   1.360   4.535
13069WAT     H139449   5.732   1.292   4.596
13069WAT     H239450   5.675   1.445   4.585
13070WAT      O39451   2.011   9.215   6.996
13070WAT     H139452   2.110   9.204   7.006
13070WAT     H239453   1.981   9.178   6.908
13071WAT      O39454   4.744   3.833   2.513
13071WAT     H139455   4.647   3.843   2.491
13071WAT     H239456   4.768   3.900   2.584
13072WAT      O39457   8.454   5.873   5.504
13072WAT     H139458   8.507   5.908   5.581
13072WAT     H239459   8.475   5.776   5.492
13073WAT      O39460   7.634   2.974   0.893
13073WAT     H139461   7.627   2.875   0.881
13073WAT     H239462   7.602   2.998   0.985
13074WAT      O39463   9.420   0.158   3.162
13074WAT     H139464   9.378   0.092   3.225
13074WAT     H239465   9.486   0.111   3.104
13075WAT      O39466   6.093   2.876   3.273
13075WAT     H139467   6.161   2.945   3.249
13075WAT     H239468   6.036   2.857   3.193
13076WAT      O39469   2.740   1.992   6.466
13076WAT     H139470   2.666   2.025   6.407
13076WAT     H239471   2.710   1.910   6.514
13077WAT      O39472   4.311   8.885   9.719
13077WAT     H139473   4.364   8.863   9.637
13077WAT     H239474   4.250   8.962   9.700
13078WAT      O39475   8.980   5.234   9.431
13078WAT     H139476   9.054   5.203   9.491
13078WAT     H239477   8.999   5.205   9.337
13079WAT      O39478   7.089   8.540   1.440
13079WAT     H139479   6.997   8.536   1.400
13079WAT     H239480   7.111   8.452   1.481
13080WAT      O39481   9.478   7.370   1.921
13080WAT     H139482   9.457   7.408   2.012
13080WAT     H239483   9.559   7.312   1.927
13081WAT      O39484   7.682   7.080   4.746
13081WAT     H139485   7.583   7.083   4.759
13081WAT     H239486   7.727   7.125   4.823
13082WAT      O39487   4.782   4.886   9.611
13082WAT     H139488   4.835   4.813   9.654
13082WAT     H239489   4.757   4.954   9.680
13083WAT      O39490   5.959   1.666   8.860
13083WAT     H139491   5.939   1.677   8.762
13083WAT     H239492   5.881   1.697   8.914
13084WAT      O39493   8.738   8.850   1.099
13084WAT     H139494   8.825   8.804   1.117
13084WAT     H239495   8.727   8.928   1.160
13085WAT      O39496   3.648   3.784   0.084
13085WAT     H139497   3.561   3.817   0.050
13085WAT     H239498   3.722   3.842   0.049
13086WAT      O39499   8.842   4.999   6.299
13086WAT     H139500   8.792   4.936   6.240
13086WAT     H239501   8.903   4.946   6.359
13087WAT      O39502   0.796   8.218   3.298
13087WAT     H139503   0.711   8.210   3.247
13087WAT     H239504   0.801   8.145   3.366
13088WAT      O39505   2.792   9.487   9.680
13088WAT     H139506   2.729   9.449   9.747
13088WAT     H239507   2.761   9.578   9.652
13089WAT      O39508   2.049   7.158   3.891
13089WAT     H139509   2.001   7.161   3.803
13089WAT     H239510   2.057   7.063   3.921
13090WAT      O39511   3.519   4.359   4.572
13090WAT     H139512   3.608   4.371   4.528
13090WAT     H239513   3.451   4.416   4.527
13091WAT      O39514   6.916   7.076   3.843
13091WAT     H139515   6.947   7.077   3.748
13091WAT     H239516   6.951   7.156   3.891
13092WAT      O39517   8.099   4.631   6.837
13092WAT     H139518   8.157   4.629   6.918
13092WAT     H239519   8.003   4.637   6.865
13093WAT      O39520   5.754   4.290   3.493
13093WAT     H139521   5.835   4.349   3.490
13093WAT     H239522   5.677   4.343   3.528
13094WAT      O39523   0.719   2.226   6.563
13094WAT     H139524   0.795   2.169   6.596
13094WAT     H239525   0.737   2.254   6.469
13095WAT      O39526   1.122   0.056   6.083
13095WAT     H139527   1.199   0.011   6.039
13095WAT     H239528   1.055   0.083   6.014
13096WAT      O39529   9.211   3.598   5.452
13096WAT     H139530   9.238   3.566   5.361
13096WAT     H239531   9.243   3.532   5.520
13097WAT      O39532   5.471   2.539   3.373
13097WAT     H139533   5.570   2.522   3.373
13097WAT     H239534   5.435   2.523   3.281
13098WAT      O39535   2.364   5.475   3.126
13098WAT     H139536   2.381   5.550   3.062
13098WAT     H239537   2.291   5.502   3.190
13099WAT      O39538   2.480   9.052   1.235
13099WAT     H139539   2.526   8.984   1.293
13099WAT     H239540   2.427   9.005   1.164
13100WAT      O39541   3.250   9.366   2.012
13100WAT     H139542   3.333   9.331   2.055
13100WAT     H239543   3.218   9.447   2.061
13101WAT      O39544   9.421   5.976   1.017
13101WAT     H139545   9.473   6.048   1.063
13101WAT     H239546   9.440   5.889   1.061
13102WAT      O39547   0.594   6.077   8.252
13102WAT     H139548   0.670   6.040   8.198
13102WAT     H239549   0.608   6.175   8.267
13103WAT      O39550   2.193   1.334   7.700
13103WAT     H139551   2.105   1.378   7.717
13103WAT     H239552   2.201   1.251   7.755
13104WAT      O39553   6.820   0.465   8.831
13104WAT     H139554   6.864   0.409   8.901
13104WAT     H239555   6.833   0.562   8.852
13105WAT      O39556   5.390   8.993   8.789
13105WAT     H139557   5.375   8.895   8.772
13105WAT     H239558   5.344   9.047   8.719
13106WAT      O39559   0.982   1.923   3.661
13106WAT     H139560   1.032   2.009   3.653
13106WAT     H239561   1.045   1.849   3.684
13107WAT      O39562   0.538   9.220   0.310
13107WAT     H139563   0.501   9.305   0.348
13107WAT     H239564   0.497   9.203   0.220
13108WAT      O39565   0.912   5.209   3.192
13108WAT     H139566   0.968   5.243   3.268
13108WAT     H239567   0.844   5.145   3.227
13109WAT      O39568   4.575   9.453   2.384
13109WAT     H139569   4.656   9.400   2.410
13109WAT     H239570   4.602   9.546   2.363
13110WAT      O39571   6.710   7.495   5.460
13110WAT     H139572   6.630   7.465   5.513
13110WAT     H239573   6.696   7.473   5.363
13111WAT      O39574   3.995   4.579   6.687
13111WAT     H139575   4.090   4.604   6.675
13111WAT     H239576   3.937   4.637   6.630
13112WAT      O39577   1.561   1.691   9.116
13112WAT     H139578   1.570   1.596   9.145
13112WAT     H239579   1.601   1.702   9.025
13113WAT      O39580   6.986   7.043   0.453
13113WAT     H139581   6.917   7.099   0.407
13113WAT     H239582   6.963   7.035   0.550
13114WAT      O39583   2.561   0.437   6.351
13114WAT     H139584   2.567   0.386   6.265
13114WAT     H239585   2.652   0.466   6.380
13115WAT      O39586   1.840   5.074   0.610
13115WAT     H139587   1.801   5.098   0.698
13115WAT     H239588   1.874   4.980   0.613
13116WAT      O39589   0.628   4.367   7.569
13116WAT     H139590   0.650   4.333   7.661
13116WAT     H239591   0.701   4.426   7.537
13117WAT      O39592   2.412   3.786  -0.002
13117WAT     H139593   2.432   3.787   0.096
13117WAT     H239594   2.463   3.859  -0.047
13118WAT      O39595   9.179   8.241   0.323
13118WAT     H139596   9.253   8.241   0.256
13118WAT     H239597   9.173   8.331   0.366
13119WAT      O39598   2.518   0.853   7.674
13119WAT     H139599   2.482   0.906   7.597
13119WAT     H239600   2.545   0.762   7.641
13120WAT      O39601   3.102   1.503   7.494
13120WAT     H139602   3.137   1.415   7.462
13120WAT     H239603   3.080   1.498   7.591
13121WAT      O39604   9.104   9.140   9.646
13121WAT     H139605   9.188   9.192   9.662
13121WAT     H239606   9.076   9.150   9.551
13122WAT      O39607   5.019   5.275   2.795
13122WAT     H139608   4.940   5.271   2.856
13122WAT     H239609   4.998   5.335   2.718
13123WAT      O39610   9.816   9.629   1.114
13123WAT     H139611   9.729   9.649   1.069
13123WAT     H239612   9.800   9.608   1.210
13124WAT      O39613   9.711   2.880   4.780
13124WAT     H139614   9.683   2.955   4.839
13124WAT     H239615   9.656   2.880   4.697
13125WAT      O39616   5.162   9.835   8.624
13125WAT     H139617   5.121   9.913   8.578
13125WAT     H239618   5.261   9.849   8.632
13126WAT      O39619   5.984   8.094   7.400
13126WAT     H139620   6.049   8.022   7.421
13126WAT     H239621   5.973   8.101   7.301
13127WAT      O39622   4.394   2.086   0.344
13127WAT     H139623   4.338   2.013   0.304
13127WAT     H239624   4.419   2.151   0.272
13128WAT      O39625   8.835   4.171   7.669
13128WAT     H139626   8.802   4.260   7.701
13128WAT     H239627   8.933   4.164   7.685
13129WAT      O39628   2.297   2.054   4.914
13129WAT     H139629   2.285   2.148   4.946
13129WAT     H239630   2.388   2.022   4.942
13130WAT      O39631   7.692   7.078   0.533
13130WAT     H139632   7.695   7.172   0.497
13130WAT     H239633   7.768   7.026   0.495
13131WAT      O39634   5.146   1.542   0.533
13131WAT     H139635   5.164   1.444   0.525
13131WAT     H239636   5.184   1.589   0.453
13132WAT      O39637   5.729   9.488   1.258
13132WAT     H139638   5.656   9.422   1.275
13132WAT     H239639   5.725   9.518   1.162
13133WAT      O39640   6.904   9.366   7.440
13133WAT     H139641   6.929   9.324   7.527
13133WAT     H239642   6.848   9.447   7.457
13134WAT      O39643   5.950   3.041   8.754
13134WAT     H139644   6.031   3.099   8.765
13134WAT     H239645   5.909   3.024   8.843
13135WAT      O39646   0.638   2.027   2.942
13135WAT     H139647   0.666   2.121   2.921
13135WAT     H239648   0.687   1.964   2.882
13136WAT      O39649   8.613   0.299   6.780
13136WAT     H139650   8.559   0.308   6.696
13136WAT     H239651   8.653   0.207   6.784
13137WAT      O39652   7.981   8.070   5.445
13137WAT     H139653   7.985   8.170   5.452
13137WAT     H239654   8.004   8.029   5.533
13138WAT      O39655   8.860   4.056   7.305
13138WAT     H139656   8.783   4.029   7.363
13138WAT     H239657   8.902   3.974   7.265
13139WAT      O39658   6.928   3.783   5.612
13139WAT     H139659   6.906   3.707   5.672
13139WAT     H239660   7.027   3.801   5.615
13140WAT      O39661   7.197   7.655   6.510
13140WAT     H139662   7.286   7.615   6.493
13140WAT     H239663   7.204   7.723   6.582
13141WAT      O39664   3.091   9.075   8.442
13141WAT     H139665   3.088   9.174   8.433
13141WAT     H239666   3.014   9.034   8.394
13142WAT      O39667   2.005   3.333   9.381
13142WAT     H139668   1.910   3.305   9.365
13142WAT     H239669   2.007   3.409   9.446
13143WAT      O39670   7.245   2.637   7.470
13143WAT     H139671   7.227   2.653   7.373
13143WAT     H239672   7.232   2.723   7.521
13144WAT      O39673   4.456   6.550   1.747
13144WAT     H139674   4.443   6.617   1.674
13144WAT     H239675   4.531   6.578   1.806
13145WAT      O39676   8.564   1.813   5.052
13145WAT     H139677   8.560   1.899   5.102
13145WAT     H239678   8.586   1.831   4.956
13146WAT      O39679   9.068   0.173   4.651
13146WAT     H139680   9.047   0.097   4.589
13146WAT     H239681   9.123   0.139   4.728
13147WAT      O39682   7.367   5.820   3.418
13147WAT     H139683   7.336   5.848   3.509
13147WAT     H239684   7.373   5.720   3.415
13148WAT      O39685   6.350   4.227   7.693
13148WAT     H139686   6.252   4.219   7.715
13148WAT     H239687   6.389   4.305   7.742
13149WAT      O39688   6.156   7.034   8.609
13149WAT     H139689   6.223   7.057   8.680
13149WAT     H239690   6.195   6.966   8.547
13150WAT      O39691   4.416   1.020   1.688
13150WAT     H139692   4.373   1.069   1.764
13150WAT     H239693   4.426   1.082   1.610
13151WAT      O39694   1.061   7.177   9.323
13151WAT     H139695   0.976   7.194   9.372
13151WAT     H239696   1.065   7.233   9.240
13152WAT      O39697   1.099   0.984   3.079
13152WAT     H139698   1.115   0.977   3.178
13152WAT     H239699   1.124   1.076   3.048
13153WAT      O39700   2.631   6.563   4.642
13153WAT     H139701   2.561   6.630   4.616
13153WAT     H239702   2.615   6.533   4.736
13154WAT      O39703   2.653   4.672   9.155
13154WAT     H139704   2.618   4.650   9.246
13154WAT     H239705   2.734   4.617   9.136
13155WAT      O39706   3.148   3.839   7.822
13155WAT     H139707   3.220   3.838   7.891
13155WAT     H239708   3.129   3.745   7.793
13156WAT      O39709   5.714   9.588   7.635
13156WAT     H139710   5.658   9.548   7.707
13156WAT     H239711   5.791   9.527   7.615
13157WAT      O39712   6.070   6.143   4.284
13157WAT     H139713   6.003   6.127   4.211
13157WAT     H239714   6.152   6.185   4.246
13158WAT      O39715   4.761   0.262   5.283
13158WAT     H139716   4.831   0.192   5.295
13158WAT     H239717   4.777   0.311   5.197
13159WAT      O39718   2.322   4.908   4.120
13159WAT     H139719   2.398   4.952   4.072
13159WAT     H239720   2.336   4.916   4.219
13160WAT      O39721   3.695   0.580   2.985
13160WAT     H139722   3.616   0.565   2.926
13160WAT     H239723   3.769   0.620   2.931
13161WAT      O39724   5.419   2.305   3.019
13161WAT     H139725   5.320   2.287   3.016
13161WAT     H239726   5.461   2.246   3.087
13162WAT      O39727   2.137   4.298   8.655
13162WAT     H139728   2.225   4.311   8.609
13162WAT     H239729   2.070   4.361   8.614
13163WAT      O39730   2.393   6.897   0.450
13163WAT     H139731   2.454   6.819   0.464
13163WAT     H239732   2.436   6.962   0.388
13164WAT      O39733   0.635   9.221   3.559
13164WAT     H139734   0.568   9.150   3.538
13164WAT     H239735   0.617   9.258   3.650
13165WAT      O39736   7.191   3.542   2.119
13165WAT     H139737   7.172   3.543   2.217
13165WAT     H239738   7.145   3.619   2.075
13166WAT      O39739   6.206   3.844   3.815
13166WAT     H139740   6.190   3.844   3.913
13166WAT     H239741   6.127   3.803   3.768
13167WAT      O39742   9.824   6.852   5.180
13167WAT     H139743   9.898   6.918   5.192
13167WAT     H239744   9.742   6.886   5.225
13168WAT      O39745   7.178   9.426   5.419
13168WAT     H139746   7.211   9.348   5.367
13168WAT     H239747   7.125   9.486   5.359
13169WAT      O39748   4.847   0.253   5.646
13169WAT     H139749   4.903   0.310   5.707
13169WAT     H239750   4.782   0.311   5.597
13170WAT      O39751   0.084   0.029   6.859
13170WAT     H139752   0.015  -0.034   6.893
13170WAT     H239753   0.092   0.106   6.923
13171WAT      O39754   8.407   7.466   6.321
13171WAT     H139755   8.411   7.522   6.238
13171WAT     H239756   8.390   7.526   6.400
13172WAT      O39757   6.504   6.338   7.800
13172WAT     H139758   6.494   6.285   7.884
13172WAT     H239759   6.591   6.388   7.802
13173WAT      O39760   7.371   6.494   9.123
13173WAT     H139761   7.434   6.429   9.166
13173WAT     H239762   7.414   6.532   9.042
13174WAT      O39763   3.576   7.947   5.403
13174WAT     H139764   3.531   7.859   5.388
13174WAT     H239765   3.606   7.985   5.316
13175WAT      O39766   7.613   9.235   6.656
13175WAT     H139767   7.602   9.262   6.561
13175WAT     H239768   7.592   9.313   6.715
13176WAT      O39769   2.316   8.087   2.080
13176WAT     H139770   2.345   7.993   2.097
13176WAT     H239771   2.375   8.150   2.130
13177WAT      O39772   8.666   8.455   1.156
13177WAT     H139773   8.613   8.415   1.081
13177WAT     H239774   8.749   8.497   1.120
13178WAT      O39775   7.901   7.285   9.843
13178WAT     H139776   7.816   7.313   9.887
13178WAT     H239777   7.930   7.196   9.877
13179WAT      O39778   9.139   2.831   0.489
13179WAT     H139779   9.209   2.866   0.550
13179WAT     H239780   9.087   2.908   0.451
13180WAT      O39781   2.417   2.958   7.872
13180WAT     H139782   2.422   2.870   7.920
13180WAT     H239783   2.500   2.971   7.818
13181WAT      O39784   4.388   9.722   4.013
13181WAT     H139785   4.358   9.690   3.923
13181WAT     H239786   4.342   9.808   4.035
13182WAT      O39787   1.153   7.759   8.415
13182WAT     H139788   1.055   7.772   8.431
13182WAT     H239789   1.169   7.668   8.378
13183WAT      O39790   0.108   0.865   2.598
13183WAT     H139791   0.064   0.790   2.548
13183WAT     H239792   0.117   0.945   2.538
13184WAT      O39793   5.396   8.153   1.119
13184WAT     H139794   5.365   8.224   1.056
13184WAT     H239795   5.495   8.159   1.129
13185WAT      O39796   7.871   9.107   3.340
13185WAT     H139797   7.949   9.053   3.306
13185WAT     H239798   7.794   9.046   3.356
13186WAT      O39799   2.486   0.735   0.805
13186WAT     H139800   2.482   0.689   0.894
13186WAT     H239801   2.558   0.694   0.750
13187WAT      O39802   1.747   2.248   9.275
13187WAT     H139803   1.685   2.218   9.348
13187WAT     H239804   1.756   2.347   9.278
13188WAT      O39805   6.510   4.039   1.016
13188WAT     H139806   6.470   4.128   0.995
13188WAT     H239807   6.588   4.052   1.078
13189WAT      O39808   6.242   3.859   6.509
13189WAT     H139809   6.143   3.863   6.495
13189WAT     H239810   6.272   3.943   6.554
13190WAT      O39811   4.738   7.264   2.986
13190WAT     H139812   4.835   7.286   2.993
13190WAT     H239813   4.703   7.238   3.076
13191WAT      O39814   5.891   2.833   1.027
13191WAT     H139815   5.798   2.867   1.037
13191WAT     H239816   5.930   2.865   0.940
13192WAT      O39817   0.132   3.665   2.755
13192WAT     H139818   0.065   3.706   2.816
13192WAT     H239819   0.137   3.566   2.773
13193WAT      O39820   3.217   7.815   9.133
13193WAT     H139821   3.222   7.716   9.149
13193WAT     H239822   3.172   7.858   9.211
13194WAT      O39823   6.174   7.617   0.201
13194WAT     H139824   6.123   7.532   0.216
13194WAT     H239825   6.173   7.672   0.284
13195WAT      O39826   7.448   6.983   4.837
13195WAT     H139827   7.372   6.983   4.903
13195WAT     H239828   7.443   6.900   4.782
13196WAT      O39829   1.809   2.768   6.127
13196WAT     H139830   1.754   2.830   6.183
13196WAT     H239831   1.884   2.731   6.182
13197WAT      O39832   1.092   7.345   1.250
13197WAT     H139833   1.112   7.354   1.347
13197WAT     H239834   1.151   7.406   1.197
13198WAT      O39835   8.987   7.221   4.778
13198WAT     H139836   8.907   7.161   4.781
13198WAT     H239837   8.997   7.259   4.686
13199WAT      O39838   4.708   0.810   8.869
13199WAT     H139839   4.681   0.794   8.964
13199WAT     H239840   4.760   0.731   8.836
13200WAT      O39841   4.604   6.865   0.742
13200WAT     H139842   4.545   6.805   0.796
13200WAT     H239843   4.667   6.913   0.803
13201WAT      O39844   0.948   1.917   1.938
13201WAT     H139845   0.884   1.989   1.912
13201WAT     H239846   0.898   1.839   1.974
13202WAT      O39847   7.225   3.391   6.723
13202WAT     H139848   7.160   3.425   6.791
13202WAT     H239849   7.318   3.421   6.748
13203WAT      O39850   9.395   0.940   3.385
13203WAT     H139851   9.387   1.040   3.380
13203WAT     H239852   9.358   0.899   3.302
13204WAT      O39853   2.790   4.200   3.986
13204WAT     H139854   2.718   4.132   3.985
13204WAT     H239855   2.769   4.271   4.053
13205WAT      O39856   2.034   4.515   7.531
13205WAT     H139857   2.012   4.486   7.437
13205WAT     H239858   1.971   4.472   7.595
13206WAT      O39859   9.745   4.067   5.889
13206WAT     H139860   9.660   4.101   5.848
13206WAT     H239861   9.823   4.101   5.837
13207WAT      O39862   6.649   3.642   1.542
13207WAT     H139863   6.724   3.639   1.607
13207WAT     H239864   6.596   3.557   1.547
13208WAT      O39865   4.339   1.981   4.566
13208WAT     H139866   4.332   2.064   4.621
13208WAT     H239867   4.273   1.914   4.598
13209WAT      O39868   2.953   2.953   1.640
13209WAT     H139869   2.879   2.897   1.676
13209WAT     H239870   2.975   2.924   1.547
13210WAT      O39871   1.665   8.470   9.586
13210WAT     H139872   1.722   8.456   9.505
13210WAT     H239873   1.595   8.539   9.567
13211WAT      O39874   6.400   5.346   7.174
13211WAT     H139875   6.424   5.362   7.078
13211WAT     H239876   6.301   5.331   7.181
13212WAT      O39877   0.972   7.573   3.836
13212WAT     H139878   0.967   7.628   3.753
13212WAT     H239879   1.044   7.504   3.827
13213WAT      O39880   7.443   3.781   1.015
13213WAT     H139881   7.391   3.764   1.100
13213WAT     H239882   7.514   3.849   1.033
13214WAT      O39883   2.626   4.920   9.767
13214WAT     H139884   2.694   4.992   9.750
13214WAT     H239885   2.554   4.925   9.698
13215WAT      O39886   0.860   8.263   5.688
13215WAT     H139887   0.815   8.184   5.729
13215WAT     H239888   0.914   8.311   5.757
13216WAT      O39889   6.083   0.285   0.356
13216WAT     H139890   6.065   0.300   0.259
13216WAT     H239891   6.146   0.208   0.365
13217WAT      O39892   1.234   1.835   9.849
13217WAT     H139893   1.146   1.848   9.803
13217WAT     H239894   1.224   1.764   9.919
13218WAT      O39895   3.560   7.143   2.095
13218WAT     H139896   3.485   7.179   2.040
13218WAT     H239897   3.609   7.219   2.138
13219WAT      O39898   5.192   8.475   2.114
13219WAT     H139899   5.098   8.472   2.147
13219WAT     H239900   5.255   8.486   2.191
13220WAT      O39901   2.740   8.953   6.010
13220WAT     H139902   2.688   8.869   6.023
13220WAT     H239903   2.700   9.026   6.066
13221WAT      O39904   5.078   6.401   5.307
13221WAT     H139905   5.172   6.399   5.271
13221WAT     H239906   5.059   6.492   5.343
13222WAT      O39907   6.864   3.692   2.112
13222WAT     H139908   6.850   3.595   2.092
13222WAT     H239909   6.955   3.719   2.083
13223WAT      O39910   3.614   2.909   3.885
13223WAT     H139911   3.575   2.993   3.923
13223WAT     H239912   3.622   2.918   3.786
13224WAT      O39913   8.474   2.577   5.529
13224WAT     H139914   8.471   2.479   5.549
13224WAT     H239915   8.568   2.602   5.503
13225WAT      O39916   8.402   6.571   2.663
13225WAT     H139917   8.350   6.637   2.608
13225WAT     H239918   8.420   6.489   2.608
13226WAT      O39919   6.864   7.696   7.757
13226WAT     H139920   6.790   7.632   7.735
13226WAT     H239921   6.892   7.744   7.674
13227WAT      O39922   7.722   1.940   3.185
13227WAT     H139923   7.754   1.874   3.253
13227WAT     H239924   7.629   1.916   3.157
13228WAT      O39925   6.132   5.039   6.863
13228WAT     H139926   6.063   4.981   6.906
13228WAT     H239927   6.219   5.029   6.911
13229WAT      O39928   7.008   9.110   4.241
13229WAT     H139929   7.072   9.187   4.244
13229WAT     H239930   7.012   9.060   4.327
13230WAT      O39931   0.082   6.554   9.333
13230WAT     H139932  -0.008   6.512   9.341
13230WAT     H239933   0.105   6.601   9.418
13231WAT      O39934   3.603   8.703   8.507
13231WAT     H139935   3.686   8.742   8.466
13231WAT     H239936   3.551   8.775   8.553
13232WAT      O39937   0.200   1.465   3.777
13232WAT     H139938   0.185   1.508   3.866
13232WAT     H239939   0.281   1.505   3.734
13233WAT      O39940   0.048   2.764   2.432
13233WAT     H139941   0.146   2.748   2.420
13233WAT     H239942   0.020   2.846   2.381
13234WAT      O39943   7.820   9.684   1.447
13234WAT     H139944   7.779   9.594   1.429
13234WAT     H239945   7.758   9.738   1.504
13235WAT      O39946   7.319   5.596   5.094
13235WAT     H139947   7.372   5.666   5.046
13235WAT     H239948   7.369   5.565   5.175
13236WAT      O39949   2.631   2.791   1.472
13236WAT     H139950   2.540   2.792   1.431
13236WAT     H239951   2.624   2.779   1.571
13237WAT      O39952   8.882   0.017   8.370
13237WAT     H139953   8.973   0.051   8.393
13237WAT     H239954   8.890  -0.060   8.307
13238WAT      O39955   3.671   1.330   5.301
13238WAT     H139956   3.612   1.410   5.293
13238WAT     H239957   3.710   1.326   5.393
13239WAT      O39958   9.835   1.943   8.094
13239WAT     H139959   9.828   2.038   8.126
13239WAT     H239960   9.769   1.928   8.020
13240WAT      O39961   1.557   0.633   0.156
13240WAT     H139962   1.464   0.625   0.120
13240WAT     H239963   1.584   0.729   0.160
13241WAT      O39964   3.272   1.912   5.917
13241WAT     H139965   3.301   2.005   5.894
13241WAT     H239966   3.228   1.912   6.006
13242WAT      O39967   6.423   3.747   7.467
13242WAT     H139968   6.328   3.764   7.495
13242WAT     H239969   6.439   3.789   7.378
13243WAT      O39970   2.442   7.152   8.713
13243WAT     H139971   2.400   7.225   8.767
13243WAT     H239972   2.370   7.102   8.664
13244WAT      O39973   2.587   3.337   8.349
13244WAT     H139974   2.583   3.340   8.249
13244WAT     H239975   2.558   3.425   8.386
13245WAT      O39976   6.221   5.962   1.399
13245WAT     H139977   6.312   5.999   1.382
13245WAT     H239978   6.156   6.000   1.333
13246WAT      O39979   3.403   2.797   5.899
13246WAT     H139980   3.305   2.804   5.878
13246WAT     H239981   3.415   2.781   5.997
13247WAT      O39982   9.537   3.332   2.481
13247WAT     H139983   9.573   3.336   2.574
13247WAT     H239984   9.605   3.291   2.420
13248WAT      O39985   0.291   0.496   8.129
13248WAT     H139986   0.319   0.589   8.152
13248WAT     H239987   0.322   0.473   8.037
13249WAT      O39988   5.582   9.192   0.555
13249WAT     H139989   5.647   9.131   0.601
13249WAT     H239990   5.520   9.137   0.499
13250WAT      O39991   4.503   2.472   3.848
13250WAT     H139992   4.540   2.544   3.790
13250WAT     H239993   4.404   2.479   3.853
13251WAT      O39994   0.667   7.952   9.837
13251WAT     H139995   0.597   7.993   9.894
13251WAT     H239996   0.751   7.941   9.890
13252WAT      O39997   4.467   9.676   4.621
13252WAT     H139998   4.381   9.728   4.615
13252WAT     H239999   4.507   9.666   4.530
13253WAT      O40000   9.180   0.792   1.632
13253WAT     H140001   9.254   0.753   1.578
13253WAT     H240002   9.212   0.810   1.725
13254WAT      O40003   5.522   1.024   5.870
13254WAT     H140004   5.620   1.029   5.889
13254WAT     H240005   5.471   1.046   5.954
13255WAT      O40006   1.215   3.745   4.492
13255WAT     H140007   1.123   3.720   4.522
13255WAT     H240008   1.250   3.819   4.549
13256WAT      O40009   7.639   4.626   1.997
13256WAT     H140010   7.580   4.644   2.075
13256WAT     H240011   7.592   4.652   1.913
13257WAT      O40012   6.893   3.421   0.712
13257WAT     H140013   6.900   3.414   0.613
13257WAT     H240014   6.807   3.467   0.737
13258WAT      O40015   9.397   5.568   9.894
13258WAT     H140016   9.384   5.555   9.795
13258WAT     H240017   9.323   5.624   9.930
13259WAT      O40018   8.405   3.152   9.121
13259WAT     H140019   8.318   3.125   9.160
13259WAT     H240020   8.480   3.123   9.181
13260WAT      O40021   6.905   6.699   3.582
13260WAT     H140022   6.842   6.765   3.622
13260WAT     H240023   6.879   6.607   3.609
13261WAT      O40024   5.385   9.405   8.971
13261WAT     H140025   5.448   9.330   8.955
13261WAT     H240026   5.302   9.371   9.016
13262WAT      O40027   5.996   4.068   8.000
13262WAT     H140028   5.901   4.068   8.032
13262WAT     H240029   6.053   4.015   8.063
13263WAT      O40030   2.736   4.380   2.427
13263WAT     H140031   2.782   4.468   2.441
13263WAT     H240032   2.779   4.311   2.485
13264WAT      O40033   2.965   4.294   8.834
13264WAT     H140034   2.945   4.339   8.747
13264WAT     H240035   2.907   4.213   8.843
13265WAT      O40036   0.910   4.529   3.684
13265WAT     H140037   0.855   4.466   3.739
13265WAT     H240038   0.851   4.598   3.643
13266WAT      O40039   4.544   4.103   8.998
13266WAT     H140040   4.619   4.057   9.046
13266WAT     H240041   4.568   4.116   8.902
13267WAT      O40042   1.634   9.693   6.485
13267WAT     H140043   1.729   9.660   6.487
13267WAT     H240044   1.593   9.680   6.575
13268WAT      O40045   0.471   9.719   1.843
13268WAT     H140046   0.378   9.681   1.850
13268WAT     H240047   0.473   9.789   1.772
13269WAT      O40048   5.298   1.063   0.220
13269WAT     H140049   5.290   0.982   0.278
13269WAT     H240050   5.352   1.132   0.268
13270WAT      O40051   3.418   5.932   3.762
13270WAT     H140052   3.420   5.833   3.778
13270WAT     H240053   3.391   5.980   3.845
13271WAT      O40054   7.116   3.438   6.046
13271WAT     H140055   7.075   3.502   5.981
13271WAT     H240056   7.086   3.460   6.139
13272WAT      O40057   5.765   7.694   8.858
13272WAT     H140058   5.812   7.608   8.878
13272WAT     H240059   5.822   7.749   8.797
13273WAT      O40060   8.261   7.528   2.130
13273WAT     H140061   8.337   7.544   2.067
13273WAT     H240062   8.275   7.582   2.213
13274WAT      O40063   9.738   8.009   1.217
13274WAT     H140064   9.747   7.972   1.125
13274WAT     H240065   9.646   7.990   1.251
13275WAT      O40066   9.240   2.723   0.006
13275WAT     H140067   9.241   2.626   0.027
13275WAT     H240068   9.163   2.744  -0.054
13276WAT      O40069   4.155   3.054   0.720
13276WAT     H140070   4.252   3.079   0.719
13276WAT     H240071   4.147   2.954   0.717
13277WAT      O40072   9.089   9.145   6.917
13277WAT     H140073   9.010   9.138   6.978
13277WAT     H240074   9.092   9.066   6.857
13278WAT      O40075   0.213   2.722   8.656
13278WAT     H140076   0.179   2.671   8.735
13278WAT     H240077   0.283   2.668   8.609
13279WAT      O40078   8.895   0.032   6.052
13279WAT     H140079   8.888   0.080   5.965
13279WAT     H240080   8.963   0.077   6.110
13280WAT      O40081   5.678   4.873   9.485
13280WAT     H140082   5.603   4.939   9.480
13280WAT     H240083   5.644   4.787   9.523
13281WAT      O40084   9.604   3.166   0.560
13281WAT     H140085   9.588   3.182   0.463
13281WAT     H240086   9.565   3.240   0.614
13282WAT      O40087   4.564   7.487   7.261
13282WAT     H140088   4.543   7.475   7.164
13282WAT     H240089   4.489   7.536   7.306
13283WAT      O40090   1.063   8.795   4.291
13283WAT     H140091   1.076   8.810   4.389
13283WAT     H240092   1.074   8.698   4.270
13284WAT      O40093   2.754   1.619   8.946
13284WAT     H140094   2.729   1.702   8.996
13284WAT     H240095   2.851   1.623   8.923
13285WAT      O40096   1.629   9.271   5.699
13285WAT     H140097   1.597   9.240   5.610
13285WAT     H240098   1.708   9.215   5.727
13286WAT      O40099   4.658   6.857   1.687
13286WAT     H140100   4.566   6.874   1.653
13286WAT     H240101   4.714   6.820   1.613
13287WAT      O40102   9.432   3.322   0.717
13287WAT     H140103   9.398   3.237   0.758
13287WAT     H240104   9.363   3.394   0.728
13288WAT      O40105   9.375   5.639   4.670
13288WAT     H140106   9.367   5.545   4.638
13288WAT     H240107   9.299   5.694   4.633
13289WAT      O40108   6.506   2.236   6.730
13289WAT     H140109   6.546   2.145   6.719
13289WAT     H240110   6.541   2.296   6.657
13290WAT      O40111   7.562   7.146   6.965
13290WAT     H140112   7.556   7.083   7.042
13290WAT     H240113   7.615   7.104   6.891
13291WAT      O40114   5.749   4.679   6.237
13291WAT     H140115   5.720   4.583   6.245
13291WAT     H240116   5.809   4.688   6.158
13292WAT      O40117   9.048   2.082   5.224
13292WAT     H140118   9.146   2.100   5.232
13292WAT     H240119   9.026   2.053   5.131
13293WAT      O40120   2.342   2.555   9.522
13293WAT     H140121   2.311   2.569   9.616
13293WAT     H240122   2.328   2.639   9.470
13294WAT      O40123   4.436   0.025   7.588
13294WAT     H140124   4.403   0.113   7.622
13294WAT     H240125   4.380  -0.049   7.627
13295WAT      O40126   3.837   4.345   5.597
13295WAT     H140127   3.802   4.439   5.606
13295WAT     H240128   3.840   4.320   5.500
13296WAT      O40129   0.056   2.837   0.082
13296WAT     H140130   0.048   2.936   0.071
13296WAT     H240131   0.034   2.792  -0.005
13297WAT      O40132   8.487   6.559   0.020
13297WAT     H140133   8.442   6.589  -0.064
13297WAT     H240134   8.499   6.638   0.081
13298WAT      O40135   2.949   6.222   7.799
13298WAT     H140136   2.957   6.319   7.773
13298WAT     H240137   2.992   6.207   7.887
13299WAT      O40138   9.710   2.768   7.045
13299WAT     H140139   9.637   2.755   7.112
13299WAT     H240140   9.786   2.706   7.066
13300WAT      O40141   0.232   6.293   3.426
13300WAT     H140142   0.301   6.256   3.489
13300WAT     H240143   0.161   6.340   3.478
13301WAT      O40144   7.345   1.986   9.060
13301WAT     H140145   7.284   2.019   9.132
13301WAT     H240146   7.291   1.962   8.979
13302WAT      O40147   5.589   8.615   7.980
13302WAT     H140148   5.608   8.561   7.899
13302WAT     H240149   5.491   8.631   7.988
13303WAT      O40150   6.335   8.058   4.302
13303WAT     H140151   6.292   8.099   4.383
13303WAT     H240152   6.312   8.112   4.221
13304WAT      O40153   4.178   6.673   2.425
13304WAT     H140154   4.272   6.641   2.411
13304WAT     H240155   4.149   6.650   2.518
13305WAT      O40156   8.769   6.552   6.054
13305WAT     H140157   8.694   6.579   6.114
13305WAT     H240158   8.732   6.519   5.967
13306WAT      O40159   5.256   5.314   0.755
13306WAT     H140160   5.163   5.345   0.774
13306WAT     H240161   5.273   5.229   0.806
13307WAT      O40162   6.417   1.379   3.852
13307WAT     H140163   6.416   1.422   3.762
13307WAT     H240164   6.341   1.313   3.858
13308WAT      O40165   0.328   1.443   5.619
13308WAT     H140166   0.287   1.527   5.655
13308WAT     H240167   0.260   1.394   5.565
13309WAT      O40168   2.719   0.432   9.339
13309WAT     H140169   2.677   0.346   9.368
13309WAT     H240170   2.713   0.441   9.240
13310WAT      O40171   9.566   2.336   4.843
13310WAT     H140172   9.618   2.271   4.787
13310WAT     H240173   9.599   2.429   4.825
13311WAT      O40174   9.334   3.339   6.956
13311WAT     H140175   9.420   3.360   7.003
13311WAT     H240176   9.262   3.323   7.023
13312WAT      O40177   3.793   5.396   8.044
13312WAT     H140178   3.827   5.490   8.043
13312WAT     H240179   3.709   5.391   8.098
13313WAT      O40180   3.128   7.553   0.347
13313WAT     H140181   3.127   7.611   0.428
13313WAT     H240182   3.100   7.460   0.372
13314WAT      O40183   2.062   6.951   7.865
13314WAT     H140184   1.980   6.946   7.807
13314WAT     H240185   2.116   7.031   7.839
13315WAT      O40186   2.011   3.140   7.431
13315WAT     H140187   1.932   3.187   7.471
13315WAT     H240188   2.050   3.077   7.497
13316WAT      O40189   2.554   3.755   6.998
13316WAT     H140190   2.517   3.825   7.060
13316WAT     H240191   2.508   3.761   6.909
13317WAT      O40192   8.446   7.467   7.792
13317WAT     H140193   8.485   7.396   7.851
13317WAT     H240194   8.519   7.507   7.737
13318WAT      O40195   0.034   2.049   3.322
13318WAT     H140196   0.052   2.116   3.250
13318WAT     H240197   0.102   2.058   3.394
13319WAT      O40198   0.741   5.011   7.528
13319WAT     H140199   0.763   5.107   7.510
13319WAT     H240200   0.732   4.997   7.627
13320WAT      O40201   3.773   7.581   0.163
13320WAT     H140202   3.831   7.514   0.211
13320WAT     H240203   3.743   7.541   0.076
13321WAT      O40204   1.185   2.350   6.174
13321WAT     H140205   1.100   2.316   6.134
13321WAT     H240206   1.262   2.331   6.112
13322WAT      O40207   8.231   3.837   1.894
13322WAT     H140208   8.170   3.806   1.967
13322WAT     H240209   8.316   3.785   1.898
13323WAT      O40210   4.717   3.175   7.012
13323WAT     H140211   4.726   3.150   6.916
13323WAT     H240212   4.670   3.263   7.020
13324WAT      O40213   8.996   9.501   3.724
13324WAT     H140214   8.946   9.533   3.644
13324WAT     H240215   8.974   9.557   3.803
13325WAT      O40216   2.668   6.920   2.433
13325WAT     H140217   2.739   6.850   2.437
13325WAT     H240218   2.709   7.010   2.442
13326WAT      O40219   0.636   2.872   6.725
13326WAT     H140220   0.556   2.827   6.765
13326WAT     H240221   0.617   2.894   6.629
13327WAT      O40222   5.994   1.108   2.165
13327WAT     H140223   5.961   1.184   2.221
13327WAT     H240224   6.059   1.143   2.097
13328WAT      O40225   3.825   6.347   7.618
13328WAT     H140226   3.915   6.319   7.653
13328WAT     H240227   3.824   6.446   7.606
13329WAT      O40228   7.326   8.324   3.347
13329WAT     H140229   7.315   8.357   3.441
13329WAT     H240230   7.236   8.310   3.306
13330WAT      O40231   7.754   7.933   6.206
13330WAT     H140232   7.808   8.013   6.181
13330WAT     H240233   7.761   7.918   6.305
13331WAT      O40234   6.760   8.932   7.758
13331WAT     H140235   6.693   9.006   7.757
13331WAT     H240236   6.737   8.865   7.687
13332WAT      O40237   7.159   8.718   4.734
13332WAT     H140238   7.094   8.779   4.778
13332WAT     H240239   7.231   8.694   4.800
13333WAT      O40240   6.064   4.608   6.020
13333WAT     H140241   6.163   4.607   6.030
13333WAT     H240242   6.024   4.670   6.088
13334WAT      O40243   1.887   7.737   3.209
13334WAT     H140244   1.809   7.795   3.234
13334WAT     H240245   1.901   7.741   3.110
13335WAT      O40246   3.128   0.301   2.271
13335WAT     H140247   3.151   0.320   2.367
13335WAT     H240248   3.125   0.387   2.220
13336WAT      O40249   8.087   7.092   2.589
13336WAT     H140250   7.992   7.117   2.571
13336WAT     H240251   8.090   7.003   2.636
13337WAT      O40252   0.129   3.056   6.989
13337WAT     H140253   0.055   3.070   7.055
13337WAT     H240254   0.161   3.145   6.956
13338WAT      O40255   8.682   6.039   1.143
13338WAT     H140256   8.681   6.136   1.116
13338WAT     H240257   8.776   6.011   1.162
13339WAT      O40258   4.539   7.675   9.088
13339WAT     H140259   4.456   7.703   9.040
13339WAT     H240260   4.603   7.752   9.093
13340WAT      O40261   3.443   4.628   1.082
13340WAT     H140262   3.447   4.648   0.984
13340WAT     H240263   3.392   4.700   1.129
13341WAT      O40264   5.364   6.251   4.102
13341WAT     H140265   5.369   6.248   4.202
13341WAT     H240266   5.450   6.218   4.064
13342WAT      O40267   7.741   9.210   9.472
13342WAT     H140268   7.811   9.245   9.410
13342WAT     H240269   7.664   9.173   9.419
13343WAT      O40270   6.455   2.085   7.165
13343WAT     H140271   6.495   2.171   7.134
13343WAT     H240272   6.400   2.045   7.092
13344WAT      O40273   8.006   6.187   3.286
13344WAT     H140274   8.062   6.219   3.209
13344WAT     H240275   7.917   6.155   3.251
13345WAT      O40276   5.674   8.663   9.291
13345WAT     H140277   5.674   8.716   9.206
13345WAT     H240278   5.621   8.713   9.360
13346WAT      O40279   3.249   4.990   0.247
13346WAT     H140280   3.288   5.054   0.314
13346WAT     H240281   3.166   4.948   0.285
13347WAT      O40282   6.315   7.522   4.414
13347WAT     H140283   6.383   7.461   4.454
13347WAT     H240284   6.348   7.616   4.416
13348WAT      O40285   0.212   8.260   4.802
13348WAT     H140286   0.133   8.201   4.784
13348WAT     H240287   0.280   8.247   4.730
13349WAT      O40288   6.144   2.930   6.119
13349WAT     H140289   6.125   2.948   6.216
13349WAT     H240290   6.236   2.894   6.109
13350WAT      O40291   0.471   3.259   6.571
13350WAT     H140292   0.381   3.288   6.540
13350WAT     H240293   0.541   3.319   6.532
13351WAT      O40294   3.482   6.191   8.801
13351WAT     H140295   3.480   6.194   8.701
13351WAT     H240296   3.443   6.275   8.838
13352WAT      O40297   1.412   5.044   3.633
13352WAT     H140298   1.456   4.957   3.654
13352WAT     H240299   1.458   5.087   3.555
13353WAT      O40300   0.544   0.417   7.345
13353WAT     H140301   0.453   0.383   7.319
13353WAT     H240302   0.538   0.459   7.436
13354WAT      O40303   1.744   5.103   4.889
13354WAT     H140304   1.711   5.010   4.905
13354WAT     H240305   1.709   5.136   4.801
13355WAT      O40306   9.586   8.104   7.064
13355WAT     H140307   9.610   8.131   7.157
13355WAT     H240308   9.666   8.065   7.019
13356WAT      O40309   4.229   1.593   3.386
13356WAT     H140310   4.185   1.675   3.350
13356WAT     H240311   4.308   1.619   3.441
13357WAT      O40312   6.632   4.566   3.354
13357WAT     H140313   6.587   4.485   3.318
13357WAT     H240314   6.711   4.539   3.410
13358WAT      O40315   5.508   1.900   2.256
13358WAT     H140316   5.589   1.878   2.311
13358WAT     H240317   5.426   1.893   2.313
13359WAT      O40318   5.476   1.265   1.625
13359WAT     H140319   5.468   1.324   1.545
13359WAT     H240320   5.572   1.241   1.640
13360WAT      O40321   8.191   2.597   4.434
13360WAT     H140322   8.242   2.682   4.449
13360WAT     H240323   8.102   2.618   4.393
13361WAT      O40324   9.625   1.841   9.060
13361WAT     H140325   9.539   1.820   9.107
13361WAT     H240326   9.675   1.757   9.041
13362WAT      O40327   9.003   2.099   0.990
13362WAT     H140328   9.077   2.128   1.050
13362WAT     H240329   9.011   2.145   0.902
13363WAT      O40330   1.224   0.327   2.859
13363WAT     H140331   1.281   0.365   2.786
13363WAT     H240332   1.265   0.349   2.948
13364WAT      O40333   7.744   2.655   7.461
13364WAT     H140334   7.838   2.688   7.470
13364WAT     H240335   7.724   2.638   7.364
13365WAT      O40336   6.794   7.721   5.610
13365WAT     H140337   6.881   7.770   5.621
13365WAT     H240338   6.795   7.672   5.522
13366WAT      O40339   8.885   5.987   3.527
13366WAT     H140340   8.977   5.964   3.559
13366WAT     H240341   8.859   5.924   3.454
13367WAT      O40342   9.819   2.026   2.909
13367WAT     H140343   9.913   2.022   2.877
13367WAT     H240344   9.758   2.046   2.832
13368WAT      O40345   9.589   4.486   1.779
13368WAT     H140346   9.530   4.501   1.699
13368WAT     H240347   9.656   4.415   1.757
13369WAT      O40348   6.298   1.833   4.898
13369WAT     H140349   6.320   1.888   4.979
13369WAT     H240350   6.362   1.757   4.891
13370WAT      O40351   4.249   1.986   1.105
13370WAT     H140352   4.299   2.024   1.027
13370WAT     H240353   4.165   1.943   1.073
13371WAT      O40354   6.981   2.249   1.913
13371WAT     H140355   6.909   2.271   1.978
13371WAT     H240356   6.984   2.320   1.842
13372WAT      O40357   2.521   8.037   3.279
13372WAT     H140358   2.448   8.008   3.218
13372WAT     H240359   2.590   7.965   3.285
13373WAT      O40360   5.139   8.238   5.760
13373WAT     H140361   5.210   8.241   5.830
13373WAT     H240362   5.149   8.316   5.698
13374WAT      O40363   6.875   2.773   3.200
13374WAT     H140364   6.923   2.698   3.246
13374WAT     H240365   6.821   2.736   3.125
13375WAT      O40366   7.336   0.329   2.351
13375WAT     H140367   7.424   0.312   2.397
13375WAT     H240368   7.261   0.306   2.413
13376WAT      O40369   0.213   9.674   4.505
13376WAT     H140370   0.115   9.694   4.507
13376WAT     H240371   0.226   9.575   4.494
13377WAT      O40372   4.088   3.226   6.807
13377WAT     H140373   4.135   3.280   6.737
13377WAT     H240374   4.061   3.285   6.883
13378WAT      O40375   3.525   2.059   6.959
13378WAT     H140376   3.590   2.110   7.015
13378WAT     H240377   3.499   1.975   7.006
13379WAT      O40378   9.794   3.185   3.640
13379WAT     H140379   9.826   3.279   3.643
13379WAT     H240380   9.871   3.123   3.623
13380WAT      O40381   7.055   6.245   0.719
13380WAT     H140382   7.108   6.324   0.688
13380WAT     H240383   7.075   6.166   0.661
13381WAT      O40384   2.831   2.253   7.313
13381WAT     H140385   2.848   2.293   7.403
13381WAT     H240386   2.864   2.316   7.242
13382WAT      O40387   6.425   0.458   4.800
13382WAT     H140388   6.397   0.362   4.796
13382WAT     H240389   6.366   0.513   4.741
13383WAT      O40390   8.802   8.444   9.620
13383WAT     H140391   8.732   8.505   9.583
13383WAT     H240392   8.849   8.491   9.696
13384WAT      O40393   9.252   9.583   9.535
13384WAT     H140394   9.321   9.636   9.485
13384WAT     H240395   9.236   9.497   9.488
13385WAT      O40396   0.426   2.086   1.928
13385WAT     H140397   0.351   2.064   1.867
13385WAT     H240398   0.510   2.043   1.895
13386WAT      O40399   2.655   4.829   8.507
13386WAT     H140400   2.704   4.916   8.502
13386WAT     H240401   2.610   4.811   8.419
13387WAT      O40402   0.630   9.838   0.314
13387WAT     H140403   0.549   9.894   0.299
13387WAT     H240404   0.709   9.880   0.269
13388WAT      O40405   8.410   6.558   9.157
13388WAT     H140406   8.506   6.558   9.184
13388WAT     H240407   8.381   6.652   9.138
13389WAT      O40408   2.648   1.937   4.239
13389WAT     H140409   2.644   1.967   4.144
13389WAT     H240410   2.731   1.972   4.281
13390WAT      O40411   3.057   7.345   2.808
13390WAT     H140412   3.149   7.333   2.772
13390WAT     H240413   3.008   7.258   2.804
13391WAT      O40414   8.226   8.001   8.310
13391WAT     H140415   8.225   7.927   8.376
13391WAT     H240416   8.320   8.032   8.295
13392WAT      O40417   5.729   2.940   9.858
13392WAT     H140418   5.676   2.856   9.871
13392WAT     H240419   5.727   2.995   9.941
13393WAT      O40420   3.817   2.642   3.447
13393WAT     H140421   3.871   2.557   3.453
13393WAT     H240422   3.727   2.627   3.488
13394WAT      O40423   1.040   2.942   9.139
13394WAT     H140424   1.109   3.002   9.180
13394WAT     H240425   1.027   2.967   9.043
13395WAT      O40426   8.863   4.348   9.219
13395WAT     H140427   8.818   4.436   9.207
13395WAT     H240428   8.831   4.305   9.304
13396WAT      O40429   1.307   0.908   4.986
13396WAT     H140430   1.365   0.983   5.017
13396WAT     H240431   1.260   0.867   5.065
13397WAT      O40432   0.833   4.979   6.574
13397WAT     H140433   0.807   5.072   6.548
13397WAT     H240434   0.859   4.927   6.492
13398WAT      O40435   3.263   4.550   8.558
13398WAT     H140436   3.176   4.592   8.534
13398WAT     H240437   3.330   4.570   8.487
13399WAT      O40438   8.750   1.914   5.480
13399WAT     H140439   8.740   1.991   5.417
13399WAT     H240440   8.670   1.855   5.473
13400WAT      O40441   4.290   4.637   9.783
13400WAT     H140442   4.215   4.589   9.738
13400WAT     H240443   4.279   4.632   9.882
13401WAT      O40444   0.556   4.164   0.999
13401WAT     H140445   0.493   4.241   0.989
13401WAT     H240446   0.519   4.083   0.955
13402WAT      O40447   3.474   7.042   0.742
13402WAT     H140448   3.399   7.042   0.808
13402WAT     H240449   3.460   6.968   0.676
13403WAT      O40450   6.443   0.452   4.102
13403WAT     H140451   6.540   0.478   4.098
13403WAT     H240452   6.409   0.463   4.196
13404WAT      O40453   7.660   4.950   2.923
13404WAT     H140454   7.728   4.878   2.904
13404WAT     H240455   7.680   5.030   2.866
13405WAT      O40456   4.691   5.321   9.184
13405WAT     H140457   4.773   5.296   9.236
13405WAT     H240458   4.657   5.240   9.137
13406WAT      O40459   2.973   4.502   6.686
13406WAT     H140460   2.986   4.478   6.590
13406WAT     H240461   2.890   4.557   6.695
13407WAT      O40462   1.063   6.343   6.819
13407WAT     H140463   1.158   6.335   6.788
13407WAT     H240464   1.048   6.435   6.856
13408WAT      O40465   3.015   6.578   6.175
13408WAT     H140466   3.000   6.643   6.101
13408WAT     H240467   3.084   6.511   6.147
13409WAT      O40468   7.796   9.074   5.478
13409WAT     H140469   7.833   9.115   5.395
13409WAT     H240470   7.736   9.140   5.524
13410WAT      O40471   2.415   0.071   5.421
13410WAT     H140472   2.498   0.053   5.474
13410WAT     H240473   2.383  -0.015   5.380
13411WAT      O40474   9.631   0.718   2.018
13411WAT     H140475   9.667   0.672   1.937
13411WAT     H240476   9.544   0.677   2.045
13412WAT      O40477   9.846   4.847   3.742
13412WAT     H140478   9.781   4.837   3.817
13412WAT     H240479   9.802   4.893   3.665
13413WAT      O40480   5.178   0.175   9.172
13413WAT     H140481   5.250   0.144   9.234
13413WAT     H240482   5.181   0.121   9.088
13414WAT      O40483   0.411   4.725   3.043
13414WAT     H140484   0.335   4.789   3.026
13414WAT     H240485   0.376   4.643   3.087
13415WAT      O40486   5.853   7.347   9.444
13415WAT     H140487   5.857   7.395   9.357
13415WAT     H240488   5.881   7.252   9.432
13416WAT      O40489   7.533   5.600   6.014
13416WAT     H140490   7.549   5.527   5.948
13416WAT     H240491   7.606   5.599   6.083
13417WAT      O40492   1.850   2.900   1.824
13417WAT     H140493   1.894   2.988   1.805
13417WAT     H240494   1.824   2.896   1.921
13418WAT      O40495   7.950   8.316   1.583
13418WAT     H140496   7.873   8.372   1.613
13418WAT     H240497   8.034   8.348   1.627
13419WAT      O40498   5.977   4.079   9.392
13419WAT     H140499   5.898   4.087   9.452
13419WAT     H240500   6.008   4.170   9.364
13420WAT      O40501   7.476   2.507   4.919
13420WAT     H140502   7.437   2.461   4.839
13420WAT     H240503   7.403   2.557   4.967
13421WAT      O40504   8.259   1.319   1.544
13421WAT     H140505   8.240   1.299   1.448
13421WAT     H240506   8.357   1.334   1.557
13422WAT      O40507   8.843   6.696   5.480
13422WAT     H140508   8.765   6.748   5.444
13422WAT     H240509   8.846   6.705   5.580
13423WAT      O40510   4.230   3.447   7.587
13423WAT     H140511   4.228   3.350   7.611
13423WAT     H240512   4.254   3.456   7.490
13424WAT      O40513   0.070   5.307   9.268
13424WAT     H140514   0.014   5.236   9.311
13424WAT     H240515   0.081   5.383   9.332
13425WAT      O40516   7.436   0.084   2.260
13425WAT     H140517   7.367   0.154   2.276
13425WAT     H240518   7.520   0.126   2.227
13426WAT      O40519   4.906   7.196   0.336
13426WAT     H140520   4.876   7.219   0.244
13426WAT     H240521   5.005   7.204   0.343
13427WAT      O40522   6.101   0.254   4.050
13427WAT     H140523   6.118   0.243   3.952
13427WAT     H240524   6.018   0.308   4.063
13428WAT      O40525   7.895   6.731   4.869
13428WAT     H140526   7.844   6.816   4.888
13428WAT     H240527   7.888   6.671   4.948
13429WAT      O40528   8.583   5.446   5.990
13429WAT     H140529   8.596   5.353   6.024
13429WAT     H240530   8.596   5.511   6.065
13430WAT      O40531   0.265   3.419   6.508
13430WAT     H140532   0.192   3.442   6.444
13430WAT     H240533   0.290   3.501   6.560
13431WAT      O40534   6.892   4.417   6.686
13431WAT     H140535   6.913   4.415   6.588
13431WAT     H240536   6.794   4.430   6.699
13432WAT      O40537   4.963   4.675   9.127
13432WAT     H140538   4.966   4.763   9.079
13432WAT     H240539   4.867   4.647   9.136
13433WAT      O40540   0.023   4.505   1.470
13433WAT     H140541   0.026   4.553   1.383
13433WAT     H240542  -0.019   4.564   1.539
13434WAT      O40543   0.589   5.989   0.556
13434WAT     H140544   0.540   5.957   0.637
13434WAT     H240545   0.576   5.924   0.482
13435WAT      O40546   2.184   5.918   2.584
13435WAT     H140547   2.227   6.003   2.617
13435WAT     H240548   2.098   5.940   2.539
13436WAT      O40549   7.182   8.003   1.252
13436WAT     H140550   7.236   8.025   1.334
13436WAT     H240551   7.097   8.057   1.253
13437WAT      O40552   8.350   5.628   3.197
13437WAT     H140553   8.390   5.581   3.276
13437WAT     H240554   8.285   5.567   3.152
13438WAT      O40555   2.714   2.844   1.190
13438WAT     H140556   2.712   2.766   1.127
13438WAT     H240557   2.700   2.811   1.284
13439WAT      O40558   1.186   5.568   7.863
13439WAT     H140559   1.121   5.589   7.790
13439WAT     H240560   1.254   5.503   7.829
13440WAT      O40561   9.252   1.548   4.092
13440WAT     H140562   9.259   1.458   4.049
13440WAT     H240563   9.257   1.539   4.191
13441WAT      O40564   6.640   4.025   8.720
13441WAT     H140565   6.627   4.091   8.646
13441WAT     H240566   6.594   3.940   8.697
13442WAT      O40567   9.142   3.289   2.038
13442WAT     H140568   9.171   3.311   1.945
13442WAT     H240569   9.194   3.211   2.072
13443WAT      O40570   9.112   0.470   7.916
13443WAT     H140571   9.138   0.522   7.997
13443WAT     H240572   9.154   0.511   7.835
13444WAT      O40573   2.881   4.789   6.462
13444WAT     H140574   2.853   4.696   6.438
13444WAT     H240575   2.803   4.850   6.457
13445WAT      O40576   8.992   8.302   2.845
13445WAT     H140577   8.901   8.288   2.806
13445WAT     H240578   9.007   8.400   2.859
13446WAT      O40579   4.571   0.588   5.996
13446WAT     H140580   4.596   0.682   5.975
13446WAT     H240581   4.651   0.538   6.029
13447WAT      O40582   9.174   7.948   9.653
13447WAT     H140583   9.113   7.899   9.716
13447WAT     H240584   9.210   7.884   9.586
13448WAT      O40585   1.824   9.746   9.790
13448WAT     H140586   1.830   9.825   9.851
13448WAT     H240587   1.755   9.683   9.824
13449WAT      O40588   4.727   2.818   7.803
13449WAT     H140589   4.814   2.770   7.797
13449WAT     H240590   4.732   2.902   7.749
13450WAT      O40591   5.609   3.431   3.480
13450WAT     H140592   5.626   3.379   3.396
13450WAT     H240593   5.561   3.515   3.458
13451WAT      O40594   9.633   4.973   7.476
13451WAT     H140595   9.612   4.920   7.558
13451WAT     H240596   9.621   4.916   7.395
13452WAT      O40597   1.342   6.961   4.929
13452WAT     H140598   1.300   7.051   4.939
13452WAT     H240599   1.423   6.969   4.871
13453WAT      O40600   6.558   3.238   5.432
13453WAT     H140601   6.529   3.155   5.384
13453WAT     H240602   6.653   3.259   5.410
13454WAT      O40603   3.717   6.677   8.271
13454WAT     H140604   3.647   6.607   8.265
13454WAT     H240605   3.708   6.739   8.193
13455WAT      O40606   4.053   5.054   4.597
13455WAT     H140607   4.092   5.139   4.562
13455WAT     H240608   3.993   5.014   4.527
13456WAT      O40609   6.664   1.837   8.468
13456WAT     H140610   6.566   1.830   8.486
13456WAT     H240611   6.707   1.748   8.486
13457WAT      O40612   2.625   1.704   0.024
13457WAT     H140613   2.694   1.690  -0.047
13457WAT     H240614   2.660   1.674   0.112
13458WAT      O40615   4.996   2.841   8.243
13458WAT     H140616   4.924   2.800   8.186
13458WAT     H240617   4.959   2.921   8.291
13459WAT      O40618   5.637   9.464   3.159
13459WAT     H140619   5.548   9.417   3.165
13459WAT     H240620   5.647   9.524   3.238
13460WAT      O40621   5.362   7.405   5.545
13460WAT     H140622   5.375   7.358   5.458
13460WAT     H240623   5.445   7.455   5.569
13461WAT      O40624   1.403   0.223   5.708
13461WAT     H140625   1.422   0.309   5.755
13461WAT     H240626   1.443   0.226   5.616
13462WAT      O40627   3.323   9.758   5.352
13462WAT     H140628   3.346   9.842   5.304
13462WAT     H240629   3.223   9.751   5.360
13463WAT      O40630   6.005   0.925   8.024
13463WAT     H140631   6.089   0.971   8.055
13463WAT     H240632   5.925   0.975   8.059
13464WAT      O40633   5.401   8.479   4.740
13464WAT     H140634   5.444   8.419   4.673
13464WAT     H240635   5.420   8.445   4.832
13465WAT      O40636   8.360   0.251   5.186
13465WAT     H140637   8.285   0.286   5.130
13465WAT     H240638   8.447   0.263   5.137
13466WAT      O40639   7.592   1.253   8.165
13466WAT     H140640   7.675   1.305   8.185
13466WAT     H240641   7.560   1.209   8.249
13467WAT      O40642   1.735   2.011   4.514
13467WAT     H140643   1.775   2.089   4.466
13467WAT     H240644   1.702   2.041   4.604
13468WAT      O40645   4.128   8.340   9.056
13468WAT     H140646   4.098   8.401   9.130
13468WAT     H240647   4.112   8.245   9.082
13469WAT      O40648   1.479   2.775   7.754
13469WAT     H140649   1.413   2.700   7.760
13469WAT     H240650   1.431   2.863   7.754
13470WAT      O40651   0.525   2.546   1.692
13470WAT     H140652   0.471   2.493   1.758
13470WAT     H240653   0.494   2.526   1.600
13471WAT      O40654   2.687   4.119   3.236
13471WAT     H140655   2.740   4.186   3.184
13471WAT     H240656   2.627   4.167   3.300
13472WAT      O40657   0.880   4.758   5.226
13472WAT     H140658   0.936   4.839   5.242
13472WAT     H240659   0.906   4.714   5.140
13473WAT      O40660   5.016   1.310   5.477
13473WAT     H140661   5.077   1.389   5.472
13473WAT     H240662   5.041   1.253   5.554
13474WAT      O40663   1.999   3.068   5.680
13474WAT     H140664   1.962   3.104   5.765
13474WAT     H240665   2.022   3.144   5.619
13475WAT      O40666   7.745   3.495   5.878
13475WAT     H140667   7.804   3.574   5.897
13475WAT     H240668   7.790   3.412   5.912
13476WAT      O40669   7.109   1.464   0.421
13476WAT     H140670   7.170   1.540   0.398
13476WAT     H240671   7.037   1.458   0.352
13477WAT      O40672   8.488   5.773   0.704
13477WAT     H140673   8.536   5.852   0.742
13477WAT     H240674   8.397   5.767   0.743
13478WAT      O40675   3.612   5.696   6.930
13478WAT     H140676   3.597   5.644   6.846
13478WAT     H240677   3.609   5.633   7.008
13479WAT      O40678   1.985   5.266   0.270
13479WAT     H140679   1.943   5.200   0.208
13479WAT     H240680   2.074   5.294   0.233
13480WAT      O40681   7.600   8.067   2.530
13480WAT     H140682   7.599   8.085   2.432
13480WAT     H240683   7.556   7.979   2.549
13481WAT      O40684   7.409   9.662   8.549
13481WAT     H140685   7.447   9.575   8.517
13481WAT     H240686   7.322   9.680   8.503
13482WAT      O40687   6.666   9.838   2.739
13482WAT     H140688   6.598   9.840   2.812
13482WAT     H240689   6.750   9.795   2.773
13483WAT      O40690   2.248   2.889   0.294
13483WAT     H140691   2.202   2.801   0.307
13483WAT     H240692   2.341   2.884   0.330
13484WAT      O40693   2.329   2.082   1.550
13484WAT     H140694   2.363   1.998   1.592
13484WAT     H240695   2.329   2.155   1.619
13485WAT      O40696   8.777   9.564   2.580
13485WAT     H140697   8.792   9.527   2.672
13485WAT     H240698   8.723   9.649   2.587
13486WAT      O40699   4.821   5.606   5.568
13486WAT     H140700   4.784   5.516   5.594
13486WAT     H240701   4.780   5.635   5.482
13487WAT      O40702   6.916   1.842   7.764
13487WAT     H140703   6.844   1.911   7.755
13487WAT     H240704   7.005   1.888   7.770
13488WAT      O40705   7.886   7.437   7.343
13488WAT     H140706   7.848   7.446   7.435
13488WAT     H240707   7.933   7.521   7.318
13489WAT      O40708   3.391   1.214   7.707
13489WAT     H140709   3.359   1.309   7.699
13489WAT     H240710   3.469   1.211   7.770
13490WAT      O40711   5.290   1.130   6.041
13490WAT     H140712   5.290   1.071   6.122
13490WAT     H240713   5.224   1.095   5.974
13491WAT      O40714   4.785   5.736   6.905
13491WAT     H140715   4.761   5.820   6.953
13491WAT     H240716   4.717   5.717   6.834
13492WAT      O40717   7.090   2.265   4.781
13492WAT     H140718   7.140   2.205   4.843
13492WAT     H240719   7.002   2.223   4.759
13493WAT      O40720   8.706   8.213   5.588
13493WAT     H140721   8.771   8.284   5.563
13493WAT     H240722   8.618   8.231   5.544
13494WAT      O40723   3.490   8.624   5.755
13494WAT     H140724   3.545   8.678   5.691
13494WAT     H240725   3.406   8.673   5.777
13495WAT      O40726   8.013   0.283   8.881
13495WAT     H140727   8.039   0.280   8.977
13495WAT     H240728   8.094   0.293   8.824
13496WAT      O40729   0.600   3.239   3.732
13496WAT     H140730   0.552   3.262   3.648
13496WAT     H240731   0.624   3.142   3.731
13497WAT      O40732   4.556   1.954   3.244
13497WAT     H140733   4.528   2.033   3.299
13497WAT     H240734   4.475   1.914   3.200
13498WAT      O40735   5.423   3.959   5.831
13498WAT     H140736   5.469   3.902   5.900
13498WAT     H240737   5.457   4.053   5.839
13499WAT      O40738   3.462   2.328   1.075
13499WAT     H140739   3.387   2.393   1.067
13499WAT     H240740   3.528   2.345   1.001
13500WAT      O40741   9.139   3.614   6.063
13500WAT     H140742   9.067   3.662   6.014
13500WAT     H240743   9.099   3.541   6.118
13501WAT      O40744   1.023   7.798   7.193
13501WAT     H140745   1.115   7.777   7.162
13501WAT     H240746   0.957   7.772   7.122
13502WAT      O40747   8.840   4.437   7.728
13502WAT     H140748   8.871   4.487   7.647
13502WAT     H240749   8.906   4.449   7.801
13503WAT      O40750   0.237   5.243   5.661
13503WAT     H140751   0.260   5.206   5.751
13503WAT     H240752   0.197   5.334   5.672
13504WAT      O40753   9.208   6.886   8.336
13504WAT     H140754   9.212   6.801   8.283
13504WAT     H240755   9.221   6.864   8.433
13505WAT      O40756   0.595   2.258   6.876
13505WAT     H140757   0.597   2.188   6.805
13505WAT     H240758   0.613   2.347   6.835
13506WAT      O40759   6.456   3.915   8.227
13506WAT     H140760   6.403   3.885   8.306
13506WAT     H240761   6.399   3.971   8.167
13507WAT      O40762   6.200   4.076   3.040
13507WAT     H140763   6.205   4.060   3.139
13507WAT     H240764   6.123   4.136   3.020
13508WAT      O40765   6.076   1.508   1.739
13508WAT     H140766   6.015   1.554   1.804
13508WAT     H240767   6.048   1.412   1.731
13509WAT      O40768   4.267   3.187   6.517
13509WAT     H140769   4.281   3.238   6.432
13509WAT     H240770   4.355   3.161   6.556
13510WAT      O40771   2.451   9.582   8.684
13510WAT     H140772   2.362   9.628   8.687
13510WAT     H240773   2.439   9.486   8.661
13511WAT      O40774   9.085   5.487   6.740
13511WAT     H140775   9.012   5.423   6.713
13511WAT     H240776   9.045   5.576   6.760
13512WAT      O40777   7.806   1.379   8.831
13512WAT     H140778   7.755   1.453   8.787
13512WAT     H240779   7.879   1.349   8.770
13513WAT      O40780   1.960   8.024   1.407
13513WAT     H140781   1.992   7.969   1.484
13513WAT     H240782   1.878   8.075   1.434
13514WAT      O40783   4.744   1.800   0.355
13514WAT     H140784   4.702   1.711   0.336
13514WAT     H240785   4.748   1.853   0.271
13515WAT      O40786   9.061   5.313   1.129
13515WAT     H140787   8.971   5.315   1.173
13515WAT     H240788   9.055   5.350   1.037
13516WAT      O40789   9.470   8.662   3.125
13516WAT     H140790   9.459   8.753   3.164
13516WAT     H240791   9.542   8.612   3.175
13517WAT      O40792   2.856   1.040   6.812
13517WAT     H140793   2.893   1.050   6.720
13517WAT     H240794   2.859   0.944   6.840
13518WAT      O40795   1.073   3.332   8.650
13518WAT     H140796   1.103   3.330   8.745
13518WAT     H240797   0.976   3.355   8.646
13519WAT      O40798   5.473   4.302   0.665
13519WAT     H140799   5.481   4.206   0.635
13519WAT     H240800   5.377   4.323   0.682
13520WAT      O40801   1.927   9.788   1.099
13520WAT     H140802   1.908   9.778   1.197
13520WAT     H240803   2.013   9.740   1.077
13521WAT      O40804   0.412   6.965   7.290
13521WAT     H140805   0.341   6.912   7.242
13521WAT     H240806   0.389   6.970   7.388
13522WAT      O40807   3.977   1.109   1.287
13522WAT     H140808   3.923   1.190   1.265
13522WAT     H240809   4.001   1.061   1.203
13523WAT      O40810   8.817   7.401   7.357
13523WAT     H140811   8.810   7.302   7.363
13523WAT     H240812   8.872   7.426   7.277
13524WAT      O40813   4.323   7.059   5.731
13524WAT     H140814   4.396   7.125   5.752
13524WAT     H240815   4.307   7.001   5.811
13525WAT      O40816   9.239   0.038   4.840
13525WAT     H140817   9.209  -0.010   4.922
13525WAT     H240818   9.339   0.038   4.836
13526WAT      O40819   1.524   0.430   7.973
13526WAT     H140820   1.452   0.499   7.970
13526WAT     H240821   1.522   0.375   7.889
13527WAT      O40822   9.133   7.752   0.338
13527WAT     H140823   9.146   7.830   0.277
13527WAT     H240824   9.221   7.722   0.374
13528WAT      O40825   9.271   6.083   6.652
13528WAT     H140826   9.214   6.104   6.732
13528WAT     H240827   9.341   6.153   6.643
13529WAT      O40828   8.945   3.875   7.876
13529WAT     H140829   8.929   3.778   7.895
13529WAT     H240830   8.909   3.898   7.786
13530WAT      O40831   4.113   1.489   9.094
13530WAT     H140832   4.180   1.555   9.060
13530WAT     H240833   4.144   1.396   9.073
13531WAT      O40834   6.829   8.514   3.664
13531WAT     H140835   6.881   8.556   3.589
13531WAT     H240836   6.877   8.528   3.750
13532WAT      O40837   8.630   3.995   4.488
13532WAT     H140838   8.662   4.011   4.395
13532WAT     H240839   8.609   4.083   4.532
13533WAT      O40840   5.109   4.596   1.882
13533WAT     H140841   5.143   4.516   1.932
13533WAT     H240842   5.182   4.634   1.825
13534WAT      O40843   6.495   3.786   8.677
13534WAT     H140844   6.563   3.713   8.687
13534WAT     H240845   6.415   3.751   8.629
13535WAT      O40846   6.416   0.915   5.039
13535WAT     H140847   6.403   0.835   5.098
13535WAT     H240848   6.513   0.936   5.032
13536WAT      O40849   3.477   0.090   8.943
13536WAT     H140850   3.470   0.010   8.884
13536WAT     H240851   3.568   0.093   8.986
13537WAT      O40852   7.121   6.231   0.971
13537WAT     H140853   7.094   6.326   0.979
13537WAT     H240854   7.103   6.199   0.878
13538WAT      O40855   7.046   0.472   1.357
13538WAT     H140856   7.013   0.527   1.281
13538WAT     H240857   7.004   0.503   1.443
13539WAT      O40858   0.375   8.123   8.468
13539WAT     H140859   0.417   8.060   8.403
13539WAT     H240860   0.275   8.120   8.457
13540WAT      O40861   8.224   0.117   8.151
13540WAT     H140862   8.197   0.033   8.197
13540WAT     H240863   8.152   0.186   8.161
13541WAT      O40864   3.350   0.104   6.416
13541WAT     H140865   3.362   0.190   6.465
13541WAT     H240866   3.425   0.043   6.437
13542WAT      O40867   8.790   6.805   7.318
13542WAT     H140868   8.715   6.823   7.382
13542WAT     H240869   8.760   6.737   7.251
13543WAT      O40870   7.195   5.899   4.803
13543WAT     H140871   7.118   5.955   4.772
13543WAT     H240872   7.204   5.908   4.902
13544WAT      O40873   5.156   7.957   6.470
13544WAT     H140874   5.219   8.034   6.477
13544WAT     H240875   5.064   7.991   6.452
13545WAT      O40876   3.749   3.801   3.639
13545WAT     H140877   3.837   3.846   3.624
13545WAT     H240878   3.723   3.810   3.735
13546WAT      O40879   6.350   2.555   2.101
13546WAT     H140880   6.318   2.492   2.029
13546WAT     H240881   6.447   2.538   2.118
13547WAT      O40882   2.208   1.865   3.765
13547WAT     H140883   2.294   1.916   3.772
13547WAT     H240884   2.134   1.928   3.742
13548WAT      O40885   7.735   6.292   2.106
13548WAT     H140886   7.766   6.228   2.176
13548WAT     H240887   7.691   6.370   2.150
13549WAT      O40888   8.477   2.993   5.834
13549WAT     H140889   8.524   2.941   5.763
13549WAT     H240890   8.446   2.931   5.906
13550WAT      O40891   9.876   5.307   0.514
13550WAT     H140892   9.866   5.373   0.440
13550WAT     H240893   9.931   5.346   0.588
13551WAT      O40894   5.211   6.572   8.194
13551WAT     H140895   5.240   6.637   8.125
13551WAT     H240896   5.113   6.555   8.186
13552WAT      O40897   0.866   3.001   0.241
13552WAT     H140898   0.796   2.962   0.300
13552WAT     H240899   0.884   3.095   0.267
13553WAT      O40900   9.261   3.822   2.781
13553WAT     H140901   9.357   3.830   2.810
13553WAT     H240902   9.234   3.726   2.781
13554WAT      O40903   5.949   4.660   3.838
13554WAT     H140904   6.024   4.686   3.899
13554WAT     H240905   5.879   4.731   3.838
13555WAT      O40906   1.236   8.384   9.073
13555WAT     H140907   1.291   8.333   9.139
13555WAT     H240908   1.144   8.398   9.109
13556WAT      O40909   4.450   2.562   7.438
13556WAT     H140910   4.536   2.598   7.474
13556WAT     H240911   4.462   2.538   7.341
13557WAT      O40912   5.979   5.209   6.720
13557WAT     H140913   6.046   5.162   6.776
13557WAT     H240914   5.887   5.187   6.752
13558WAT      O40915   0.602   9.787   5.576
13558WAT     H140916   0.606   9.803   5.675
13558WAT     H240917   0.681   9.732   5.548
13559WAT      O40918   7.038   2.945   1.116
13559WAT     H140919   7.108   2.874   1.116
13559WAT     H240920   7.083   3.035   1.116
13560WAT      O40921   2.768   3.516   7.272
13560WAT     H140922   2.834   3.513   7.347
13560WAT     H240923   2.790   3.591   7.211
13561WAT      O40924   4.383   0.446   2.753
13561WAT     H140925   4.468   0.395   2.747
13561WAT     H240926   4.312   0.399   2.699
13562WAT      O40927   4.977   2.842   7.124
13562WAT     H140928   4.892   2.793   7.147
13562WAT     H240929   4.983   2.854   7.025
13563WAT      O40930   0.505   2.480   7.500
13563WAT     H140931   0.530   2.419   7.575
13563WAT     H240932   0.578   2.546   7.485
13564WAT      O40933   7.662   1.958   6.394
13564WAT     H140934   7.718   1.888   6.348
13564WAT     H240935   7.719   2.038   6.414
13565WAT      O40936   3.726   2.891   8.464
13565WAT     H140937   3.718   2.940   8.378
13565WAT     H240938   3.673   2.939   8.535
13566WAT      O40939   6.807   7.734   3.415
13566WAT     H140940   6.846   7.793   3.345
13566WAT     H240941   6.875   7.716   3.485
13567WAT      O40942   9.596   4.554   8.747
13567WAT     H140943   9.500   4.542   8.721
13567WAT     H240944   9.633   4.634   8.701
13568WAT      O40945   4.208   2.096   6.094
13568WAT     H140946   4.141   2.065   6.161
13568WAT     H240947   4.255   2.178   6.128
13569WAT      O40948   6.430   6.926   0.226
13569WAT     H140949   6.369   7.003   0.204
13569WAT     H240950   6.381   6.861   0.284
13570WAT      O40951   8.007   3.554   9.804
13570WAT     H140952   7.954   3.637   9.825
13570WAT     H240953   8.017   3.546   9.705
13571WAT      O40954   7.752   9.794   3.661
13571WAT     H140955   7.747   9.698   3.690
13571WAT     H240956   7.802   9.847   3.730
13572WAT      O40957   7.496   0.758   4.010
13572WAT     H140958   7.509   0.754   4.109
13572WAT     H240959   7.466   0.850   3.984
13573WAT      O40960   2.763   3.273   2.850
13573WAT     H140961   2.786   3.361   2.809
13573WAT     H240962   2.840   3.210   2.840
13574WAT      O40963   7.755   4.659   3.101
13574WAT     H140964   7.755   4.685   3.198
13574WAT     H240965   7.809   4.576   3.089
13575WAT      O40966   8.323   0.904   0.070
13575WAT     H140967   8.291   0.979   0.127
13575WAT     H240968   8.423   0.897   0.079
13576WAT      O40969   4.940   0.725   5.626
13576WAT     H140970   4.936   0.657   5.552
13576WAT     H240971   5.035   0.754   5.639
13577WAT      O40972   7.476   7.745   5.753
13577WAT     H140973   7.485   7.823   5.815
13577WAT     H240974   7.543   7.675   5.778
13578WAT      O40975   4.698   8.519   2.664
13578WAT     H140976   4.647   8.435   2.642
13578WAT     H240977   4.711   8.524   2.763
13579WAT      O40978   8.867   8.304   5.943
13579WAT     H140979   8.795   8.247   5.903
13579WAT     H240980   8.894   8.266   6.032
13580WAT      O40981   3.522   4.690   5.677
13580WAT     H140982   3.485   4.598   5.660
13580WAT     H240983   3.606   4.703   5.626
13581WAT      O40984   2.615   8.574   3.232
13581WAT     H140985   2.582   8.480   3.242
13581WAT     H240986   2.702   8.584   3.280
13582WAT      O40987   5.454   6.098   2.372
13582WAT     H140988   5.457   6.011   2.419
13582WAT     H240989   5.531   6.105   2.308
13583WAT      O40990   2.568   6.751   7.826
13583WAT     H140991   2.564   6.681   7.898
13583WAT     H240992   2.589   6.840   7.867
13584WAT      O40993   9.546   2.282   6.840
13584WAT     H140994   9.629   2.228   6.856
13584WAT     H240995   9.468   2.222   6.827
13585WAT      O40996   2.649   6.121   9.523
13585WAT     H140997   2.579   6.171   9.574
13585WAT     H240998   2.654   6.157   9.429
13586WAT      O40999   0.200   5.930   7.264
13586WAT     H141000   0.140   5.995   7.218
13586WAT     H241001   0.224   5.856   7.201
13587WAT      O41002   7.672   7.007   9.315
13587WAT     H141003   7.712   7.054   9.393
13587WAT     H241004   7.716   7.038   9.231
13588WAT      O41005   7.860   3.900   9.495
13588WAT     H141006   7.895   3.895   9.402
13588WAT     H241007   7.873   3.992   9.531
13589WAT      O41008   4.366   4.726   3.552
13589WAT     H141009   4.453   4.677   3.545
13589WAT     H241010   4.333   4.749   3.461
13590WAT      O41011   2.377   8.979   9.820
13590WAT     H141012   2.372   8.881   9.801
13590WAT     H241013   2.343   8.997   9.912
13591WAT      O41014   5.681   6.836   8.532
13591WAT     H141015   5.650   6.764   8.470
13591WAT     H241016   5.689   6.798   8.624
13592WAT      O41017   5.065   3.088   1.018
13592WAT     H141018   5.106   3.138   0.941
13592WAT     H241019   5.124   3.096   1.098
13593WAT      O41020   5.617   9.039   6.490
13593WAT     H141021   5.679   9.062   6.565
13593WAT     H241022   5.533   9.000   6.528
13594WAT      O41023   0.687   5.185   4.469
13594WAT     H141024   0.684   5.171   4.568
13594WAT     H241025   0.739   5.112   4.426
13595WAT      O41026   0.720   6.639   3.240
13595WAT     H141027   0.763   6.552   3.265
13595WAT     H241028   0.788   6.712   3.246
13596WAT      O41029   6.749   1.497   3.143
13596WAT     H141030   6.658   1.458   3.130
13596WAT     H241031   6.776   1.546   3.061
13597WAT      O41032   6.358   7.182   9.485
13597WAT     H141033   6.322   7.204   9.576
13597WAT     H241034   6.379   7.266   9.436
13598WAT      O41035   0.504   1.554   0.151
13598WAT     H141036   0.530   1.477   0.210
13598WAT     H241037   0.434   1.608   0.197
13599WAT      O41038   1.145   2.771   6.316
13599WAT     H141039   1.188   2.847   6.365
13599WAT     H241040   1.114   2.702   6.381
13600WAT      O41041   3.893   5.999   5.237
13600WAT     H141042   3.945   6.065   5.291
13600WAT     H241043   3.955   5.951   5.175
13601WAT      O41044   6.947   4.175   5.040
13601WAT     H141045   6.855   4.176   5.078
13601WAT     H241046   7.011   4.216   5.106
13602WAT      O41047   2.866   6.155   3.337
13602WAT     H141048   2.822   6.126   3.422
13602WAT     H241049   2.949   6.206   3.358
13603WAT      O41050   6.321   6.666   6.304
13603WAT     H141051   6.412   6.637   6.334
13603WAT     H241052   6.320   6.766   6.293
13604WAT      O41053   1.337   7.003   6.900
13604WAT     H141054   1.411   6.936   6.904
13604WAT     H241055   1.366   7.088   6.944
13605WAT      O41056   0.573   8.492   7.719
13605WAT     H141057   0.651   8.471   7.660
13605WAT     H241058   0.572   8.430   7.797
13606WAT      O41059   2.118   5.859   2.947
13606WAT     H141060   2.081   5.950   2.969
13606WAT     H241061   2.077   5.826   2.862
13607WAT      O41062   4.143   6.083   8.852
13607WAT     H141063   4.055   6.125   8.833
13607WAT     H241064   4.138   6.033   8.939
13608WAT      O41065   8.469   8.029   4.371
13608WAT     H141066   8.379   8.063   4.345
13608WAT     H241067   8.461   7.933   4.398
13609WAT      O41068   3.645   3.853   8.777
13609WAT     H141069   3.622   3.788   8.705
13609WAT     H241070   3.643   3.946   8.740
13610WAT      O41071   4.243   3.463   7.319
13610WAT     H141072   4.146   3.459   7.295
13610WAT     H241073   4.286   3.375   7.296
13611WAT      O41074   7.804   2.021   7.481
13611WAT     H141075   7.900   1.996   7.491
13611WAT     H241076   7.746   1.945   7.510
13612WAT      O41077   8.666   3.402   2.842
13612WAT     H141078   8.606   3.441   2.773
13612WAT     H241079   8.656   3.303   2.844
13613WAT      O41080   1.654   0.501   8.368
13613WAT     H141081   1.619   0.422   8.317
13613WAT     H241082   1.745   0.525   8.332
13614WAT      O41083   0.006   5.548   6.404
13614WAT     H141084  -0.071   5.497   6.442
13614WAT     H241085   0.011   5.638   6.447
13615WAT      O41086   6.342   6.916   1.340
13615WAT     H141087   6.275   6.890   1.270
13615WAT     H241088   6.300   6.979   1.405
13616WAT      O41089   4.438   8.958   7.442
13616WAT     H141090   4.411   8.872   7.485
13616WAT     H241091   4.406   8.959   7.347
13617WAT      O41092   8.999   3.345   6.252
13617WAT     H141093   9.089   3.303   6.241
13617WAT     H241094   8.958   3.313   6.337
13618WAT      O41095   4.375   8.284   3.320
13618WAT     H141096   4.336   8.372   3.292
13618WAT     H241097   4.358   8.269   3.417
13619WAT      O41098   2.745   0.738   4.646
13619WAT     H141099   2.777   0.689   4.565
13619WAT     H241100   2.797   0.823   4.657
13620WAT      O41101   1.547   2.901   3.648
13620WAT     H141102   1.461   2.952   3.650
13620WAT     H241103   1.602   2.932   3.570
13621WAT      O41104   5.314   9.556   5.473
13621WAT     H141105   5.312   9.651   5.506
13621WAT     H241106   5.337   9.495   5.549
13622WAT      O41107   4.548   1.811   2.513
13622WAT     H141108   4.583   1.902   2.492
13622WAT     H241109   4.549   1.796   2.612
13623WAT      O41110   0.512   6.412   5.759
13623WAT     H141111   0.444   6.414   5.832
13623WAT     H241112   0.572   6.492   5.768
13624WAT      O41113   1.923   9.773   6.644
13624WAT     H141114   2.012   9.817   6.656
13624WAT     H241115   1.934   9.688   6.593
13625WAT      O41116   0.093   5.784   0.876
13625WAT     H141117   0.048   5.726   0.808
13625WAT     H241118   0.079   5.880   0.853
13626WAT      O41119   7.224   1.545   5.919
13626WAT     H141120   7.255   1.461   5.876
13626WAT     H241121   7.245   1.543   6.017
13627WAT      O41122   1.925   1.109   8.523
13627WAT     H141123   2.017   1.146   8.530
13627WAT     H241124   1.869   1.168   8.466
13628WAT      O41125   1.165   1.900   4.767
13628WAT     H141126   1.178   1.812   4.812
13628WAT     H241127   1.073   1.934   4.785
13629WAT      O41128   6.925   0.580   1.577
13629WAT     H141129   6.868   0.659   1.555
13629WAT     H241130   6.947   0.581   1.675
13630WAT      O41131   6.832   6.648   0.781
13630WAT     H141132   6.736   6.618   0.779
13630WAT     H241133   6.860   6.676   0.689
13631WAT      O41134   2.787   2.927   2.438
13631WAT     H141135   2.754   2.833   2.440
13631WAT     H241136   2.869   2.933   2.380
13632WAT      O41137   8.107   1.619   6.814
13632WAT     H141138   8.098   1.713   6.849
13632WAT     H241139   8.088   1.554   6.887
13633WAT      O41140   1.563   6.137   3.950
13633WAT     H141141   1.516   6.212   3.903
13633WAT     H241142   1.520   6.050   3.926
13634WAT      O41143   4.046   4.340   8.032
13634WAT     H141144   4.014   4.433   8.052
13634WAT     H241145   3.971   4.287   7.993
13635WAT      O41146   0.954   0.034   1.128
13635WAT     H141147   1.001   0.081   1.202
13635WAT     H241148   0.856   0.054   1.132
13636WAT      O41149   3.275   3.827   0.431
13636WAT     H141150   3.362   3.819   0.381
13636WAT     H241151   3.268   3.918   0.471
13637WAT      O41152   3.237   4.798   2.392
13637WAT     H141153   3.199   4.781   2.483
13637WAT     H241154   3.167   4.783   2.323
13638WAT      O41155   4.936   6.803   8.951
13638WAT     H141156   4.841   6.805   8.982
13638WAT     H241157   4.997   6.814   9.029
13639WAT      O41158   7.826   5.412   5.951
13639WAT     H141159   7.858   5.370   6.036
13639WAT     H241160   7.779   5.344   5.895
13640WAT      O41161   4.632   8.872   6.687
13640WAT     H141162   4.639   8.924   6.772
13640WAT     H241163   4.545   8.890   6.643
13641WAT      O41164   8.955   4.784   9.156
13641WAT     H141165   8.998   4.759   9.242
13641WAT     H241166   9.020   4.834   9.099
13642WAT      O41167   4.190   6.128   4.649
13642WAT     H141168   4.113   6.173   4.694
13642WAT     H241169   4.273   6.145   4.701
13643WAT      O41170   4.513   8.419   0.250
13643WAT     H141171   4.589   8.398   0.189
13643WAT     H241172   4.525   8.370   0.337
13644WAT      O41173   2.640   3.262   6.097
13644WAT     H141174   2.664   3.219   6.010
13644WAT     H241175   2.723   3.284   6.148
13645WAT      O41176   3.818   7.666   4.519
13645WAT     H141177   3.846   7.725   4.444
13645WAT     H241178   3.898   7.619   4.557
13646WAT      O41179   1.321   7.093   5.806
13646WAT     H141180   1.375   7.164   5.851
13646WAT     H241181   1.224   7.118   5.809
13647WAT      O41182   2.011   5.309   3.237
13647WAT     H141183   2.031   5.295   3.140
13647WAT     H241184   2.056   5.392   3.270
13648WAT      O41185   6.979   8.325   4.809
13648WAT     H141186   6.930   8.396   4.759
13648WAT     H241187   7.071   8.356   4.830
13649WAT      O41188   5.354   0.274   9.623
13649WAT     H141189   5.396   0.296   9.711
13649WAT     H241190   5.306   0.187   9.630
13650WAT      O41191   5.660   1.549   5.189
13650WAT     H141192   5.747   1.542   5.238
13650WAT     H241193   5.614   1.461   5.189
13651WAT      O41194   0.747   0.173   6.140
13651WAT     H141195   0.783   0.153   6.231
13651WAT     H241196   0.782   0.106   6.075
13652WAT      O41197   8.589   2.272   8.271
13652WAT     H141198   8.617   2.321   8.188
13652WAT     H241199   8.602   2.174   8.257
13653WAT      O41200   4.578   6.971   6.710
13653WAT     H141201   4.499   6.924   6.749
13653WAT     H241202   4.554   7.067   6.694
13654WAT      O41203   5.083   6.183   5.689
13654WAT     H141204   5.019   6.123   5.738
13654WAT     H241205   5.061   6.182   5.591
13655WAT      O41206   5.828   3.757   4.711
13655WAT     H141207   5.757   3.724   4.773
13655WAT     H241208   5.894   3.684   4.693
13656WAT      O41209   1.549   2.173   9.447
13656WAT     H141210   1.578   2.080   9.468
13656WAT     H241211   1.455   2.171   9.412
13657WAT      O41212   2.506   0.933   6.663
13657WAT     H141213   2.433   0.920   6.596
13657WAT     H241214   2.487   1.016   6.716
13658WAT      O41215   1.743   8.839   5.809
13658WAT     H141216   1.708   8.773   5.743
13658WAT     H241217   1.806   8.793   5.872
13659WAT      O41218   4.183   6.570   6.265
13659WAT     H141219   4.159   6.644   6.202
13659WAT     H241220   4.278   6.580   6.294
13660WAT      O41221   8.135   9.613   3.560
13660WAT     H141222   8.087   9.603   3.473
13660WAT     H241223   8.233   9.604   3.545
13661WAT      O41224   7.764   3.820   6.873
13661WAT     H141225   7.860   3.837   6.850
13661WAT     H241226   7.759   3.760   6.953
13662WAT      O41227   1.171   2.181   5.379
13662WAT     H141228   1.247   2.217   5.433
13662WAT     H241229   1.193   2.186   5.282
13663WAT      O41230   8.595   3.373   7.131
13663WAT     H141231   8.521   3.436   7.107
13663WAT     H241232   8.556   3.289   7.170
13664WAT      O41233   1.327   4.411   5.189
13664WAT     H141234   1.268   4.337   5.221
13664WAT     H241235   1.296   4.498   5.228
13665WAT      O41236   2.227   5.876   4.646
13665WAT     H141237   2.292   5.937   4.691
13665WAT     H241238   2.184   5.817   4.714
13666WAT      O41239   6.330   5.835   8.505
13666WAT     H141240   6.271   5.756   8.518
13666WAT     H241241   6.295   5.891   8.430
13667WAT      O41242   1.587   4.335   0.427
13667WAT     H141243   1.515   4.346   0.496
13667WAT     H241244   1.547   4.295   0.345
13668WAT      O41245   3.870   8.781   2.500
13668WAT     H141246   3.954   8.789   2.445
13668WAT     H241247   3.888   8.814   2.592
13669WAT      O41248   2.437   7.028   8.103
13669WAT     H141249   2.344   7.045   8.138
13669WAT     H241250   2.503   7.042   8.177
13670WAT      O41251   8.636   9.094   5.662
13670WAT     H141252   8.664   9.133   5.575
13670WAT     H241253   8.688   9.135   5.736
13671WAT      O41254   0.494   0.370   4.188
13671WAT     H141255   0.490   0.373   4.288
13671WAT     H241256   0.531   0.457   4.154
13672WAT      O41257   8.250   0.358   8.786
13672WAT     H141258   8.221   0.448   8.753
13672WAT     H241259   8.338   0.367   8.833
13673WAT      O41260   2.621   7.362   2.976
13673WAT     H141261   2.631   7.390   2.880
13673WAT     H241262   2.711   7.367   3.021
13674WAT      O41263   0.128   1.411   5.428
13674WAT     H141264   0.162   1.405   5.334
13674WAT     H241265   0.035   1.376   5.432
13675WAT      O41266   1.289   7.851   5.038
13675WAT     H141267   1.341   7.932   5.066
13675WAT     H241268   1.234   7.818   5.114
13676WAT      O41269   6.717   5.640   1.184
13676WAT     H141270   6.769   5.708   1.234
13676WAT     H241271   6.639   5.684   1.140
13677WAT      O41272   8.968   7.402   9.706
13677WAT     H141273   8.978   7.311   9.668
13677WAT     H241274   8.990   7.470   9.637
13678WAT      O41275   0.572   8.899   3.332
13678WAT     H141276   0.619   8.968   3.277
13678WAT     H241277   0.504   8.944   3.390
13679WAT      O41278   7.528   5.813   5.662
13679WAT     H141279   7.521   5.745   5.589
13679WAT     H241280   7.611   5.796   5.715
13680WAT      O41281   7.346   4.559   3.628
13680WAT     H141282   7.284   4.490   3.666
13680WAT     H241283   7.439   4.524   3.628
13681WAT      O41284   6.892   4.269   7.740
13681WAT     H141285   6.894   4.245   7.837
13681WAT     H241286   6.937   4.197   7.687
13682WAT      O41287   0.998   9.055   1.966
13682WAT     H141288   1.013   9.127   2.034
13682WAT     H241289   1.086   9.027   1.928
13683WAT      O41290   0.389   0.029   3.319
13683WAT     H141291   0.435   0.043   3.406
13683WAT     H241292   0.290   0.017   3.334
13684WAT      O41293   4.190   4.029   8.569
13684WAT     H141294   4.257   4.039   8.495
13684WAT     H241295   4.104   3.996   8.532
13685WAT      O41296   1.747   2.024   4.197
13685WAT     H141297   1.706   1.953   4.254
13685WAT     H241298   1.814   2.076   4.250
13686WAT      O41299   3.095   9.129   0.018
13686WAT     H141300   3.006   9.110  -0.022
13686WAT     H241301   3.141   9.043   0.041
13687WAT      O41302   1.166   5.566   1.202
13687WAT     H141303   1.122   5.522   1.280
13687WAT     H241304   1.221   5.643   1.233
13688WAT      O41305   1.181   3.312   1.748
13688WAT     H141306   1.209   3.349   1.836
13688WAT     H241307   1.104   3.249   1.761
13689WAT      O41308   1.095   0.344   6.459
13689WAT     H141309   1.040   0.359   6.541
13689WAT     H241310   1.085   0.249   6.429
13690WAT      O41311   3.156   8.992   7.395
13690WAT     H141312   3.188   9.059   7.328
13690WAT     H241313   3.060   9.009   7.417
13691WAT      O41314   9.626   4.635   1.251
13691WAT     H141315   9.723   4.627   1.229
13691WAT     H241316   9.615   4.668   1.344
13692WAT      O41317   9.711   2.979   0.716
13692WAT     H141318   9.710   3.001   0.814
13692WAT     H241319   9.658   3.047   0.666
13693WAT      O41320   1.328   9.098   0.226
13693WAT     H141321   1.347   9.015   0.173
13693WAT     H241322   1.281   9.073   0.311
13694WAT      O41323   2.215   4.085   0.926
13694WAT     H141324   2.185   4.161   0.984
13694WAT     H241325   2.142   4.061   0.862
13695WAT      O41326   7.979   4.996   1.768
13695WAT     H141327   7.895   5.001   1.713
13695WAT     H241328   7.955   5.002   1.865
13696WAT      O41329   1.441   0.952   0.307
13696WAT     H141330   1.402   1.032   0.354
13696WAT     H241331   1.369   0.887   0.285
13697WAT      O41332   2.348   9.186   9.649
13697WAT     H141333   2.250   9.195   9.627
13697WAT     H241334   2.363   9.102   9.701
13698WAT      O41335   8.343   4.593   2.196
13698WAT     H141336   8.299   4.528   2.257
13698WAT     H241337   8.327   4.686   2.230
13699WAT      O41338   1.386   3.574   2.967
13699WAT     H141339   1.425   3.639   2.901
13699WAT     H241340   1.421   3.595   3.059
13700WAT      O41341   6.564   2.909   2.558
13700WAT     H141342   6.577   2.916   2.657
13700WAT     H241343   6.481   2.857   2.538
13701WAT      O41344   9.750   0.378   0.523
13701WAT     H141345   9.687   0.301   0.514
13701WAT     H241346   9.819   0.373   0.452
13702WAT      O41347   7.365   3.932   2.731
13702WAT     H141348   7.316   3.845   2.720
13702WAT     H241349   7.447   3.931   2.675
13703WAT      O41350   8.701   6.084   0.566
13703WAT     H141351   8.722   6.011   0.502
13703WAT     H241352   8.740   6.170   0.533
13704WAT      O41353   2.830   4.720   9.399
13704WAT     H141354   2.887   4.793   9.363
13704WAT     H241355   2.871   4.631   9.376
13705WAT      O41356   8.473   3.855   2.147
13705WAT     H141357   8.383   3.900   2.150
13705WAT     H241358   8.544   3.924   2.135
13706WAT      O41359   7.209   0.173   9.822
13706WAT     H141360   7.201   0.247   9.889
13706WAT     H241361   7.269   0.102   9.859
13707WAT      O41362   2.526   4.156   3.458
13707WAT     H141363   2.517   4.250   3.490
13707WAT     H241364   2.598   4.110   3.510
13708WAT      O41365   5.442   1.002   8.894
13708WAT     H141366   5.445   0.913   8.848
13708WAT     H241367   5.351   1.017   8.933
13709WAT      O41368   3.284   4.500   7.579
13709WAT     H141369   3.274   4.423   7.643
13709WAT     H241370   3.204   4.502   7.518
13710WAT      O41371   1.305   2.143   1.575
13710WAT     H141372   1.251   2.079   1.519
13710WAT     H241373   1.363   2.091   1.637
13711WAT      O41374   8.749   8.904   5.400
13711WAT     H141375   8.782   8.998   5.399
13711WAT     H241376   8.660   8.900   5.354
13712WAT      O41377   5.223   7.556   6.893
13712WAT     H141378   5.220   7.596   6.802
13712WAT     H241379   5.306   7.501   6.903
13713WAT      O41380   1.849   3.660   7.078
13713WAT     H141381   1.927   3.716   7.109
13713WAT     H241382   1.878   3.565   7.070
13714WAT      O41383   4.172   2.237   3.084
13714WAT     H141384   4.122   2.227   2.997
13714WAT     H241385   4.268   2.259   3.065
13715WAT      O41386   5.025   4.061   3.449
13715WAT     H141387   5.115   4.019   3.437
13715WAT     H241388   4.992   4.042   3.542
13716WAT      O41389   6.740   0.851   6.723
13716WAT     H141390   6.785   0.927   6.676
13716WAT     H241391   6.693   0.885   6.804
13717WAT      O41392   3.248   2.937   3.732
13717WAT     H141393   3.293   2.869   3.674
13717WAT     H241394   3.295   3.025   3.724
13718WAT      O41395   4.660   3.421   1.027
13718WAT     H141396   4.691   3.327   1.015
13718WAT     H241397   4.637   3.460   0.937
13719WAT      O41398   2.212   8.113   5.533
13719WAT     H141399   2.229   8.184   5.601
13719WAT     H241400   2.234   8.024   5.573
13720WAT      O41401   3.294   7.330   9.229
13720WAT     H141402   3.287   7.422   9.268
13720WAT     H241403   3.358   7.276   9.283
13721WAT      O41404   8.949   9.753   8.625
13721WAT     H141405   8.899   9.783   8.706
13721WAT     H241406   8.907   9.794   8.544
13722WAT      O41407   2.613   3.474   1.962
13722WAT     H141408   2.700   3.424   1.969
13722WAT     H241409   2.606   3.539   2.037
13723WAT      O41410   8.941   6.649   8.165
13723WAT     H141411   8.926   6.551   8.150
13723WAT     H241412   8.862   6.700   8.133
13724WAT      O41413   3.243   1.252   2.617
13724WAT     H141414   3.254   1.302   2.531
13724WAT     H241415   3.197   1.311   2.684
13725WAT      O41416   4.342   8.419   7.859
13725WAT     H141417   4.310   8.513   7.871
13725WAT     H241418   4.264   8.357   7.866
13726WAT      O41419   8.144   1.364   0.112
13726WAT     H141420   8.141   1.417   0.197
13726WAT     H241421   8.103   1.418   0.038
13727WAT      O41422   2.737   6.839   0.729
13727WAT     H141423   2.706   6.924   0.686
13727WAT     H241424   2.660   6.776   0.737
13728WAT      O41425   5.428   4.348   0.072
13728WAT     H141426   5.386   4.370  -0.016
13728WAT     H241427   5.484   4.266   0.062
13729WAT      O41428   7.110   2.619   1.486
13729WAT     H141429   7.025   2.616   1.539
13729WAT     H241430   7.185   2.644   1.547
13730WAT      O41431   3.907   3.681   3.997
13730WAT     H141432   3.860   3.768   4.016
13730WAT     H241433   3.937   3.640   4.083
13731WAT      O41434   5.811   2.593   2.319
13731WAT     H141435   5.718   2.617   2.348
13731WAT     H241436   5.809   2.506   2.269
13732WAT      O41437   5.079   6.080   6.925
13732WAT     H141438   5.057   6.043   6.835
13732WAT     H241439   5.178   6.096   6.931
13733WAT      O41440   5.578   1.781   4.895
13733WAT     H141441   5.644   1.805   4.966
13733WAT     H241442   5.560   1.861   4.838
13734WAT      O41443   9.016   6.549   1.530
13734WAT     H141444   8.945   6.562   1.461
13734WAT     H241445   8.999   6.464   1.579
13735WAT      O41446   4.919   8.696   0.380
13735WAT     H141447   4.823   8.706   0.405
13735WAT     H241448   4.943   8.765   0.312
13736WAT      O41449   7.703   4.591   8.485
13736WAT     H141450   7.787   4.614   8.436
13736WAT     H241451   7.721   4.591   8.583
13737WAT      O41452   1.315   5.718   8.304
13737WAT     H141453   1.415   5.711   8.298
13737WAT     H241454   1.291   5.786   8.374
13738WAT      O41455   7.119   4.575   7.636
13738WAT     H141456   7.106   4.579   7.735
13738WAT     H241457   7.176   4.652   7.607
13739WAT      O41458   4.737   6.473   0.036
13739WAT     H141459   4.834   6.466   0.059
13739WAT     H241460   4.717   6.415  -0.043
13740WAT      O41461   8.519   4.640   1.949
13740WAT     H141462   8.537   4.600   2.039
13740WAT     H241463   8.551   4.577   1.878
13741WAT      O41464   7.958   5.474   1.925
13741WAT     H141465   7.974   5.498   2.021
13741WAT     H241466   7.922   5.554   1.876
13742WAT      O41467   1.340   9.826   2.319
13742WAT     H141468   1.420   9.844   2.378
13742WAT     H241469   1.370   9.776   2.238
13743WAT      O41470   5.025   7.414   3.328
13743WAT     H141471   5.099   7.421   3.261
13743WAT     H241472   5.063   7.423   3.420
13744WAT      O41473   9.664   2.385   7.250
13744WAT     H141474   9.629   2.441   7.175
13744WAT     H241475   9.600   2.390   7.327
13745WAT      O41476   1.667   2.630   0.647
13745WAT     H141477   1.629   2.710   0.693
13745WAT     H241478   1.766   2.628   0.659
13746WAT      O41479   1.774   2.205   1.879
13746WAT     H141480   1.780   2.112   1.845
13746WAT     H241481   1.839   2.263   1.829
13747WAT      O41482   2.245   3.132   4.085
13747WAT     H141483   2.171   3.131   4.153
13747WAT     H241484   2.328   3.093   4.125
13748WAT      O41485   9.862   2.257   5.618
13748WAT     H141486   9.952   2.224   5.589
13748WAT     H241487   9.869   2.353   5.643
13749WAT      O41488   2.611   3.040   2.949
13749WAT     H141489   2.654   3.120   2.907
13749WAT     H241490   2.663   2.958   2.924
13750WAT      O41491   9.475   4.125   5.865
13750WAT     H141492   9.449   4.151   5.958
13750WAT     H241493   9.446   4.198   5.802
13751WAT      O41494   0.422   4.598   5.698
13751WAT     H141495   0.388   4.616   5.606
13751WAT     H241496   0.367   4.527   5.741
13752WAT      O41497   1.724   8.371   4.906
13752WAT     H141498   1.796   8.376   4.836
13752WAT     H241499   1.660   8.446   4.894
13753WAT      O41500   7.337   2.183   2.495
13753WAT     H141501   7.312   2.272   2.456
13753WAT     H241502   7.353   2.118   2.421
13754WAT      O41503   0.580   6.929   1.668
13754WAT     H141504   0.514   7.002   1.688
13754WAT     H241505   0.611   6.887   1.753
13755WAT      O41506   9.225   3.608   4.153
13755WAT     H141507   9.158   3.534   4.155
13755WAT     H241508   9.299   3.585   4.089
13756WAT      O41509   8.767   3.673   9.054
13756WAT     H141510   8.671   3.658   9.030
13756WAT     H241511   8.823   3.599   9.016
13757WAT      O41512   7.989   1.797   4.443
13757WAT     H141513   8.086   1.823   4.435
13757WAT     H241514   7.983   1.701   4.470
13758WAT      O41515   9.187   4.871   4.826
13758WAT     H141516   9.215   4.896   4.919
13758WAT     H241517   9.190   4.771   4.817
13759WAT      O41518   4.799   1.087   3.701
13759WAT     H141519   4.829   1.021   3.631
13759WAT     H241520   4.813   1.047   3.791
13760WAT      O41521   9.874   4.490   4.412
13760WAT     H141522   9.801   4.433   4.450
13760WAT     H241523   9.875   4.481   4.312
13761WAT      O41524   6.070   3.263   7.624
13761WAT     H141525   6.063   3.286   7.527
13761WAT     H241526   6.158   3.296   7.659
13762WAT      O41527   5.122   6.880   0.362
13762WAT     H141528   5.104   6.952   0.430
13762WAT     H241529   5.213   6.894   0.324
13763WAT      O41530   0.531   7.930   1.844
13763WAT     H141531   0.454   7.875   1.811
13763WAT     H241532   0.597   7.944   1.770
13764WAT      O41533   1.233   1.179   8.458
13764WAT     H141534   1.158   1.215   8.513
13764WAT     H241535   1.197   1.115   8.391
13765WAT      O41536   3.772   2.171   4.714
13765WAT     H141537   3.680   2.210   4.716
13765WAT     H241538   3.823   2.211   4.637
13766WAT      O41539   3.104   1.537   3.968
13766WAT     H141540   3.153   1.495   4.045
13766WAT     H241541   3.122   1.635   3.967
13767WAT      O41542   1.920   2.306   8.215
13767WAT     H141543   1.922   2.262   8.304
13767WAT     H241544   1.845   2.269   8.160
13768WAT      O41545   6.412   7.857   9.463
13768WAT     H141546   6.432   7.883   9.368
13768WAT     H241547   6.376   7.937   9.512
13769WAT      O41548   9.868   6.379   4.968
13769WAT     H141549   9.959   6.341   4.982
13769WAT     H241550   9.856   6.460   5.026
13770WAT      O41551   2.513   6.502   9.436
13770WAT     H141552   2.523   6.483   9.338
13770WAT     H241553   2.417   6.492   9.462
13771WAT      O41554   9.297   6.150   7.118
13771WAT     H141555   9.318   6.052   7.121
13771WAT     H241556   9.206   6.166   7.156
13772WAT      O41557   4.620   9.499   3.450
13772WAT     H141558   4.603   9.401   3.441
13772WAT     H241559   4.704   9.513   3.503
13773WAT      O41560   6.087   1.795   7.222
13773WAT     H141561   6.141   1.718   7.188
13773WAT     H241562   6.013   1.814   7.157
13774WAT      O41563   4.298   1.680   5.480
13774WAT     H141564   4.332   1.757   5.426
13774WAT     H241565   4.218   1.709   5.533
13775WAT      O41566   4.340   2.619   5.832
13775WAT     H141567   4.375   2.565   5.909
13775WAT     H241568   4.415   2.642   5.770
13776WAT      O41569   1.670   8.398   1.581
13776WAT     H141570   1.623   8.464   1.523
13776WAT     H241571   1.607   8.366   1.652
13777WAT      O41572   5.520   1.161   0.361
13777WAT     H141573   5.604   1.214   0.351
13777WAT     H241574   5.535   1.088   0.427
13778WAT      O41575   4.069   1.696   1.947
13778WAT     H141576   4.108   1.640   2.019
13778WAT     H241577   4.137   1.761   1.914
13779WAT      O41578   4.834   1.529   5.236
13779WAT     H141579   4.799   1.571   5.320
13779WAT     H241580   4.928   1.499   5.250
13780WAT      O41581   1.257   2.829   2.368
13780WAT     H141582   1.323   2.755   2.352
13780WAT     H241583   1.174   2.812   2.315
13781WAT      O41584   7.827   4.085   0.071
13781WAT     H141585   7.739   4.123   0.098
13781WAT     H241586   7.814   3.996   0.027
13782WAT      O41587   8.719   4.412   5.040
13782WAT     H141588   8.718   4.319   5.077
13782WAT     H241589   8.796   4.462   5.081
13783WAT      O41590   4.054   8.217   1.485
13783WAT     H141591   4.018   8.268   1.407
13783WAT     H241592   4.019   8.123   1.483
13784WAT      O41593   8.237   3.556   6.117
13784WAT     H141594   8.242   3.609   6.032
13784WAT     H241595   8.305   3.482   6.114
13785WAT      O41596   8.051   6.957   2.063
13785WAT     H141597   8.145   6.927   2.045
13785WAT     H241598   8.044   7.056   2.049
13786WAT      O41599   2.863   8.887   8.052
13786WAT     H141600   2.857   8.959   8.121
13786WAT     H241601   2.883   8.800   8.096
13787WAT      O41602   7.335   1.453   8.690
13787WAT     H141603   7.379   1.460   8.600
13787WAT     H241604   7.379   1.516   8.754
13788WAT      O41605   7.068   4.811   8.804
13788WAT     H141606   7.103   4.894   8.847
13788WAT     H241607   7.099   4.807   8.710
13789WAT      O41608   6.583   1.229   3.562
13789WAT     H141609   6.531   1.156   3.607
13789WAT     H241610   6.548   1.317   3.592
13790WAT      O41611   7.497   0.917   5.889
13790WAT     H141612   7.477   0.844   5.823
13790WAT     H241613   7.579   0.966   5.861
13791WAT      O41614   5.412   4.335   2.162
13791WAT     H141615   5.378   4.411   2.216
13791WAT     H241616   5.504   4.311   2.192
13792WAT      O41617   6.226   6.105   5.755
13792WAT     H141618   6.245   6.127   5.850
13792WAT     H241619   6.244   6.185   5.698
13793WAT      O41620   9.267   4.825   7.320
13793WAT     H141621   9.289   4.920   7.299
13793WAT     H241622   9.188   4.821   7.381
13794WAT      O41623   5.597   2.736   1.813
13794WAT     H141624   5.505   2.761   1.846
13794WAT     H241625   5.663   2.748   1.887
13795WAT      O41626   1.545   1.388   4.604
13795WAT     H141627   1.536   1.344   4.515
13795WAT     H241628   1.640   1.381   4.635
13796WAT      O41629   4.031   7.820   3.543
13796WAT     H141630   4.122   7.857   3.563
13796WAT     H241631   3.986   7.793   3.629
13797WAT      O41632   8.040   0.033   6.674
13797WAT     H141633   8.083   0.017   6.763
13797WAT     H241634   7.941   0.039   6.686
13798WAT      O41635   0.436   6.983   4.294
13798WAT     H141636   0.443   7.083   4.303
13798WAT     H241637   0.446   6.941   4.384
13799WAT      O41638   8.658   0.084   5.554
13799WAT     H141639   8.562   0.060   5.573
13799WAT     H241640   8.664   0.182   5.536
13800WAT      O41641   0.335   3.765   4.422
13800WAT     H141642   0.317   3.674   4.384
13800WAT     H241643   0.297   3.835   4.361
13801WAT      O41644   9.706   6.119   7.632
13801WAT     H141645   9.776   6.067   7.582
13801WAT     H241646   9.703   6.087   7.726
13802WAT      O41647   6.954   9.476   3.483
13802WAT     H141648   6.856   9.467   3.500
13802WAT     H241649   6.997   9.519   3.563
13803WAT      O41650   1.670   1.668   6.073
13803WAT     H141651   1.705   1.760   6.056
13803WAT     H241652   1.724   1.602   6.020
13804WAT      O41653   0.771   0.256   9.436
13804WAT     H141654   0.838   0.304   9.379
13804WAT     H241655   0.805   0.250   9.530
13805WAT      O41656   9.045   1.683   8.026
13805WAT     H141657   9.073   1.753   8.092
13805WAT     H241658   9.071   1.593   8.062
13806WAT      O41659   1.957   6.085   0.256
13806WAT     H141660   2.036   6.085   0.318
13806WAT     H241661   1.941   5.992   0.224
13807WAT      O41662   9.678   8.176   5.403
13807WAT     H141663   9.623   8.207   5.325
13807WAT     H241664   9.653   8.082   5.426
13808WAT      O41665   3.817   6.420   4.681
13808WAT     H141666   3.915   6.409   4.702
13808WAT     H241667   3.797   6.373   4.595
13809WAT      O41668   0.121   6.899   5.965
13809WAT     H141669   0.125   6.896   6.065
13809WAT     H241670   0.206   6.936   5.929
13810WAT      O41671   9.708   5.510   0.838
13810WAT     H141672   9.774   5.559   0.782
13810WAT     H241673   9.633   5.571   0.863
13811WAT      O41674   3.784   9.634   9.628
13811WAT     H141675   3.808   9.552   9.680
13811WAT     H241676   3.815   9.715   9.677
13812WAT      O41677   4.307   8.856   8.834
13812WAT     H141678   4.237   8.791   8.807
13812WAT     H241679   4.269   8.923   8.898
13813WAT      O41680   7.602   2.789   0.314
13813WAT     H141681   7.689   2.763   0.272
13813WAT     H241682   7.528   2.735   0.273
13814WAT      O41683   2.753   7.842   9.720
13814WAT     H141684   2.816   7.775   9.760
13814WAT     H241685   2.783   7.934   9.744
13815WAT      O41686   9.762   7.598   8.194
13815WAT     H141687   9.687   7.589   8.128
13815WAT     H241688   9.835   7.534   8.172
13816WAT      O41689   2.472   6.123   0.437
13816WAT     H141690   2.432   6.156   0.523
13816WAT     H241691   2.505   6.201   0.384
13817WAT      O41692   1.446   9.590   4.481
13817WAT     H141693   1.380   9.578   4.407
13817WAT     H241694   1.501   9.507   4.489
13818WAT      O41695   1.530   6.770   9.834
13818WAT     H141696   1.621   6.731   9.828
13818WAT     H241697   1.471   6.729   9.764
13819WAT      O41698   2.786   3.920   2.578
13819WAT     H141699   2.795   3.865   2.495
13819WAT     H241700   2.843   3.881   2.650
13820WAT      O41701   0.912   9.069   6.033
13820WAT     H141702   1.003   9.078   5.992
13820WAT     H241703   0.921   9.048   6.130
13821WAT      O41704   6.417   0.893   7.654
13821WAT     H141705   6.328   0.936   7.645
13821WAT     H241706   6.405   0.794   7.667
13822WAT      O41707   6.953   6.754   7.398
13822WAT     H141708   6.957   6.846   7.436
13822WAT     H241709   6.908   6.756   7.309
13823WAT      O41710   0.021   7.949   3.592
13823WAT     H141711   0.037   7.874   3.527
13823WAT     H241712   0.064   8.032   3.557
13824WAT      O41713   1.114   2.961   8.594
13824WAT     H141714   1.213   2.946   8.597
13824WAT     H241715   1.087   2.987   8.501
13825WAT      O41716   1.153   4.137   4.529
13825WAT     H141717   1.054   4.144   4.547
13825WAT     H241718   1.202   4.202   4.587
13826WAT      O41719   9.375   5.976   2.819
13826WAT     H141720   9.381   6.074   2.803
13826WAT     H241721   9.297   5.956   2.879
13827WAT      O41722   9.094   9.539   0.888
13827WAT     H141723   9.140   9.491   0.962
13827WAT     H241724   9.116   9.636   0.892
13828WAT      O41725   8.684   8.805   8.735
13828WAT     H141726   8.740   8.885   8.755
13828WAT     H241727   8.588   8.832   8.729
13829WAT      O41728   5.651   8.224   1.162
13829WAT     H141729   5.666   8.268   1.073
13829WAT     H241730   5.730   8.242   1.221
13830WAT      O41731   5.585   9.148   5.787
13830WAT     H141732   5.628   9.203   5.715
13830WAT     H241733   5.518   9.086   5.746
13831WAT      O41734   1.603   3.989   2.837
13831WAT     H141735   1.606   4.071   2.779
13831WAT     H241736   1.696   3.968   2.868
13832WAT      O41737   3.404   2.079   7.401
13832WAT     H141738   3.420   2.073   7.500
13832WAT     H241739   3.381   1.989   7.366
13833WAT      O41740   3.793   0.047   7.576
13833WAT     H141741   3.697   0.035   7.598
13833WAT     H241742   3.807   0.135   7.530
13834WAT      O41743   2.145   6.962   9.013
13834WAT     H141744   2.171   6.874   8.975
13834WAT     H241745   2.065   6.997   8.963
13835WAT      O41746   8.422   0.185   8.322
13835WAT     H141747   8.374   0.145   8.244
13835WAT     H241748   8.451   0.278   8.298
13836WAT      O41749   4.694   3.394   7.446
13836WAT     H141750   4.674   3.482   7.401
13836WAT     H241751   4.771   3.405   7.508
13837WAT      O41752   0.825   9.822   6.565
13837WAT     H141753   0.920   9.790   6.565
13837WAT     H241754   0.793   9.832   6.659
13838WAT      O41755   5.059   0.331   1.044
13838WAT     H141756   5.008   0.248   1.023
13838WAT     H241757   5.006   0.387   1.108
13839WAT      O41758   8.038   1.988   6.355
13839WAT     H141759   8.107   1.994   6.283
13839WAT     H241760   7.971   2.062   6.343
13840WAT      O41761   6.309   2.150   2.504
13840WAT     H141762   6.330   2.241   2.467
13840WAT     H241763   6.285   2.088   2.430
13841WAT      O41764   5.274   3.487   2.157
13841WAT     H141765   5.372   3.466   2.148
13841WAT     H241766   5.253   3.570   2.107
13842WAT      O41767   0.370   3.962   0.025
13842WAT     H141768   0.372   3.871   0.066
13842WAT     H241769   0.276   3.987   0.001
13843WAT      O41770   4.848   1.649   9.834
13843WAT     H141771   4.879   1.744   9.832
13843WAT     H241772   4.888   1.602   9.913
13844WAT      O41773   8.369   7.016   5.499
13844WAT     H141774   8.436   6.986   5.567
13844WAT     H241775   8.375   6.957   5.418
13845WAT      O41776   3.675   6.868   7.781
13845WAT     H141777   3.627   6.946   7.740
13845WAT     H241778   3.609   6.808   7.826
13846WAT      O41779   8.565   9.565   4.768
13846WAT     H141780   8.480   9.527   4.804
13846WAT     H241781   8.544   9.631   4.695
13847WAT      O41782   1.965   9.181   4.349
13847WAT     H141783   2.040   9.243   4.373
13847WAT     H241784   1.984   9.136   4.262
13848WAT      O41785   3.780   9.167   0.028
13848WAT     H141786   3.790   9.259  -0.011
13848WAT     H241787   3.699   9.165   0.086
13849WAT      O41788   1.907   2.545   7.618
13849WAT     H141789   1.832   2.590   7.570
13849WAT     H241790   1.875   2.457   7.653
13850WAT      O41791   5.352   7.719   0.602
13850WAT     H141792   5.304   7.644   0.647
13850WAT     H241793   5.340   7.712   0.503
13851WAT      O41794   2.478   8.020   7.240
13851WAT     H141795   2.475   8.115   7.273
13851WAT     H241796   2.515   8.019   7.146
13852WAT      O41797   0.136   0.805   4.079
13852WAT     H141798   0.113   0.719   4.126
13852WAT     H241799   0.054   0.839   4.032
13853WAT      O41800   7.297   0.519   0.546
13853WAT     H141801   7.260   0.606   0.577
13853WAT     H241802   7.343   0.474   0.623
13854WAT      O41803   3.634   8.709   7.791
13854WAT     H141804   3.561   8.662   7.740
13854WAT     H241805   3.672   8.646   7.859
13855WAT      O41806   5.879   1.460   6.573
13855WAT     H141807   5.851   1.485   6.480
13855WAT     H241808   5.798   1.442   6.628
13856WAT      O41809   3.099   4.727   2.608
13856WAT     H141810   3.096   4.651   2.674
13856WAT     H241811   3.086   4.813   2.656
13857WAT      O41812   9.220   0.127   4.311
13857WAT     H141813   9.302   0.172   4.345
13857WAT     H241814   9.245   0.044   4.262
13858WAT      O41815   8.112   4.618   3.238
13858WAT     H141816   8.146   4.701   3.281
13858WAT     H241817   8.095   4.548   3.307
13859WAT      O41818   4.899   2.703   3.177
13859WAT     H141819   4.890   2.657   3.089
13859WAT     H241820   4.993   2.693   3.210
13860WAT      O41821   6.239   0.239   4.305
13860WAT     H141822   6.274   0.146   4.316
13860WAT     H241823   6.215   0.255   4.209
13861WAT      O41824   9.093   0.476   5.180
13861WAT     H141825   9.066   0.531   5.102
13861WAT     H241826   9.152   0.401   5.149
13862WAT      O41827   2.481   8.903   3.123
13862WAT     H141828   2.404   8.950   3.079
13862WAT     H241829   2.451   8.865   3.210
13863WAT      O41830   6.203   8.451   9.023
13863WAT     H141831   6.244   8.410   8.942
13863WAT     H241832   6.104   8.454   9.013
13864WAT      O41833   7.767   3.075   9.848
13864WAT     H141834   7.760   3.174   9.841
13864WAT     H241835   7.686   3.033   9.807
13865WAT      O41836   4.666   9.155   2.220
13865WAT     H141837   4.584   9.168   2.276
13865WAT     H241838   4.655   9.071   2.166
13866WAT      O41839   5.081   9.804   7.272
13866WAT     H141840   5.037   9.776   7.187
13866WAT     H241841   5.013   9.811   7.344
13867WAT      O41842   4.294   7.096   4.098
13867WAT     H141843   4.364   7.025   4.106
13867WAT     H241844   4.214   7.070   4.152
13868WAT      O41845   8.653   4.676   5.276
13868WAT     H141846   8.593   4.596   5.275
13868WAT     H241847   8.641   4.728   5.191
13869WAT      O41848   9.832   2.826   4.446
13869WAT     H141849   9.792   2.896   4.388
13869WAT     H241850   9.919   2.858   4.483
13870WAT      O41851   7.837   1.807   6.224
13870WAT     H141852   7.911   1.847   6.277
13870WAT     H241853   7.797   1.730   6.274
13871WAT      O41854   8.334   4.854   0.406
13871WAT     H141855   8.262   4.901   0.456
13871WAT     H241856   8.418   4.909   0.408
13872WAT      O41857   4.309   2.438   0.900
13872WAT     H141858   4.354   2.516   0.857
13872WAT     H241859   4.313   2.359   0.838
13873WAT      O41860   6.364   6.241   3.704
13873WAT     H141861   6.385   6.143   3.714
13873WAT     H241862   6.269   6.252   3.676
13874WAT      O41863   9.519   0.642   1.089
13874WAT     H141864   9.421   0.659   1.103
13874WAT     H241865   9.553   0.582   1.162
13875WAT      O41866   9.592   4.831   0.426
13875WAT     H141867   9.564   4.802   0.518
13875WAT     H241868   9.567   4.927   0.414
13876WAT      O41869   2.110   2.037   8.585
13876WAT     H141870   2.147   1.944   8.575
13876WAT     H241871   2.084   2.052   8.681
13877WAT      O41872   8.210   7.958   4.682
13877WAT     H141873   8.212   7.961   4.782
13877WAT     H241874   8.303   7.964   4.646
13878WAT      O41875   7.481   2.114   6.156
13878WAT     H141876   7.460   2.017   6.150
13878WAT     H241877   7.407   2.162   6.203
13879WAT      O41878   1.312   9.236   0.858
13879WAT     H141879   1.355   9.253   0.947
13879WAT     H241880   1.335   9.144   0.827
13880WAT      O41881   0.674   3.333   2.369
13880WAT     H141882   0.636   3.244   2.347
13880WAT     H241883   0.659   3.396   2.292
13881WAT      O41884   4.262   9.710   3.761
13881WAT     H141885   4.321   9.662   3.697
13881WAT     H241886   4.173   9.664   3.766
13882WAT      O41887   9.772   2.709   6.282
13882WAT     H141888   9.747   2.614   6.298
13882WAT     H241889   9.856   2.730   6.332
13883WAT      O41890   4.182   1.908   2.502
13883WAT     H141891   4.097   1.864   2.531
13883WAT     H241892   4.219   1.962   2.577
13884WAT      O41893   3.275   9.302   6.396
13884WAT     H141894   3.279   9.291   6.297
13884WAT     H241895   3.180   9.317   6.424
13885WAT      O41896   6.534   8.050   2.810
13885WAT     H141897   6.601   8.103   2.861
13885WAT     H241898   6.544   7.953   2.833
13886WAT      O41899   2.042   2.061   3.698
13886WAT     H141900   2.064   2.140   3.641
13886WAT     H241901   1.979   2.090   3.771
13887WAT      O41902   5.751   1.789   4.108
13887WAT     H141903   5.801   1.876   4.113
13887WAT     H241904   5.691   1.781   4.187
13888WAT      O41905   4.031   4.076   6.087
13888WAT     H141906   4.005   3.988   6.126
13888WAT     H241907   4.116   4.108   6.130
13889WAT      O41908   9.173   5.562   5.771
13889WAT     H141909   9.147   5.475   5.812
13889WAT     H241910   9.113   5.583   5.695
13890WAT      O41911   4.208   2.446   8.212
13890WAT     H141912   4.111   2.422   8.204
13890WAT     H241913   4.217   2.546   8.204
13891WAT      O41914   3.926   1.135   4.586
13891WAT     H141915   3.872   1.129   4.671
13891WAT     H241916   3.891   1.069   4.520
13892WAT      O41917   2.320   9.585   4.628
13892WAT     H141918   2.275   9.580   4.539
13892WAT     H241919   2.376   9.668   4.633
13893WAT      O41920   3.966   5.228   9.235
13893WAT     H141921   4.002   5.297   9.172
13893WAT     H241922   3.983   5.137   9.197
13894WAT      O41923   0.846   7.880   3.178
13894WAT     H141924   0.768   7.910   3.122
13894WAT     H241925   0.875   7.954   3.237
13895WAT      O41926   8.712   0.057   1.075
13895WAT     H141927   8.687   0.124   1.004
13895WAT     H241928   8.789   0.092   1.128
13896WAT      O41929   1.632   4.553   2.615
13896WAT     H141930   1.709   4.613   2.592
13896WAT     H241931   1.638   4.469   2.561
13897WAT      O41932   8.086   3.634   8.018
13897WAT     H141933   7.987   3.629   8.016
13897WAT     H241934   8.117   3.649   8.112
13898WAT      O41935   9.585   5.589   2.857
13898WAT     H141936   9.622   5.547   2.940
13898WAT     H241937   9.531   5.522   2.807
13899WAT      O41938   5.309   1.455   1.801
13899WAT     H141939   5.327   1.399   1.720
13899WAT     H241940   5.259   1.537   1.774
13900WAT      O41941   4.483   7.609   1.472
13900WAT     H141942   4.462   7.670   1.548
13900WAT     H241943   4.582   7.594   1.467
13901WAT      O41944   0.757   1.335   4.757
13901WAT     H141945   0.674   1.288   4.725
13901WAT     H241946   0.832   1.269   4.762
13902WAT      O41947   3.185   7.573   1.998
13902WAT     H141948   3.251   7.599   1.928
13902WAT     H241949   3.232   7.523   2.071
13903WAT      O41950   4.360   2.801   8.060
13903WAT     H141951   4.430   2.750   8.011
13903WAT     H241952   4.271   2.757   8.047
13904WAT      O41953   0.900   3.560   6.185
13904WAT     H141954   0.901   3.473   6.136
13904WAT     H241955   0.832   3.621   6.144
13905WAT      O41956   2.578   3.770   5.542
13905WAT     H141957   2.647   3.783   5.613
13905WAT     H241958   2.546   3.675   5.544
13906WAT      O41959   6.114   9.019   7.271
13906WAT     H141960   6.065   9.073   7.204
13906WAT     H241961   6.062   9.017   7.357
13907WAT      O41962   5.424   0.385   9.376
13907WAT     H141963   5.401   0.483   9.371
13907WAT     H241964   5.395   0.349   9.464
13908WAT      O41965   3.597   7.625   7.226
13908WAT     H141966   3.523   7.635   7.292
13908WAT     H241967   3.595   7.534   7.186
13909WAT      O41968   2.951   1.382   1.078
13909WAT     H141969   3.047   1.406   1.092
13909WAT     H241970   2.909   1.447   1.014
13910WAT      O41971   5.862   3.174   4.586
13910WAT     H141972   5.856   3.159   4.488
13910WAT     H241973   5.783   3.133   4.632
13911WAT      O41974   3.381   0.723   4.074
13911WAT     H141975   3.299   0.703   4.128
13911WAT     H241976   3.405   0.820   4.085
13912WAT      O41977   9.480   6.390   5.518
13912WAT     H141978   9.469   6.292   5.502
13912WAT     H241979   9.394   6.429   5.550
13913WAT      O41980   0.936   4.766   0.458
13913WAT     H141981   0.841   4.765   0.490
13913WAT     H241982   0.988   4.695   0.505
13914WAT      O41983   3.258   0.390   7.567
13914WAT     H141984   3.284   0.320   7.634
13914WAT     H241985   3.253   0.479   7.613
13915WAT      O41986   3.423   1.580   1.507
13915WAT     H141987   3.413   1.481   1.505
13915WAT     H241988   3.346   1.621   1.555
13916WAT      O41989   9.818   4.473   6.853
13916WAT     H141990   9.752   4.539   6.815
13916WAT     H241991   9.770   4.408   6.912
13917WAT      O41992   1.467   6.193   0.319
13917WAT     H141993   1.565   6.213   0.314
13917WAT     H241994   1.428   6.238   0.400
13918WAT      O41995   7.616   6.693   1.122
13918WAT     H141996   7.631   6.622   1.054
13918WAT     H241997   7.555   6.764   1.084
13919WAT      O41998   9.230   5.428   4.040
13919WAT     H141999   9.263   5.489   3.968
13919WAT     H242000   9.283   5.343   4.040
13920WAT      O42001   4.604   8.439   2.361
13920WAT     H142002   4.662   8.520   2.348
13920WAT     H242003   4.661   8.358   2.375
13921WAT      O42004   8.438   8.484   2.400
13921WAT     H142005   8.417   8.582   2.396
13921WAT     H242006   8.520   8.470   2.456
13922WAT      O42007   7.875   2.256   0.251
13922WAT     H142008   7.968   2.279   0.281
13922WAT     H242009   7.851   2.312   0.172
13923WAT      O42010   9.294   4.390   9.093
13923WAT     H142011   9.282   4.340   9.179
13923WAT     H242012   9.330   4.327   9.023
13924WAT      O42013   6.564   7.682   0.567
13924WAT     H142014   6.564   7.701   0.665
13924WAT     H242015   6.626   7.745   0.520
13925WAT      O42016   5.412   4.417   5.441
13925WAT     H142017   5.400   4.376   5.531
13925WAT     H242018   5.498   4.467   5.438
13926WAT      O42019   4.384   6.947   2.691
13926WAT     H142020   4.402   7.018   2.760
13926WAT     H242021   4.335   6.872   2.734
13927WAT      O42022   2.937   2.012   5.799
13927WAT     H142023   2.939   2.079   5.725
13927WAT     H242024   2.936   1.920   5.760
13928WAT      O42025   3.032   9.444   0.350
13928WAT     H142026   2.997   9.355   0.322
13928WAT     H242027   3.130   9.449   0.330
13929WAT      O42028   8.167   2.704   0.837
13929WAT     H142029   8.191   2.745   0.748
13929WAT     H242030   8.245   2.710   0.898
13930WAT      O42031   0.368   0.286   8.426
13930WAT     H142032   0.428   0.351   8.381
13930WAT     H242033   0.380   0.195   8.385
13931WAT      O42034   8.712   0.428   4.081
13931WAT     H142035   8.671   0.358   4.139
13931WAT     H242036   8.806   0.402   4.057
13932WAT      O42037   3.545   5.724   8.385
13932WAT     H142038   3.598   5.791   8.435
13932WAT     H242039   3.505   5.766   8.303
13933WAT      O42040   6.370   0.091   7.389
13933WAT     H142041   6.364   0.191   7.390
13933WAT     H242042   6.301   0.055   7.326
13934WAT      O42043   6.979   3.937   7.665
13934WAT     H142044   7.025   3.955   7.751
13934WAT     H242045   6.972   3.839   7.650
13935WAT      O42046   3.895   5.674   0.072
13935WAT     H142047   3.897   5.693  -0.026
13935WAT     H242048   3.980   5.629   0.099
13936WAT      O42049   0.711   0.137   1.026
13936WAT     H142050   0.666   0.208   0.974
13936WAT     H242051   0.676   0.047   0.999
13937WAT      O42052   3.692   4.149   5.745
13937WAT     H142053   3.746   4.230   5.721
13937WAT     H242054   3.603   4.154   5.700
13938WAT      O42055   3.304   9.120   2.609
13938WAT     H142056   3.301   9.020   2.603
13938WAT     H242057   3.241   9.159   2.541
13939WAT      O42058   3.033   1.067   6.307
13939WAT     H142059   2.961   1.000   6.323
13939WAT     H242060   3.019   1.113   6.220
13940WAT      O42061   9.372   2.746   4.929
13940WAT     H142062   9.366   2.654   4.888
13940WAT     H242063   9.435   2.743   5.007
13941WAT      O42064   6.777   9.111   3.826
13941WAT     H142065   6.847   9.046   3.859
13941WAT     H242066   6.722   9.067   3.756
13942WAT      O42067   9.760   0.060   5.656
13942WAT     H142068   9.720   0.108   5.734
13942WAT     H242069   9.859   0.074   5.655
13943WAT      O42070   4.190   5.876   2.486
13943WAT     H142071   4.176   5.798   2.425
13943WAT     H242072   4.133   5.952   2.456
13944WAT      O42073   0.748   1.330   1.406
13944WAT     H142074   0.808   1.252   1.390
13944WAT     H242075   0.797   1.415   1.385
13945WAT      O42076   4.814   8.233   4.155
13945WAT     H142077   4.871   8.198   4.230
13945WAT     H242078   4.820   8.171   4.077
13946WAT      O42079   0.141   4.873   0.268
13946WAT     H142080   0.195   4.859   0.352
13946WAT     H242081   0.076   4.947   0.283
13947WAT      O42082   8.150   2.115   2.138
13947WAT     H142083   8.170   2.151   2.229
13947WAT     H242084   8.160   2.016   2.138
13948WAT      O42085   4.759   5.859   9.559
13948WAT     H142086   4.700   5.784   9.529
13948WAT     H242087   4.744   5.876   9.656
13949WAT      O42088   2.896   0.945   7.816
13949WAT     H142089   2.815   1.003   7.815
13949WAT     H242090   2.894   0.886   7.897
13950WAT      O42091   6.108   4.409   6.730
13950WAT     H142092   6.076   4.485   6.787
13950WAT     H242093   6.208   4.406   6.731
13951WAT      O42094   7.879   4.278   5.682
13951WAT     H142095   7.821   4.353   5.649
13951WAT     H242096   7.943   4.312   5.750
13952WAT      O42097   9.585   8.090   8.626
13952WAT     H142098   9.557   8.178   8.589
13952WAT     H242099   9.664   8.055   8.575
13953WAT      O42100   7.347   3.175   3.312
13953WAT     H142101   7.247   3.179   3.316
13953WAT     H242102   7.381   3.252   3.258
13954WAT      O42103   1.305   3.798   9.084
13954WAT     H142104   1.350   3.854   9.015
13954WAT     H242105   1.211   3.778   9.054
13955WAT      O42106   7.536   4.461   0.159
13955WAT     H142107   7.461   4.486   0.219
13955WAT     H242108   7.619   4.508   0.188
13956WAT      O42109   2.994   4.158   8.384
13956WAT     H142110   2.901   4.181   8.410
13956WAT     H242111   3.042   4.118   8.462
13957WAT      O42112   6.152   4.437   0.966
13957WAT     H142113   6.075   4.378   0.940
13957WAT     H242114   6.122   4.532   0.967
13958WAT      O42115   8.647   8.110   1.144
13958WAT     H142116   8.622   8.021   1.106
13958WAT     H242117   8.620   8.182   1.080
13959WAT      O42118   2.756   2.286   2.337
13959WAT     H142119   2.826   2.348   2.303
13959WAT     H242120   2.671   2.337   2.354
13960WAT      O42121   3.162   9.247   5.465
13960WAT     H142122   3.073   9.207   5.488
13960WAT     H242123   3.186   9.222   5.372
13961WAT      O42124   4.944   8.247   5.152
13961WAT     H142125   4.970   8.268   5.057
13961WAT     H242126   5.020   8.273   5.213
13962WAT      O42127   5.642   2.537   0.603
13962WAT     H142128   5.689   2.623   0.580
13962WAT     H242129   5.554   2.534   0.555
13963WAT      O42130   9.066   6.589   7.124
13963WAT     H142131   9.050   6.581   7.025
13963WAT     H242132   8.989   6.547   7.173
13964WAT      O42133   1.617   6.024   4.839
13964WAT     H142134   1.693   6.068   4.887
13964WAT     H242135   1.531   6.070   4.864
13965WAT      O42136   6.646   3.997   0.558
13965WAT     H142137   6.610   3.938   0.631
13965WAT     H242138   6.694   4.075   0.599
13966WAT      O42139   2.522   6.687   5.068
13966WAT     H142140   2.564   6.623   5.004
13966WAT     H242141   2.422   6.686   5.057
13967WAT      O42142   7.048   8.385   0.028
13967WAT     H142143   7.031   8.481   0.006
13967WAT     H242144   7.125   8.352  -0.027
13968WAT      O42145   1.453   2.558   5.461
13968WAT     H142146   1.549   2.567   5.434
13968WAT     H242147   1.425   2.640   5.511
13969WAT      O42148   5.123   2.972   4.164
13969WAT     H142149   5.095   2.933   4.076
13969WAT     H242150   5.067   3.052   4.184
13970WAT      O42151   9.839   8.454   9.303
13970WAT     H142152   9.833   8.554   9.304
13970WAT     H242153   9.768   8.416   9.361
13971WAT      O42154   6.257   0.315   6.465
13971WAT     H142155   6.205   0.246   6.516
13971WAT     H242156   6.267   0.285   6.370
13972WAT      O42157   8.476   5.375   0.907
13972WAT     H142158   8.501   5.281   0.929
13972WAT     H242159   8.407   5.407   0.973
13973WAT      O42160   8.320   2.919   2.046
13973WAT     H142161   8.277   3.002   2.011
13973WAT     H242162   8.419   2.927   2.037
13974WAT      O42163   2.050   7.252   9.685
13974WAT     H142164   2.045   7.277   9.589
13974WAT     H242165   1.981   7.303   9.737
13975WAT      O42166   5.681   3.238   9.114
13975WAT     H142167   5.705   3.334   9.122
13975WAT     H242168   5.584   3.226   9.136
13976WAT      O42169   9.004   1.325   0.715
13976WAT     H142170   9.086   1.330   0.657
13976WAT     H242171   9.021   1.376   0.800
13977WAT      O42172   9.568   8.679   0.832
13977WAT     H142173   9.574   8.634   0.744
13977WAT     H242174   9.475   8.712   0.847
13978WAT      O42175   0.636   3.109   9.644
13978WAT     H142176   0.607   3.148   9.557
13978WAT     H242177   0.676   3.019   9.628
13979WAT      O42178   4.231   6.932   0.015
13979WAT     H142179   4.201   6.920  -0.080
13979WAT     H242180   4.253   7.028   0.030
13980WAT      O42181   8.148   9.419   8.827
13980WAT     H142182   8.062   9.457   8.862
13980WAT     H242183   8.222   9.484   8.846
13981WAT      O42184   6.475   3.258   7.706
13981WAT     H142185   6.464   3.220   7.798
13981WAT     H242186   6.423   3.343   7.699
13982WAT      O42187   5.964   9.163   5.716
13982WAT     H142188   5.911   9.088   5.755
13982WAT     H242189   6.027   9.198   5.784
13983WAT      O42190   2.485   4.936   6.231
13983WAT     H142191   2.516   5.008   6.168
13983WAT     H242192   2.524   4.953   6.322
13984WAT      O42193   7.873   0.006   5.959
13984WAT     H142194   7.774  -0.004   5.960
13984WAT     H242195   7.898   0.098   5.991
13985WAT      O42196   4.214   9.238   1.083
13985WAT     H142197   4.143   9.170   1.062
13985WAT     H242198   4.304   9.195   1.079
13986WAT      O42199   4.341   4.250   9.743
13986WAT     H142200   4.375   4.164   9.781
13986WAT     H242201   4.371   4.259   9.648
13987WAT      O42202   0.174   9.655   9.428
13987WAT     H142203   0.169   9.724   9.356
13987WAT     H242204   0.186   9.565   9.386
13988WAT      O42205   4.477   7.040   2.436
13988WAT     H142206   4.443   7.134   2.426
13988WAT     H242207   4.447   7.002   2.523
13989WAT      O42208   2.573   9.764   6.000
13989WAT     H142209   2.668   9.740   5.981
13989WAT     H242210   2.562   9.784   6.097
13990WAT      O42211   7.535   1.930   2.524
13990WAT     H142212   7.499   1.847   2.568
13990WAT     H242213   7.494   1.940   2.434
13991WAT      O42214   7.464   0.926   8.878
13991WAT     H142215   7.486   0.983   8.957
13991WAT     H242216   7.377   0.880   8.893
13992WAT      O42217   0.326   6.081   1.661
13992WAT     H142218   0.301   5.995   1.617
13992WAT     H242219   0.245   6.138   1.673
13993WAT      O42220   9.799   2.144   9.676
13993WAT     H142221   9.729   2.213   9.658
13993WAT     H242222   9.877   2.161   9.615
13994WAT      O42223   4.769   5.113   5.258
13994WAT     H142224   4.804   5.034   5.308
13994WAT     H242225   4.815   5.196   5.290
13995WAT      O42226   1.317   2.847   0.846
13995WAT     H142227   1.288   2.765   0.798
13995WAT     H242228   1.266   2.855   0.932
13996WAT      O42229   5.586   3.075   0.840
13996WAT     H142230   5.555   3.159   0.795
13996WAT     H242231   5.563   2.996   0.782
13997WAT      O42232   6.776   5.183   3.579
13997WAT     H142233   6.747   5.176   3.484
13997WAT     H242234   6.817   5.273   3.594
13998WAT      O42235   0.163   9.592   0.280
13998WAT     H142236   0.203   9.604   0.190
13998WAT     H242237   0.140   9.681   0.318
13999WAT      O42238   0.866   3.866   7.710
13999WAT     H142239   0.873   3.915   7.623
13999WAT     H242240   0.942   3.802   7.718
14000WAT      O42241   9.498   0.644   1.737
14000WAT     H142242   9.486   0.621   1.640
14000WAT     H242243   9.472   0.565   1.793
14001WAT      O42244   8.771   7.180   1.623
14001WAT     H142245   8.865   7.162   1.595
14001WAT     H242246   8.717   7.096   1.614
14002WAT      O42247   8.259   5.715   0.825
14002WAT     H142248   8.256   5.710   0.925
14002WAT     H242249   8.204   5.793   0.794
14003WAT      O42250   1.677   5.169   2.081
14003WAT     H142251   1.743   5.121   2.023
14003WAT     H242252   1.725   5.204   2.162
14004WAT      O42253   4.823   1.788   4.380
14004WAT     H142254   4.752   1.844   4.423
14004WAT     H242255   4.815   1.694   4.412
14005WAT      O42256   9.751   5.998   0.077
14005WAT     H142257   9.717   6.024   0.168
14005WAT     H242258   9.691   5.928   0.039
14006WAT      O42259   9.080   9.016   8.432
14006WAT     H142260   9.040   9.082   8.496
14006WAT     H242261   9.052   8.924   8.458
14007WAT      O42262   9.519   9.438   9.588
14007WAT     H142263   9.572   9.435   9.503
14007WAT     H242264   9.454   9.513   9.584
14008WAT      O42265   7.984   0.255   8.218
14008WAT     H142266   8.001   0.346   8.180
14008WAT     H242267   7.890   0.249   8.250
14009WAT      O42268   6.209   2.960   8.474
14009WAT     H142269   6.229   2.953   8.376
14009WAT     H242270   6.128   2.906   8.495
14010WAT      O42271   5.379   8.950   5.729
14010WAT     H142272   5.296   8.993   5.694
14010WAT     H242273   5.367   8.930   5.826
14011WAT      O42274   5.410   9.307   7.351
14011WAT     H142275   5.335   9.262   7.401
14011WAT     H242276   5.388   9.404   7.338
14012WAT      O42277   3.190   0.334   4.407
14012WAT     H142278   3.183   0.416   4.351
14012WAT     H242279   3.235   0.357   4.494
14013WAT      O42280   2.178   4.305   8.916
14013WAT     H142281   2.148   4.297   8.821
14013WAT     H242282   2.138   4.231   8.971
14014WAT      O42283   9.233   3.929   7.959
14014WAT     H142284   9.160   3.894   8.017
14014WAT     H242285   9.210   3.912   7.863
14015WAT      O42286   4.513   3.836   3.682
14015WAT     H142287   4.583   3.815   3.614
14015WAT     H242288   4.437   3.884   3.638
14016WAT      O42289   6.801   2.108   1.224
14016WAT     H142290   6.876   2.174   1.217
14016WAT     H242291   6.773   2.080   1.133
14017WAT      O42292   1.184   8.593   0.993
14017WAT     H142293   1.201   8.690   1.012
14017WAT     H242294   1.191   8.541   1.078
14018WAT      O42295   3.924   6.788   9.263
14018WAT     H142296   3.891   6.808   9.171
14018WAT     H242297   3.960   6.695   9.266
14019WAT      O42298   2.701   6.925   2.908
14019WAT     H142299   2.762   6.856   2.871
14019WAT     H242300   2.616   6.926   2.856
14020WAT      O42301   7.911   8.435   4.374
14020WAT     H142302   7.999   8.395   4.400
14020WAT     H242303   7.884   8.400   4.284
14021WAT      O42304   2.510   5.142   8.625
14021WAT     H142305   2.496   5.044   8.638
14021WAT     H242306   2.431   5.192   8.661
14022WAT      O42307   2.795   3.197   7.729
14022WAT     H142308   2.789   3.191   7.630
14022WAT     H242309   2.865   3.264   7.754
14023WAT      O42310   8.822   2.677   4.474
14023WAT     H142311   8.826   2.777   4.472
14023WAT     H242312   8.902   2.641   4.520
14024WAT      O42313   1.738   5.605   3.691
14024WAT     H142314   1.769   5.525   3.742
14024WAT     H242315   1.812   5.672   3.686
14025WAT      O42316   2.892   1.811   9.121
14025WAT     H142317   2.940   1.760   9.192
14025WAT     H242318   2.939   1.798   9.033
14026WAT      O42319   4.387   8.267   0.635
14026WAT     H142320   4.426   8.219   0.714
14026WAT     H242321   4.382   8.365   0.655
14027WAT      O42322   2.561   0.513   5.252
14027WAT     H142323   2.556   0.504   5.351
14027WAT     H242324   2.469   0.504   5.213
14028WAT      O42325   1.865   4.642   5.943
14028WAT     H142326   1.781   4.589   5.932
14028WAT     H242327   1.848   4.738   5.919
14029WAT      O42328   1.018   7.233   6.530
14029WAT     H142329   1.058   7.255   6.442
14029WAT     H242330   1.090   7.222   6.599
14030WAT      O42331   6.706   1.201   7.710
14030WAT     H142332   6.612   1.236   7.709
14030WAT     H242333   6.740   1.202   7.804
14031WAT      O42334   1.816   4.460   8.860
14031WAT     H142335   1.730   4.504   8.835
14031WAT     H242336   1.891   4.525   8.848
14032WAT      O42337   6.179   0.128   5.328
14032WAT     H142338   6.186   0.031   5.351
14032WAT     H242339   6.265   0.158   5.286
14033WAT      O42340   5.780   7.271   5.411
14033WAT     H142341   5.867   7.228   5.389
14033WAT     H242342   5.736   7.303   5.326
14034WAT      O42343   4.076   8.012   8.810
14034WAT     H142344   4.027   8.049   8.888
14034WAT     H242345   4.059   7.914   8.803
14035WAT      O42346   5.074   7.905   4.862
14035WAT     H142347   5.134   7.841   4.814
14035WAT     H242348   5.125   7.951   4.934
14036WAT      O42349   2.984   7.491   3.422
14036WAT     H142350   2.948   7.540   3.343
14036WAT     H242351   3.036   7.554   3.479
14037WAT      O42352   3.266   8.299   4.241
14037WAT     H142353   3.243   8.396   4.242
14037WAT     H242354   3.183   8.245   4.249
14038WAT      O42355   8.620   1.553   4.125
14038WAT     H142356   8.715   1.521   4.127
14038WAT     H242357   8.559   1.477   4.101
14039WAT      O42358   6.930   2.034   2.143
14039WAT     H142359   6.867   1.986   2.204
14039WAT     H242360   6.946   2.126   2.177
14040WAT      O42361   9.361   6.457   8.538
14040WAT     H142362   9.422   6.398   8.590
14040WAT     H242363   9.368   6.434   8.441
14041WAT      O42364   0.046   6.724   8.955
14041WAT     H142365   0.084   6.814   8.974
14041WAT     H242366  -0.015   6.728   8.876
14042WAT      O42367   0.000   2.493   6.707
14042WAT     H142368   0.083   2.464   6.755
14042WAT     H242369  -0.081   2.462   6.757
14043WAT      O42370   2.887   7.731   2.186
14043WAT     H142371   2.918   7.639   2.164
14043WAT     H242372   2.822   7.727   2.262
14044WAT      O42373   6.759   0.472   4.044
14044WAT     H142374   6.742   0.374   4.038
14044WAT     H242375   6.857   0.489   4.046
14045WAT      O42376   5.505   8.028   6.199
14045WAT     H142377   5.527   8.123   6.177
14045WAT     H242378   5.420   8.002   6.154
14046WAT      O42379   2.467   0.379   4.951
14046WAT     H142380   2.442   0.309   4.884
14046WAT     H242381   2.538   0.438   4.912
14047WAT      O42382   2.054   1.520   0.518
14047WAT     H142383   2.014   1.566   0.597
14047WAT     H242384   2.039   1.421   0.526
14048WAT      O42385   9.399   7.068   8.896
14048WAT     H142386   9.469   7.017   8.946
14048WAT     H242387   9.423   7.070   8.798
14049WAT      O42388   0.202   9.634   2.244
14049WAT     H142389   0.106   9.642   2.270
14049WAT     H242390   0.208   9.620   2.145
14050WAT      O42391   6.093   4.677   1.329
14050WAT     H142392   6.155   4.705   1.257
14050WAT     H242393   6.068   4.757   1.385
14051WAT      O42394   2.357   9.794   5.852
14051WAT     H142395   2.444   9.769   5.893
14051WAT     H242396   2.306   9.710   5.829
14052WAT      O42397   6.145   3.989   8.572
14052WAT     H142398   6.054   3.987   8.532
14052WAT     H242399   6.145   4.047   8.653
14053WAT      O42400   7.054   1.589   5.440
14053WAT     H142401   7.063   1.504   5.390
14053WAT     H242402   7.020   1.570   5.533
14054WAT      O42403   4.615   3.975   1.499
14054WAT     H142404   4.592   3.913   1.424
14054WAT     H242405   4.707   4.012   1.485
14055WAT      O42406   1.252   1.670   0.730
14055WAT     H142407   1.252   1.657   0.630
14055WAT     H242408   1.276   1.765   0.750
14056WAT      O42409   7.527   0.767   1.097
14056WAT     H142410   7.601   0.821   1.139
14056WAT     H242411   7.450   0.762   1.160
14057WAT      O42412   0.704   2.103   3.305
14057WAT     H142413   0.638   2.133   3.236
14057WAT     H242414   0.796   2.124   3.273
14058WAT      O42415   0.817   1.578   4.691
14058WAT     H142416   0.787   1.491   4.730
14058WAT     H242417   0.887   1.618   4.750
14059WAT      O42418   5.796   4.205   2.814
14059WAT     H142419   5.716   4.234   2.867
14059WAT     H242420   5.816   4.273   2.744
14060WAT      O42421   8.545   3.072   1.395
14060WAT     H142422   8.557   3.100   1.300
14060WAT     H242423   8.613   3.118   1.452
14061WAT      O42424   1.294   4.892   8.122
14061WAT     H142425   1.244   4.979   8.123
14061WAT     H242426   1.265   4.838   8.043
14062WAT      O42427   0.835   0.969   7.429
14062WAT     H142428   0.921   1.020   7.438
14062WAT     H242429   0.762   1.019   7.477
14063WAT      O42430   1.518   9.588   1.197
14063WAT     H142431   1.594   9.600   1.132
14063WAT     H242432   1.550   9.606   1.290
14064WAT      O42433   0.519   3.325   5.498
14064WAT     H142434   0.566   3.298   5.582
14064WAT     H242435   0.463   3.406   5.517
14065WAT      O42436   4.234   0.552   3.440
14065WAT     H142437   4.295   0.618   3.396
14065WAT     H242438   4.143   0.593   3.450
14066WAT      O42439   2.154   7.844   4.753
14066WAT     H142440   2.147   7.751   4.789
14066WAT     H242441   2.080   7.859   4.687
14067WAT      O42442   9.149   8.288   6.990
14067WAT     H142443   9.178   8.192   6.987
14067WAT     H242444   9.059   8.297   6.948
14068WAT      O42445   2.371   3.639   8.016
14068WAT     H142446   2.334   3.635   7.923
14068WAT     H242447   2.322   3.709   8.068
14069WAT      O42448   1.156   5.005   4.504
14069WAT     H142449   1.196   4.918   4.536
14069WAT     H242450   1.192   5.026   4.413
14070WAT      O42451   9.330   1.491   3.403
14070WAT     H142452   9.273   1.542   3.468
14070WAT     H242453   9.294   1.505   3.310
14071WAT      O42454   3.311   8.798   6.155
14071WAT     H142455   3.343   8.866   6.220
14071WAT     H242456   3.211   8.795   6.156
14072WAT      O42457   1.099   4.702   8.405
14072WAT     H142458   1.181   4.668   8.451
14072WAT     H242459   1.032   4.732   8.473
14073WAT      O42460   1.302   5.273   3.119
14073WAT     H142461   1.247   5.356   3.127
14073WAT     H242462   1.310   5.229   3.208
14074WAT      O42463   4.085   0.194   5.172
14074WAT     H142464   4.036   0.222   5.255
14074WAT     H242465   4.028   0.130   5.120
14075WAT      O42466   4.030   7.092   9.125
14075WAT     H142467   4.050   7.012   9.069
14075WAT     H242468   4.113   7.148   9.133
14076WAT      O42469   4.116   0.400   4.469
14076WAT     H142470   4.028   0.386   4.515
14076WAT     H242471   4.108   0.476   4.404
14077WAT      O42472   7.592   3.966   2.601
14077WAT     H142473   7.629   4.047   2.647
14077WAT     H242474   7.668   3.907   2.574
14078WAT      O42475   8.350   5.701   2.391
14078WAT     H142476   8.448   5.718   2.381
14078WAT     H242477   8.311   5.675   2.303
14079WAT      O42478   3.202   9.645   2.080
14079WAT     H142479   3.237   9.661   1.988
14079WAT     H242480   3.102   9.649   2.078
14080WAT      O42481   7.716   5.417   4.468
14080WAT     H142482   7.809   5.392   4.442
14080WAT     H242483   7.655   5.399   4.391
14081WAT      O42484   6.006   4.852   8.971
14081WAT     H142485   5.988   4.754   8.958
14081WAT     H242486   6.040   4.867   9.064
14082WAT      O42487   4.721   5.458   8.530
14082WAT     H142488   4.746   5.375   8.480
14082WAT     H242489   4.767   5.536   8.490
14083WAT      O42490   0.603   4.848   6.266
14083WAT     H142491   0.620   4.756   6.230
14083WAT     H242492   0.517   4.883   6.231
14084WAT      O42493   2.749   1.326   0.190
14084WAT     H142494   2.728   1.423   0.203
14084WAT     H242495   2.826   1.316   0.127
14085WAT      O42496   3.045   1.003   1.812
14085WAT     H142497   3.032   1.014   1.713
14085WAT     H242498   2.960   0.971   1.854
14086WAT      O42499   4.020   0.357   3.180
14086WAT     H142500   3.939   0.403   3.218
14086WAT     H242501   3.996   0.316   3.092
14087WAT      O42502   0.856   3.284   9.705
14087WAT     H142503   0.796   3.205   9.696
14087WAT     H242504   0.913   3.275   9.787
14088WAT      O42505   6.582   8.511   8.932
14088WAT     H142506   6.536   8.597   8.955
14088WAT     H242507   6.663   8.531   8.876
14089WAT      O42508   3.332   5.806   5.937
14089WAT     H142509   3.304   5.770   6.025
14089WAT     H242510   3.421   5.768   5.911
14090WAT      O42511   0.114   9.381   8.470
14090WAT     H142512   0.106   9.302   8.531
14090WAT     H242513   0.199   9.430   8.488
14091WAT      O42514   3.326   8.585   8.424
14091WAT     H142515   3.342   8.536   8.339
14091WAT     H242516   3.413   8.619   8.460
14092WAT      O42517   4.250   4.764   9.043
14092WAT     H142518   4.297   4.690   8.994
14092WAT     H242519   4.173   4.796   8.989
14093WAT      O42520   0.958   4.680   4.327
14093WAT     H142521   0.981   4.663   4.423
14093WAT     H242522   1.032   4.731   4.284
14094WAT      O42523   8.767   3.850   1.172
14094WAT     H142524   8.682   3.873   1.126
14094WAT     H242525   8.750   3.833   1.269
14095WAT      O42526   5.634   6.013   8.498
14095WAT     H142527   5.656   5.965   8.583
14095WAT     H242528   5.670   5.962   8.420
14096WAT      O42529   6.483   2.964   5.342
14096WAT     H142530   6.533   2.972   5.255
14096WAT     H242531   6.431   2.879   5.342
14097WAT      O42532   6.954   4.322   3.599
14097WAT     H142533   7.029   4.339   3.663
14097WAT     H242534   6.922   4.228   3.611
14098WAT      O42535   4.172   6.812   0.248
14098WAT     H142536   4.198   6.828   0.153
14098WAT     H242537   4.253   6.790   0.302
14099WAT      O42538   2.878   8.446   2.287
14099WAT     H142539   2.883   8.440   2.386
14099WAT     H242540   2.966   8.422   2.247
14100WAT      O42541   7.173   0.755   9.272
14100WAT     H142542   7.158   0.791   9.364
14100WAT     H242543   7.239   0.680   9.275
14101WAT      O42544   3.246   4.495   1.993
14101WAT     H142545   3.238   4.504   2.092
14101WAT     H242546   3.276   4.582   1.954
14102WAT      O42547   6.653   9.005   2.671
14102WAT     H142548   6.668   8.956   2.585
14102WAT     H242549   6.684   8.949   2.748
14103WAT      O42550   0.135   5.258   9.887
14103WAT     H142551   0.160   5.302   9.801
14103WAT     H242552   0.181   5.170   9.895
14104WAT      O42553   4.310   3.595   6.199
14104WAT     H142554   4.345   3.507   6.166
14104WAT     H242555   4.210   3.592   6.203
14105WAT      O42556   7.392   4.249   6.759
14105WAT     H142557   7.403   4.320   6.829
14105WAT     H242558   7.457   4.175   6.775
14106WAT      O42559   8.493   1.544   5.015
14106WAT     H142560   8.487   1.640   5.043
14106WAT     H242561   8.461   1.533   4.921
14107WAT      O42562   9.328   3.411   0.220
14107WAT     H142563   9.328   3.373   0.127
14107WAT     H242564   9.395   3.363   0.276
14108WAT      O42565   9.252   4.924   6.529
14108WAT     H142566   9.326   4.899   6.592
14108WAT     H242567   9.290   4.956   6.443
14109WAT      O42568   0.747   9.831   8.956
14109WAT     H142569   0.826   9.889   8.976
14109WAT     H242570   0.774   9.758   8.893
14110WAT      O42571   1.751   4.280   7.103
14110WAT     H142572   1.678   4.320   7.158
14110WAT     H242573   1.762   4.184   7.127
14111WAT      O42574   9.342   0.938   2.130
14111WAT     H142575   9.343   0.864   2.063
14111WAT     H242576   9.275   1.007   2.103
14112WAT      O42577   4.122   1.499   8.720
14112WAT     H142578   4.142   1.580   8.776
14112WAT     H242579   4.033   1.510   8.676
14113WAT      O42580   9.851   6.397   9.615
14113WAT     H142581   9.941   6.388   9.658
14113WAT     H242582   9.828   6.311   9.569
14114WAT      O42583   9.542   3.736   2.700
14114WAT     H142584   9.639   3.712   2.693
14114WAT     H242585   9.494   3.665   2.753
14115WAT      O42586   8.348   7.813   8.764
14115WAT     H142587   8.443   7.841   8.777
14115WAT     H242588   8.334   7.782   8.670
14116WAT      O42589   6.610   0.059   7.066
14116WAT     H142590   6.667   0.111   7.003
14116WAT     H242591   6.646  -0.034   7.074
14117WAT      O42592   5.332   2.816   8.909
14117WAT     H142593   5.252   2.807   8.968
14117WAT     H242594   5.369   2.725   8.888
14118WAT      O42595   5.993   6.763   4.023
14118WAT     H142596   6.085   6.743   4.057
14118WAT     H242597   5.926   6.716   4.080
14119WAT      O42598   6.679   4.050   6.863
14119WAT     H142599   6.732   4.044   6.779
14119WAT     H242600   6.582   4.032   6.844
14120WAT      O42601   2.011   4.084   6.198
14120WAT     H142602   2.003   4.130   6.110
14120WAT     H242603   1.928   4.032   6.216
14121WAT      O42604   5.075   9.073   9.560
14121WAT     H142605   5.004   9.006   9.540
14121WAT     H242606   5.154   9.057   9.500
14122WAT      O42607   8.464   0.397   9.832
14122WAT     H142608   8.368   0.398   9.860
14122WAT     H242609   8.483   0.313   9.781
14123WAT      O42610   5.483   6.795   3.388
14123WAT     H142611   5.445   6.713   3.344
14123WAT     H242612   5.579   6.805   3.361
14124WAT      O42613   3.211   7.966   1.143
14124WAT     H142614   3.255   7.883   1.177
14124WAT     H242615   3.116   7.968   1.174
14125WAT      O42616   8.062   2.537   6.500
14125WAT     H142617   8.071   2.631   6.535
14125WAT     H242618   8.151   2.507   6.466
14126WAT      O42619   6.116   6.834   8.375
14126WAT     H142620   6.068   6.754   8.408
14126WAT     H242621   6.207   6.839   8.417
14127WAT      O42622   9.280   9.253   5.867
14127WAT     H142623   9.247   9.159   5.872
14127WAT     H242624   9.317   9.279   5.956
14128WAT      O42625   2.968   5.786   5.379
14128WAT     H142626   2.966   5.825   5.472
14128WAT     H242627   2.882   5.738   5.362
14129WAT      O42628   5.174   5.483   3.695
14129WAT     H142629   5.195   5.399   3.645
14129WAT     H242630   5.075   5.494   3.703
14130WAT      O42631   4.487   1.266   5.995
14130WAT     H142632   4.488   1.265   5.895
14130WAT     H242633   4.579   1.248   6.030
14131WAT      O42634   2.582   0.428   1.957
14131WAT     H142635   2.616   0.335   1.942
14131WAT     H242636   2.593   0.452   2.053
14132WAT      O42637   3.768   8.266   3.690
14132WAT     H142638   3.777   8.276   3.591
14132WAT     H242639   3.673   8.249   3.714
14133WAT      O42640   4.337   4.949   9.484
14133WAT     H142641   4.400   4.883   9.525
14133WAT     H242642   4.289   4.906   9.408
14134WAT      O42643   6.507   2.999   1.004
14134WAT     H142644   6.409   2.998   0.984
14134WAT     H242645   6.530   2.922   1.063
14135WAT      O42646   4.980   8.624   6.321
14135WAT     H142647   5.042   8.556   6.281
14135WAT     H242648   4.927   8.581   6.394
14136WAT      O42649   8.324   7.621   5.889
14136WAT     H142650   8.386   7.626   5.811
14136WAT     H242651   8.255   7.551   5.873
14137WAT      O42652   8.692   5.535   8.115
14137WAT     H142653   8.659   5.604   8.050
14137WAT     H242654   8.720   5.581   8.200
14138WAT      O42655   7.543   3.678   1.487
14138WAT     H142656   7.512   3.619   1.412
14138WAT     H242657   7.511   3.641   1.574
14139WAT      O42658   5.294   8.782   3.298
14139WAT     H142659   5.351   8.797   3.218
14139WAT     H242660   5.225   8.853   3.304
14140WAT      O42661   2.481   2.359   4.774
14140WAT     H142662   2.524   2.440   4.733
14140WAT     H242663   2.552   2.299   4.811
14141WAT      O42664   5.309   7.833   5.422
14141WAT     H142665   5.284   7.759   5.485
14141WAT     H242666   5.227   7.869   5.378
14142WAT      O42667   3.705   7.476   2.875
14142WAT     H142668   3.684   7.457   2.780
14142WAT     H242669   3.727   7.573   2.886
14143WAT      O42670   9.773   2.922   6.122
14143WAT     H142671   9.788   2.837   6.172
14143WAT     H242672   9.748   2.995   6.187
14144WAT      O42673   7.049   9.756   4.216
14144WAT     H142674   7.050   9.666   4.173
14144WAT     H242675   6.962   9.769   4.264
14145WAT      O42676   7.222   7.539   5.005
14145WAT     H142677   7.268   7.625   5.025
14145WAT     H242678   7.141   7.530   5.062
14146WAT      O42679   6.558   7.502   8.560
14146WAT     H142680   6.627   7.456   8.615
14146WAT     H242681   6.599   7.578   8.510
14147WAT      O42682   3.856   9.266   3.761
14147WAT     H142683   3.916   9.318   3.700
14147WAT     H242684   3.779   9.229   3.708
14148WAT      O42685   4.059   0.299   9.550
14148WAT     H142686   4.123   0.226   9.523
14148WAT     H242687   3.982   0.300   9.487
14149WAT      O42688   4.532   9.463   1.348
14149WAT     H142689   4.626   9.433   1.364
14149WAT     H242690   4.470   9.384   1.355
14150WAT      O42691   7.906   0.197   5.393
14150WAT     H142692   7.914   0.103   5.426
14150WAT     H242693   7.971   0.211   5.318
14151WAT      O42694   9.646   8.742   5.592
14151WAT     H142695   9.712   8.735   5.518
14151WAT     H242696   9.671   8.679   5.666
14152WAT      O42697   0.364   7.206   2.213
14152WAT     H142698   0.395   7.274   2.280
14152WAT     H242699   0.379   7.114   2.248
14153WAT      O42700   1.407   6.178   4.950
14153WAT     H142701   1.490   6.229   4.971
14153WAT     H242702   1.373   6.133   5.033
14154WAT      O42703   5.606   3.680   2.092
14154WAT     H142704   5.656   3.757   2.053
14154WAT     H242705   5.651   3.594   2.065
14155WAT      O42706   3.038   8.813   0.435
14155WAT     H142707   3.066   8.891   0.491
14155WAT     H242708   2.981   8.751   0.489
14156WAT      O42709   8.012   3.492   5.789
14156WAT     H142710   8.043   3.568   5.845
14156WAT     H242711   7.932   3.520   5.736
14157WAT      O42712   6.295   6.209   4.983
14157WAT     H142713   6.350   6.266   4.922
14157WAT     H242714   6.242   6.144   4.929
14158WAT      O42715   6.411   5.953   2.252
14158WAT     H142716   6.422   5.859   2.218
14158WAT     H242717   6.397   6.015   2.174
14159WAT      O42718   5.936   2.450   9.437
14159WAT     H142719   5.852   2.407   9.470
14159WAT     H242720   5.928   2.469   9.339
14160WAT      O42721   1.528   8.532   4.796
14160WAT     H142722   1.563   8.608   4.851
14160WAT     H242723   1.428   8.531   4.802
14161WAT      O42724   3.720   9.618   8.766
14161WAT     H142725   3.753   9.588   8.677
14161WAT     H242726   3.651   9.688   8.755
14162WAT      O42727   6.403   2.693   5.408
14162WAT     H142728   6.358   2.714   5.495
14162WAT     H242729   6.337   2.649   5.346
14163WAT      O42730   9.321   4.396   2.197
14163WAT     H142731   9.393   4.350   2.145
14163WAT     H242732   9.239   4.338   2.200
14164WAT      O42733   1.479   7.658   6.412
14164WAT     H142734   1.525   7.676   6.499
14164WAT     H242735   1.531   7.589   6.360
14165WAT      O42736   8.192   3.186   7.820
14165WAT     H142737   8.133   3.116   7.861
14165WAT     H242738   8.136   3.254   7.773
14166WAT      O42739   1.344   3.703   0.604
14166WAT     H142740   1.341   3.780   0.539
14166WAT     H242741   1.354   3.739   0.697
14167WAT      O42742   1.169   9.732   0.630
14167WAT     H142743   1.142   9.676   0.709
14167WAT     H242744   1.211   9.816   0.663
14168WAT      O42745   8.964   4.860   5.991
14168WAT     H142746   8.947   4.855   6.090
14168WAT     H242747   8.881   4.834   5.942
14169WAT      O42748   9.470   0.611   0.198
14169WAT     H142749   9.557   0.601   0.149
14169WAT     H242750   9.425   0.522   0.203
14170WAT      O42751   9.797   8.658   4.563
14170WAT     H142752   9.816   8.736   4.505
14170WAT     H242753   9.834   8.575   4.521
14171WAT      O42754   7.004   7.725   1.850
14171WAT     H142755   7.040   7.771   1.769
14171WAT     H242756   7.040   7.632   1.855
14172WAT      O42757   7.630   4.406   7.744
14172WAT     H142758   7.719   4.425   7.703
14172WAT     H242759   7.558   4.452   7.692
14173WAT      O42760   4.755   8.513   0.799
14173WAT     H142761   4.853   8.534   0.795
14173WAT     H242762   4.736   8.456   0.880
14174WAT      O42763   8.289   2.612   1.402
14174WAT     H142764   8.348   2.597   1.481
14174WAT     H242765   8.221   2.682   1.423
14175WAT      O42766   1.017   7.056   5.570
14175WAT     H142767   1.032   7.132   5.634
14175WAT     H242768   1.100   7.001   5.562
14176WAT      O42769   3.526   2.428   7.622
14176WAT     H142770   3.520   2.432   7.523
14176WAT     H242771   3.604   2.372   7.649
14177WAT      O42772   6.631   3.007   7.135
14177WAT     H142773   6.532   3.010   7.136
14177WAT     H242774   6.667   3.091   7.176
14178WAT      O42775   0.734   8.451   6.600
14178WAT     H142776   0.715   8.436   6.503
14178WAT     H242777   0.650   8.481   6.645
14179WAT      O42778   1.372   8.851   2.425
14179WAT     H142779   1.416   8.825   2.339
14179WAT     H242780   1.439   8.844   2.499
14180WAT      O42781   5.158   1.505   2.549
14180WAT     H142782   5.147   1.408   2.571
14180WAT     H242783   5.094   1.529   2.475
14181WAT      O42784   7.336   5.921   5.303
14181WAT     H142785   7.422   5.875   5.279
14181WAT     H242786   7.356   6.010   5.342
14182WAT      O42787   1.387   6.232   4.480
14182WAT     H142788   1.384   6.328   4.453
14182WAT     H242789   1.361   6.224   4.577
14183WAT      O42790   5.074   1.692   4.803
14183WAT     H142791   5.004   1.755   4.769
14183WAT     H242792   5.039   1.642   4.882
14184WAT      O42793   9.556   2.496   7.027
14184WAT     H142794   9.558   2.456   6.935
14184WAT     H242795   9.469   2.476   7.070
14185WAT      O42796   5.990   0.609   2.978
14185WAT     H142797   5.971   0.595   2.881
14185WAT     H242798   6.083   0.642   2.990
14186WAT      O42799   7.439   2.309   0.368
14186WAT     H142800   7.493   2.347   0.293
14186WAT     H242801   7.357   2.365   0.382
14187WAT      O42802   8.999   7.799   4.745
14187WAT     H142803   9.053   7.810   4.662
14187WAT     H242804   8.916   7.747   4.725
14188WAT      O42805   4.337   4.669   7.608
14188WAT     H142806   4.351   4.673   7.509
14188WAT     H242807   4.268   4.599   7.629
14189WAT      O42808   3.904   8.991   8.006
14189WAT     H142809   3.821   9.030   7.966
14189WAT     H242810   3.915   9.026   8.099
14190WAT      O42811   8.146   1.611   3.219
14190WAT     H142812   8.204   1.671   3.164
14190WAT     H242813   8.204   1.556   3.280
14191WAT      O42814   3.988   1.645   0.868
14191WAT     H142815   4.031   1.666   0.780
14191WAT     H242816   3.890   1.632   0.856
14192WAT      O42817   2.444   4.619   1.308
14192WAT     H142818   2.440   4.525   1.341
14192WAT     H242819   2.400   4.679   1.374
14193WAT      O42820   5.844   2.600   8.939
14193WAT     H142821   5.861   2.562   8.849
14193WAT     H242822   5.771   2.549   8.984
14194WAT      O42823   4.764   8.040   0.476
14194WAT     H142824   4.822   8.000   0.405
14194WAT     H242825   4.735   7.968   0.539
14195WAT      O42826   9.547   3.106   7.279
14195WAT     H142827   9.555   3.190   7.225
14195WAT     H242828   9.516   3.128   7.371
14196WAT      O42829   7.842   1.872   5.721
14196WAT     H142830   7.877   1.936   5.789
14196WAT     H242831   7.777   1.809   5.764
14197WAT      O42832   9.217   7.694   7.129
14197WAT     H142833   9.160   7.756   7.183
14197WAT     H242834   9.309   7.733   7.119
14198WAT      O42835   8.817   7.224   0.092
14198WAT     H142836   8.795   7.148   0.031
14198WAT     H242837   8.843   7.189   0.182
14199WAT      O42838   9.554   8.072   1.695
14199WAT     H142839   9.589   7.980   1.676
14199WAT     H242840   9.461   8.065   1.731
14200WAT      O42841   5.802   1.911   5.773
14200WAT     H142842   5.721   1.891   5.827
14200WAT     H242843   5.870   1.956   5.830
14201WAT      O42844   8.243   4.373   7.668
14201WAT     H142845   8.253   4.422   7.755
14201WAT     H242846   8.269   4.433   7.592
14202WAT      O42847   5.761   0.109   5.140
14202WAT     H142848   5.786   0.013   5.123
14202WAT     H242849   5.723   0.117   5.232
14203WAT      O42850   8.942   7.722   7.943
14203WAT     H142851   8.944   7.660   7.865
14203WAT     H242852   8.898   7.808   7.917
14204WAT      O42853   7.275   4.681   5.306
14204WAT     H142854   7.296   4.711   5.399
14204WAT     H242855   7.213   4.746   5.263
14205WAT      O42856   4.824   7.079   2.545
14205WAT     H142857   4.750   7.055   2.483
14205WAT     H242858   4.878   7.154   2.506
14206WAT      O42859   2.070   1.897   4.862
14206WAT     H142860   2.143   1.957   4.896
14206WAT     H242861   2.044   1.833   4.935
14207WAT      O42862   4.568   7.210   5.770
14207WAT     H142863   4.638   7.258   5.716
14207WAT     H242864   4.564   7.250   5.861
14208WAT      O42865   0.022   1.362   7.413
14208WAT     H142866   0.013   1.381   7.511
14208WAT     H242867   0.118   1.343   7.392
14209WAT      O42868   2.261   9.593   0.686
14209WAT     H142869   2.321   9.545   0.751
14209WAT     H242870   2.187   9.637   0.736
14210WAT      O42871   1.568   7.682   9.508
14210WAT     H142872   1.659   7.677   9.469
14210WAT     H242873   1.572   7.726   9.598
14211WAT      O42874   8.539   4.860   7.717
14211WAT     H142875   8.616   4.803   7.745
14211WAT     H242876   8.570   4.954   7.706
14212WAT      O42877   4.049   4.120   6.595
14212WAT     H142878   4.043   4.039   6.654
14212WAT     H242879   4.050   4.090   6.499
14213WAT      O42880   6.511   6.257   9.339
14213WAT     H142881   6.411   6.270   9.337
14213WAT     H242882   6.533   6.163   9.314
14214WAT      O42883   8.472   0.076   8.952
14214WAT     H142884   8.524  -0.008   8.934
14214WAT     H242885   8.419   0.064   9.036
14215WAT      O42886   5.729   4.974   4.712
14215WAT     H142887   5.790   4.905   4.752
14215WAT     H242888   5.734   4.968   4.612
14216WAT      O42889   9.291   4.582   9.741
14216WAT     H142890   9.193   4.562   9.734
14216WAT     H242891   9.306   4.680   9.732
14217WAT      O42892   9.868   9.211   5.454
14217WAT     H142893   9.784   9.199   5.401
14217WAT     H242894   9.925   9.129   5.445
14218WAT      O42895   5.458   6.941   3.684
14218WAT     H142896   5.510   7.025   3.673
14218WAT     H242897   5.366   6.953   3.646
14219WAT      O42898   1.401   0.833   1.254
14219WAT     H142899   1.429   0.757   1.196
14219WAT     H242900   1.481   0.869   1.303
14220WAT      O42901   1.510   3.774   6.562
14220WAT     H142902   1.569   3.694   6.578
14220WAT     H242903   1.470   3.803   6.649
14221WAT      O42904   8.174   0.849   9.169
14221WAT     H142905   8.126   0.796   9.100
14221WAT     H242906   8.154   0.812   9.260
14222WAT      O42907   5.387   4.860   7.205
14222WAT     H142908   5.360   4.781   7.260
14222WAT     H242909   5.329   4.866   7.124
14223WAT      O42910   7.125   1.336   8.085
14223WAT     H142911   7.177   1.401   8.139
14223WAT     H242912   7.074   1.386   8.014
14224WAT      O42913   7.897   9.494   8.919
14224WAT     H142914   7.827   9.489   8.990
14224WAT     H242915   7.861   9.542   8.839
14225WAT      O42916   7.723   9.169   4.905
14225WAT     H142917   7.762   9.246   4.854
14225WAT     H242918   7.795   9.120   4.953
14226WAT      O42919   7.303   4.763   1.347
14226WAT     H142920   7.321   4.848   1.398
14226WAT     H242921   7.244   4.783   1.269
14227WAT      O42922   7.988   4.552   5.089
14227WAT     H142923   8.071   4.507   5.058
14227WAT     H242924   7.997   4.576   5.186
14228WAT      O42925   9.690   7.251   5.873
14228WAT     H142926   9.686   7.289   5.966
14228WAT     H242927   9.653   7.159   5.873
14229WAT      O42928   5.330   0.010   1.204
14229WAT     H142929   5.266   0.039   1.275
14229WAT     H242930   5.395   0.084   1.187
14230WAT      O42931   4.206   8.986   0.778
14230WAT     H142932   4.140   9.022   0.844
14230WAT     H242933   4.279   9.054   0.765
14231WAT      O42934   2.898   9.142   8.707
14231WAT     H142935   2.867   9.153   8.801
14231WAT     H242936   2.985   9.093   8.706
14232WAT      O42937   7.800   5.183   4.096
14232WAT     H142938   7.737   5.248   4.053
14232WAT     H242939   7.780   5.091   4.064
14233WAT      O42940   7.677   2.591   6.044
14233WAT     H142941   7.693   2.500   6.004
14233WAT     H242942   7.702   2.590   6.141
14234WAT      O42943   4.872   8.480   6.551
14234WAT     H142944   4.795   8.518   6.603
14234WAT     H242945   4.880   8.382   6.569
14235WAT      O42946   5.617   6.910   7.188
14235WAT     H142947   5.537   6.965   7.164
14235WAT     H242948   5.685   6.967   7.233
14236WAT      O42949   6.287   7.101   6.076
14236WAT     H142950   6.321   7.026   6.020
14236WAT     H242951   6.338   7.105   6.162
14237WAT      O42952   8.048   0.327   3.231
14237WAT     H142953   7.977   0.267   3.194
14237WAT     H242954   8.138   0.291   3.206
14238WAT      O42955   7.446   6.097   0.749
14238WAT     H142956   7.534   6.107   0.796
14238WAT     H242957   7.406   6.187   0.734
14239WAT      O42958   5.515   2.105   5.904
14239WAT     H142959   5.527   2.097   5.805
14239WAT     H242960   5.603   2.093   5.950
14240WAT      O42961   6.625   3.282   6.725
14240WAT     H142962   6.631   3.306   6.628
14240WAT     H242963   6.717   3.269   6.761
14241WAT      O42964   2.132   1.069   1.069
14241WAT     H142965   2.115   0.980   1.028
14241WAT     H242966   2.181   1.127   1.004
14242WAT      O42967   5.026   6.575   1.742
14242WAT     H142968   5.078   6.530   1.670
14242WAT     H242969   4.954   6.514   1.775
14243WAT      O42970   1.482   6.776   2.615
14243WAT     H142971   1.392   6.814   2.636
14243WAT     H242972   1.545   6.851   2.594
14244WAT      O42973   1.535   6.329   2.165
14244WAT     H142974   1.456   6.342   2.225
14244WAT     H242975   1.510   6.268   2.090
14245WAT      O42976   5.905   1.700   1.284
14245WAT     H142977   5.823   1.643   1.282
14245WAT     H242978   5.955   1.682   1.368
14246WAT      O42979   4.935   0.431   7.947
14246WAT     H142980   4.986   0.517   7.954
14246WAT     H242981   4.976   0.363   8.008
14247WAT      O42982   6.718   1.827   5.914
14247WAT     H142983   6.795   1.875   5.872
14247WAT     H242984   6.649   1.893   5.942
14248WAT      O42985   1.867   3.744   4.585
14248WAT     H142986   1.873   3.791   4.497
14248WAT     H242987   1.832   3.807   4.655
14249WAT      O42988   6.151   9.148   3.654
14249WAT     H142989   6.166   9.099   3.740
14249WAT     H242990   6.237   9.187   3.621
14250WAT      O42991   9.132   0.763   5.695
14250WAT     H142992   9.053   0.739   5.639
14250WAT     H242993   9.138   0.863   5.703
14251WAT      O42994   0.270   5.705   3.420
14251WAT     H142995   0.306   5.797   3.432
14251WAT     H242996   0.320   5.658   3.347
14252WAT      O42997   0.768   8.312   1.385
14252WAT     H142998   0.682   8.278   1.423
14252WAT     H242999   0.801   8.247   1.316
14253WAT      O43000   9.472   3.607   8.567
14253WAT     H143001   9.403   3.635   8.501
14253WAT     H243002   9.512   3.520   8.539
14254WAT      O43003   3.762   9.358   3.353
14254WAT     H143004   3.663   9.358   3.343
14254WAT     H243005   3.793   9.448   3.385
14255WAT      O43006   8.375   6.379   2.865
14255WAT     H143007   8.392   6.463   2.813
14255WAT     H243008   8.280   6.350   2.850
14256WAT      O43009   1.887   0.777   3.068
14256WAT     H143010   1.886   0.876   3.080
14256WAT     H243011   1.980   0.747   3.046
14257WAT      O43012   2.647   3.516   0.547
14257WAT     H143013   2.652   3.577   0.626
14257WAT     H243014   2.553   3.515   0.512
14258WAT      O43015   6.662   5.839   5.018
14258WAT     H143016   6.662   5.836   4.918
14258WAT     H243017   6.575   5.875   5.051
14259WAT      O43018   1.996   6.957   2.540
14259WAT     H143019   1.981   6.903   2.457
14259WAT     H243020   2.009   6.896   2.618
14260WAT      O43021   1.121   8.812   3.968
14260WAT     H143022   1.041   8.870   3.980
14260WAT     H243023   1.180   8.820   4.048
14261WAT      O43024   2.041   3.499   5.432
14261WAT     H143025   2.087   3.417   5.466
14261WAT     H243026   1.942   3.489   5.442
14262WAT      O43027   6.691   5.509   9.849
14262WAT     H143028   6.700   5.422   9.897
14262WAT     H243029   6.774   5.563   9.863
14263WAT      O43030   0.847   1.813   9.286
14263WAT     H143031   0.901   1.768   9.215
14263WAT     H243032   0.803   1.894   9.247
14264WAT      O43033   9.016   1.065   4.700
14264WAT     H143034   8.959   0.993   4.659
14264WAT     H243035   9.077   1.103   4.631
14265WAT      O43036   9.134   1.832   3.126
14265WAT     H143037   9.174   1.825   3.035
14265WAT     H243038   9.183   1.902   3.179
14266WAT      O43039   6.059   0.109   6.528
14266WAT     H143040   6.076   0.054   6.447
14266WAT     H243041   5.973   0.158   6.518
14267WAT      O43042   2.676   9.170   9.237
14267WAT     H143043   2.616   9.182   9.158
14267WAT     H243044   2.634   9.210   9.318
14268WAT      O43045   9.113   7.145   0.056
14268WAT     H143046   9.200   7.136   0.007
14268WAT     H243047   9.058   7.217   0.014
14269WAT      O43048   2.001   4.090   3.097
14269WAT     H143049   1.990   4.099   3.196
14269WAT     H243050   2.087   4.130   3.069
14270WAT      O43051   1.773   8.144   0.409
14270WAT     H143052   1.704   8.097   0.353
14270WAT     H243053   1.809   8.081   0.478
14271WAT      O43054   2.014   5.702   2.214
14271WAT     H143055   1.946   5.775   2.224
14271WAT     H243056   2.102   5.735   2.247
14272WAT      O43057   4.394   6.708   7.939
14272WAT     H143058   4.299   6.738   7.930
14272WAT     H243059   4.409   6.629   7.879
14273WAT      O43060   3.150   9.818   2.691
14273WAT     H143061   3.056   9.793   2.714
14273WAT     H243062   3.197   9.739   2.653
14274WAT      O43063   8.812   2.835   2.627
14274WAT     H143064   8.862   2.752   2.651
14274WAT     H243065   8.718   2.828   2.660
14275WAT      O43066   5.800   4.406   8.755
14275WAT     H143067   5.726   4.428   8.820
14275WAT     H243068   5.774   4.326   8.702
14276WAT      O43069   2.013   0.160   5.428
14276WAT     H143070   2.096   0.214   5.416
14276WAT     H243071   2.033   0.079   5.482
14277WAT      O43072   6.118   3.401   3.731
14277WAT     H143073   6.212   3.434   3.729
14277WAT     H243074   6.116   3.303   3.712
14278WAT      O43075   5.011   0.978   1.893
14278WAT     H143076   4.985   0.895   1.942
14278WAT     H243077   5.105   0.970   1.860
14279WAT      O43078   0.890   7.074   3.599
14279WAT     H143079   0.851   6.985   3.577
14279WAT     H243080   0.822   7.145   3.584
14280WAT      O43081   1.670   7.221   4.814
14280WAT     H143082   1.680   7.271   4.899
14280WAT     H243083   1.657   7.285   4.738
14281WAT      O43084   2.989   5.118   5.738
14281WAT     H143085   2.964   5.212   5.762
14281WAT     H243086   2.906   5.063   5.727
14282WAT      O43087   1.992   1.363   0.878
14282WAT     H143088   1.915   1.300   0.879
14282WAT     H243089   1.969   1.445   0.825
14283WAT      O43090   2.526   5.972   3.670
14283WAT     H143091   2.526   5.965   3.770
14283WAT     H243092   2.505   5.882   3.631
14284WAT      O43093   3.031   9.248   1.385
14284WAT     H143094   2.941   9.226   1.423
14284WAT     H243095   3.084   9.164   1.372
14285WAT      O43096   7.349   5.505   6.506
14285WAT     H143097   7.304   5.417   6.520
14285WAT     H243098   7.308   5.551   6.427
14286WAT      O43099   7.960   0.923   1.188
14286WAT     H143100   8.017   1.001   1.162
14286WAT     H243101   7.953   0.919   1.287
14287WAT      O43102   2.478   9.084   3.655
14287WAT     H143103   2.527   9.147   3.715
14287WAT     H243104   2.424   9.136   3.588
14288WAT      O43105   5.411   4.585   0.728
14288WAT     H143106   5.503   4.553   0.705
14288WAT     H243107   5.380   4.539   0.811
14289WAT      O43108   1.207   2.614   3.012
14289WAT     H143109   1.123   2.600   2.960
14289WAT     H243110   1.199   2.697   3.067
14290WAT      O43111   7.992   4.472   8.131
14290WAT     H143112   8.033   4.402   8.073
14290WAT     H243113   7.963   4.550   8.075
14291WAT      O43114   6.472   8.624   2.931
14291WAT     H143115   6.422   8.625   2.845
14291WAT     H243116   6.445   8.702   2.987
14292WAT      O43117   0.710   8.068   8.019
14292WAT     H143118   0.726   8.142   8.085
14292WAT     H243119   0.737   7.981   8.061
14293WAT      O43120   0.749   8.202   2.331
14293WAT     H143121   0.678   8.187   2.401
14293WAT     H243122   0.748   8.297   2.302
14294WAT      O43123   6.132   5.875   7.691
14294WAT     H143124   6.114   5.938   7.615
14294WAT     H243125   6.105   5.783   7.665
14295WAT      O43126   2.394   5.391   1.103
14295WAT     H143127   2.405   5.403   1.004
14295WAT     H243128   2.327   5.456   1.138
14296WAT      O43129   1.439   2.990   0.473
14296WAT     H143130   1.477   3.020   0.385
14296WAT     H243131   1.418   2.892   0.468
14297WAT      O43132   5.256   0.567   3.888
14297WAT     H143133   5.328   0.498   3.888
14297WAT     H243134   5.286   0.646   3.940
14298WAT      O43135   0.192   5.594   2.250
14298WAT     H143136   0.153   5.686   2.254
14298WAT     H243137   0.292   5.600   2.244
14299WAT      O43138   7.465   8.553   8.134
14299WAT     H143139   7.507   8.642   8.154
14299WAT     H243140   7.469   8.535   8.036
14300WAT      O43141   4.632   2.254   6.834
14300WAT     H143142   4.664   2.163   6.805
14300WAT     H243143   4.710   2.310   6.860
14301WAT      O43144   1.251   3.139   9.481
14301WAT     H143145   1.166   3.108   9.524
14301WAT     H243146   1.247   3.238   9.468
14302WAT      O43147   3.426   0.231   7.255
14302WAT     H143148   3.428   0.155   7.189
14302WAT     H243149   3.481   0.207   7.335
14303WAT      O43150   7.302   1.319   5.801
14303WAT     H143151   7.214   1.280   5.827
14303WAT     H243152   7.318   1.303   5.703
14304WAT      O43153   6.760   2.290   2.089
14304WAT     H143154   6.761   2.256   2.183
14304WAT     H243155   6.670   2.272   2.049
14305WAT      O43156   4.241   2.971   2.731
14305WAT     H143157   4.258   2.981   2.633
14305WAT     H243158   4.187   3.049   2.763
14306WAT      O43159   6.743   8.555   7.072
14306WAT     H143160   6.715   8.578   7.165
14306WAT     H243161   6.834   8.593   7.054
14307WAT      O43162   3.467   3.500   2.820
14307WAT     H143163   3.467   3.424   2.754
14307WAT     H243164   3.404   3.571   2.790
14308WAT      O43165   4.557   6.285   1.521
14308WAT     H143166   4.513   6.338   1.448
14308WAT     H243167   4.487   6.257   1.587
14309WAT      O43168   7.503   9.836   5.253
14309WAT     H143169   7.552   9.910   5.300
14309WAT     H243170   7.406   9.860   5.246
14310WAT      O43171   5.139   7.010   6.973
14310WAT     H143172   5.150   6.916   6.941
14310WAT     H243173   5.044   7.024   7.002
14311WAT      O43174   0.655   1.671   1.046
14311WAT     H143175   0.641   1.675   0.948
14311WAT     H243176   0.676   1.577   1.074
14312WAT      O43177   3.126   4.197   9.283
14312WAT     H143178   3.095   4.163   9.372
14312WAT     H243179   3.093   4.290   9.269
14313WAT      O43180   2.639   8.050   3.720
14313WAT     H143181   2.706   7.986   3.681
14313WAT     H243182   2.554   8.001   3.739
14314WAT      O43183   3.788   9.182   3.149
14314WAT     H143184   3.802   9.244   3.226
14314WAT     H243185   3.847   9.208   3.073
14315WAT      O43186   3.277   7.223   8.056
14315WAT     H143187   3.292   7.295   7.989
14315WAT     H243188   3.184   7.186   8.046
14316WAT      O43189   2.937   5.520   3.992
14316WAT     H143190   2.990   5.480   4.067
14316WAT     H243191   2.843   5.484   3.996
14317WAT      O43192   3.358   6.336   1.532
14317WAT     H143193   3.363   6.350   1.630
14317WAT     H243194   3.355   6.425   1.486
14318WAT      O43195   6.146   4.899   0.361
14318WAT     H143196   6.165   4.923   0.266
14318WAT     H243197   6.112   4.805   0.365
14319WAT      O43198   9.056   2.788   6.628
14319WAT     H143199   9.125   2.720   6.604
14319WAT     H243200   9.024   2.832   6.544
14320WAT      O43201   3.200   7.492   3.050
14320WAT     H143202   3.128   7.428   3.025
14320WAT     H243203   3.273   7.443   3.097
14321WAT      O43204   3.418   4.770   3.156
14321WAT     H143205   3.332   4.724   3.136
14321WAT     H243206   3.450   4.818   3.074
14322WAT      O43207   6.413   0.900   0.566
14322WAT     H143208   6.429   0.865   0.658
14322WAT     H243209   6.494   0.885   0.510
14323WAT      O43210   3.260   8.853   2.603
14323WAT     H143211   3.283   8.757   2.615
14323WAT     H243212   3.225   8.890   2.689
14324WAT      O43213   1.886   5.483   1.100
14324WAT     H143214   1.831   5.466   1.018
14324WAT     H243215   1.838   5.449   1.180
14325WAT      O43216   1.334   8.607   3.023
14325WAT     H143217   1.375   8.580   2.936
14325WAT     H243218   1.236   8.623   3.009
14326WAT      O43219   2.599   0.914   5.638
14326WAT     H143220   2.610   0.881   5.544
14326WAT     H243221   2.506   0.948   5.651
14327WAT      O43222   6.637   0.853   2.582
14327WAT     H143223   6.550   0.805   2.576
14327WAT     H243224   6.653   0.883   2.676
14328WAT      O43225   7.484   9.447   2.269
14328WAT     H143226   7.463   9.483   2.178
14328WAT     H243227   7.571   9.398   2.266
14329WAT      O43228   6.100   0.570   7.864
14329WAT     H143229   6.059   0.602   7.780
14329WAT     H243230   6.099   0.470   7.866
14330WAT      O43231   5.682   5.001   0.305
14330WAT     H143232   5.741   4.970   0.231
14330WAT     H243233   5.648   4.922   0.356
14331WAT      O43234   8.377   7.144   3.448
14331WAT     H143235   8.347   7.078   3.379
14331WAT     H243236   8.397   7.097   3.533
14332WAT      O43237   3.272   2.824   7.351
14332WAT     H143238   3.328   2.800   7.272
14332WAT     H243239   3.237   2.740   7.394
14333WAT      O43240   8.142   3.478   4.506
14333WAT     H143241   8.083   3.528   4.443
14333WAT     H243242   8.203   3.542   4.553
14334WAT      O43243   8.266   6.729   3.357
14334WAT     H143244   8.303   6.686   3.275
14334WAT     H243245   8.248   6.826   3.339
14335WAT      O43246   5.989   4.326   7.582
14335WAT     H143247   5.932   4.404   7.610
14335WAT     H243248   6.036   4.289   7.662
14336WAT      O43249   2.184   6.952   1.512
14336WAT     H143250   2.226   6.997   1.591
14336WAT     H243251   2.093   6.990   1.497
14337WAT      O43252   2.740   0.891   9.880
14337WAT     H143253   2.742   0.974   9.823
14337WAT     H243254   2.784   0.910   9.967
14338WAT      O43255   1.255   4.087   5.555
14338WAT     H143256   1.261   4.160   5.622
14338WAT     H243257   1.298   4.004   5.591
14339WAT      O43258   1.820   1.402   5.190
14339WAT     H143259   1.737   1.402   5.246
14339WAT     H243260   1.815   1.327   5.124
14340WAT      O43261   9.076   0.439   3.054
14340WAT     H143262   9.160   0.464   3.102
14340WAT     H243263   9.012   0.516   3.058
14341WAT      O43264   4.661   8.559   1.389
14341WAT     H143265   4.678   8.637   1.328
14341WAT     H243266   4.565   8.531   1.381
14342WAT      O43267   1.932   0.442   0.185
14342WAT     H143268   1.957   0.350   0.215
14342WAT     H243269   1.835   0.445   0.163
14343WAT      O43270   8.413   1.914   6.691
14343WAT     H143271   8.445   2.008   6.693
14343WAT     H243272   8.320   1.909   6.727
14344WAT      O43273   2.594   1.555   7.809
14344WAT     H143274   2.693   1.539   7.801
14344WAT     H243275   2.578   1.641   7.857
14345WAT      O43276   1.324   1.581   5.748
14345WAT     H143277   1.270   1.561   5.666
14345WAT     H243278   1.354   1.677   5.745
14346WAT      O43279   2.033   3.149   3.263
14346WAT     H143280   2.105   3.136   3.195
14346WAT     H243281   2.012   3.247   3.271
14347WAT      O43282   8.232   2.390   9.190
14347WAT     H143283   8.226   2.400   9.090
14347WAT     H243284   8.276   2.472   9.228
14348WAT      O43285   0.110   7.077   5.644
14348WAT     H143286   0.047   7.102   5.571
14348WAT     H243287   0.090   7.131   5.726
14349WAT      O43288   0.184   0.896   0.075
14349WAT     H143289   0.217   0.989   0.095
14349WAT     H243290   0.085   0.892   0.089
14350WAT      O43291   6.843   4.841   8.218
14350WAT     H143292   6.867   4.937   8.199
14350WAT     H243293   6.804   4.834   8.309
14351WAT      O43294   3.327   4.414   3.301
14351WAT     H143295   3.425   4.393   3.304
14351WAT     H243296   3.304   4.455   3.213
14352WAT      O43297   1.405   3.124   2.268
14352WAT     H143298   1.376   3.037   2.309
14352WAT     H243299   1.394   3.197   2.336
14353WAT      O43300   3.107   4.494   8.975
14353WAT     H143301   3.073   4.415   8.924
14353WAT     H243302   3.201   4.513   8.948
14354WAT      O43303   8.612   0.497   1.464
14354WAT     H143304   8.650   0.453   1.545
14354WAT     H243305   8.666   0.578   1.442
14355WAT      O43306   4.806   8.281   2.078
14355WAT     H143307   4.822   8.290   1.980
14355WAT     H243308   4.821   8.186   2.106
14356WAT      O43309   0.917   4.879   3.421
14356WAT     H143310   0.957   4.795   3.384
14356WAT     H243311   0.860   4.922   3.351
14357WAT      O43312   1.141   0.567   6.889
14357WAT     H143313   1.180   0.645   6.840
14357WAT     H243314   1.120   0.594   6.983
14358WAT      O43315   2.836   8.648   3.401
14358WAT     H143316   2.911   8.700   3.362
14358WAT     H243317   2.815   8.682   3.493
14359WAT      O43318   6.316   7.190   4.507
14359WAT     H143319   6.319   7.220   4.602
14359WAT     H243320   6.221   7.190   4.475
14360WAT      O43321   0.430   4.513   4.542
14360WAT     H143322   0.347   4.566   4.559
14360WAT     H243323   0.433   4.436   4.606
14361WAT      O43324   7.167   2.372   6.486
14361WAT     H143325   7.172   2.297   6.552
14361WAT     H243326   7.203   2.455   6.528
14362WAT      O43327   5.081   3.752   9.772
14362WAT     H143328   5.008   3.743   9.840
14362WAT     H243329   5.155   3.808   9.809
14363WAT      O43330   1.753   1.104   5.856
14363WAT     H143331   1.754   1.138   5.950
14363WAT     H243332   1.845   1.109   5.818
14364WAT      O43333   3.485   9.137   1.985
14364WAT     H143334   3.532   9.208   1.934
14364WAT     H243335   3.487   9.160   2.083
14365WAT      O43336   3.258   4.853   6.269
14365WAT     H143337   3.270   4.852   6.368
14365WAT     H243338   3.185   4.917   6.245
14366WAT      O43339   1.350   1.856   6.635
14366WAT     H143340   1.351   1.804   6.720
14366WAT     H243341   1.408   1.812   6.567
14367WAT      O43342   9.870   3.290   0.629
14367WAT     H143343   9.788   3.234   0.614
14367WAT     H243344   9.931   3.282   0.550
14368WAT      O43345   2.227   0.674   4.586
14368WAT     H143346   2.291   0.740   4.625
14368WAT     H243347   2.206   0.604   4.654
14369WAT      O43348   0.242   0.779   5.625
14369WAT     H143349   0.251   0.878   5.636
14369WAT     H243350   0.152   0.757   5.586
14370WAT      O43351   5.310   3.423   3.402
14370WAT     H143352   5.253   3.364   3.458
14370WAT     H243353   5.317   3.513   3.445
14371WAT      O43354   0.444   5.344   9.396
14371WAT     H143355   0.445   5.244   9.397
14371WAT     H243356   0.405   5.375   9.309
14372WAT      O43357   4.973   9.663   9.847
14372WAT     H143358   4.978   9.730   9.921
14372WAT     H243359   5.061   9.618   9.836
14373WAT      O43360   4.544   2.433   7.189
14373WAT     H143361   4.566   2.336   7.196
14373WAT     H243362   4.629   2.486   7.185
14374WAT      O43363   6.025   6.051   1.239
14374WAT     H143364   5.927   6.032   1.242
14374WAT     H243365   6.055   6.056   1.144
14375WAT      O43366   7.375   9.612   3.404
14375WAT     H143367   7.435   9.685   3.371
14375WAT     H243368   7.280   9.639   3.393
14376WAT      O43369   6.041   1.289   2.967
14376WAT     H143370   6.060   1.378   2.925
14376WAT     H243371   5.982   1.301   3.046
14377WAT      O43372   5.625   2.220   0.036
14377WAT     H143373   5.566   2.279  -0.020
14377WAT     H243374   5.570   2.146   0.075
14378WAT      O43375   2.141   7.503   8.437
14378WAT     H143376   2.175   7.595   8.420
14378WAT     H243377   2.156   7.447   8.356
14379WAT      O43378   5.962   0.938   1.802
14379WAT     H143379   6.056   0.923   1.835
14379WAT     H243380   5.907   0.979   1.874
14380WAT      O43381   9.740   6.880   2.546
14380WAT     H143382   9.814   6.857   2.483
14380WAT     H243383   9.759   6.968   2.589
14381WAT      O43384   9.770   5.105   8.429
14381WAT     H143385   9.848   5.150   8.386
14381WAT     H243386   9.795   5.011   8.453
14382WAT      O43387   1.935   6.509   0.024
14382WAT     H143388   1.990   6.425   0.026
14382WAT     H243389   1.937   6.552   0.114
14383WAT      O43390   3.534   1.833   1.944
14383WAT     H143391   3.453   1.869   1.898
14383WAT     H243392   3.552   1.740   1.912
14384WAT      O43393   2.057   9.265   2.419
14384WAT     H143394   2.004   9.245   2.337
14384WAT     H243395   2.150   9.292   2.392
14385WAT      O43396   8.731   2.237   9.781
14385WAT     H143397   8.659   2.180   9.740
14385WAT     H243398   8.742   2.320   9.726
14386WAT      O43399   2.322   3.454   6.640
14386WAT     H143400   2.242   3.402   6.668
14386WAT     H243401   2.403   3.418   6.685
14387WAT      O43402   1.140   5.712   1.463
14387WAT     H143403   1.199   5.730   1.541
14387WAT     H243404   1.108   5.617   1.466
14388WAT      O43405   8.555   5.566   3.011
14388WAT     H143406   8.522   5.637   3.072
14388WAT     H243407   8.515   5.478   3.036
14389WAT      O43408   5.610   6.116   5.460
14389WAT     H143409   5.689   6.055   5.471
14389WAT     H243410   5.633   6.189   5.396
14390WAT      O43411   9.595   9.628   5.051
14390WAT     H143412   9.537   9.652   5.128
14390WAT     H243413   9.659   9.557   5.079
14391WAT      O43414   1.169   0.560   2.536
14391WAT     H143415   1.255   0.512   2.552
14391WAT     H243416   1.153   0.627   2.609
14392WAT      O43417   9.438   6.694   7.678
14392WAT     H143418   9.532   6.671   7.654
14392WAT     H243419   9.378   6.679   7.599
14393WAT      O43420   9.584   3.302   6.045
14393WAT     H143421   9.650   3.325   5.974
14393WAT     H243422   9.491   3.314   6.009
14394WAT      O43423   3.382   5.140   9.382
14394WAT     H143424   3.433   5.094   9.455
14394WAT     H243425   3.407   5.237   9.380
14395WAT      O43426   8.733   4.201   9.424
14395WAT     H143427   8.644   4.230   9.457
14395WAT     H243428   8.745   4.103   9.439
14396WAT      O43429   0.536   1.334   8.002
14396WAT     H143430   0.478   1.339   7.922
14396WAT     H243431   0.492   1.278   8.072
14397WAT      O43432   6.926   2.931   4.574
14397WAT     H143433   6.830   2.955   4.587
14397WAT     H243434   6.978   2.955   4.656
14398WAT      O43435   7.524   7.508   4.105
14398WAT     H143436   7.510   7.583   4.170
14398WAT     H243437   7.485   7.533   4.016
14399WAT      O43438   6.115   7.138   0.554
14399WAT     H143439   6.191   7.203   0.546
14399WAT     H243440   6.108   7.106   0.649
14400WAT      O43441   9.195   1.920   8.755
14400WAT     H143442   9.223   1.832   8.793
14400WAT     H243443   9.250   1.993   8.797
14401WAT      O43444   1.443   0.011   0.055
14401WAT     H143445   1.514   0.044   0.116
14401WAT     H243446   1.465   0.037  -0.039
14402WAT      O43447   8.695   0.875   6.035
14402WAT     H143448   8.746   0.799   5.996
14402WAT     H243449   8.757   0.933   6.089
14403WAT      O43450   7.654   8.228   1.839
14403WAT     H143451   7.675   8.299   1.771
14403WAT     H243452   7.732   8.220   1.902
14404WAT      O43453   6.233   2.384   5.083
14404WAT     H143454   6.171   2.344   5.015
14404WAT     H243455   6.284   2.460   5.041
14405WAT      O43456   1.749   2.929   4.983
14405WAT     H143457   1.655   2.930   4.947
14405WAT     H243458   1.788   3.021   4.976
14406WAT      O43459   1.297   9.772   5.939
14406WAT     H143460   1.376   9.810   5.892
14406WAT     H243461   1.227   9.747   5.872
14407WAT      O43462   6.629   6.880   5.157
14407WAT     H143463   6.599   6.842   5.069
14407WAT     H243464   6.681   6.964   5.141
14408WAT      O43465   9.316   6.562   7.244
14408WAT     H143466   9.367   6.642   7.215
14408WAT     H243467   9.234   6.553   7.188
14409WAT      O43468   4.942   2.418   3.910
14409WAT     H143469   5.011   2.345   3.912
14409WAT     H243470   4.851   2.377   3.922
14410WAT      O43471   9.214   3.180   5.337
14410WAT     H143472   9.212   3.144   5.243
14410WAT     H243473   9.122   3.179   5.375
14411WAT      O43474   2.151   5.127   7.425
14411WAT     H143475   2.242   5.164   7.444
14411WAT     H243476   2.156   5.028   7.419
14412WAT      O43477   1.018   7.729   1.117
14412WAT     H143478   1.029   7.807   1.056
14412WAT     H243479   1.055   7.751   1.207
14413WAT      O43480   0.578   1.999   2.569
14413WAT     H143481   0.605   2.095   2.584
14413WAT     H243482   0.610   1.944   2.645
14414WAT      O43483   6.556   4.900   5.911
14414WAT     H143484   6.599   4.927   5.825
14414WAT     H243485   6.536   4.982   5.966
14415WAT      O43486   4.889   3.517   9.300
14415WAT     H143487   4.851   3.559   9.382
14415WAT     H243488   4.964   3.456   9.326
14416WAT      O43489   5.676   9.797   0.417
14416WAT     H143490   5.753   9.860   0.409
14416WAT     H243491   5.670   9.763   0.510
14417WAT      O43492   9.788   9.659   7.418
14417WAT     H143493   9.862   9.616   7.469
14417WAT     H243494   9.700   9.637   7.461
14418WAT      O43495   8.172   8.824   0.578
14418WAT     H143496   8.140   8.779   0.495
14418WAT     H243497   8.268   8.851   0.566
14419WAT      O43498   3.573   8.180   6.153
14419WAT     H143499   3.661   8.194   6.198
14419WAT     H243500   3.583   8.200   6.055
14420WAT      O43501   9.452   3.051   9.637
14420WAT     H143502   9.542   3.086   9.610
14420WAT     H243503   9.459   3.010   9.728
14421WAT      O43504   9.559   2.032   1.204
14421WAT     H143505   9.620   1.988   1.139
14421WAT     H243506   9.517   1.961   1.262
14422WAT      O43507   1.095   0.049   6.410
14422WAT     H143508   1.143   0.033   6.324
14422WAT     H243509   1.155   0.024   6.486
14423WAT      O43510   7.981   6.603   2.648
14423WAT     H143511   8.036   6.582   2.729
14423WAT     H243512   7.901   6.543   2.646
14424WAT      O43513   9.330   2.665   6.167
14424WAT     H143514   9.309   2.728   6.242
14424WAT     H243515   9.350   2.717   6.084
14425WAT      O43516   9.185   8.906   1.610
14425WAT     H143517   9.278   8.871   1.602
14425WAT     H243518   9.187   9.004   1.630
14426WAT      O43519   0.065   0.664   0.405
14426WAT     H143520  -0.002   0.637   0.475
14426WAT     H243521   0.113   0.746   0.435
14427WAT      O43522   6.229   1.588   4.240
14427WAT     H143523   6.173   1.514   4.202
14427WAT     H243524   6.326   1.566   4.226
14428WAT      O43525   4.764   7.543   1.543
14428WAT     H143526   4.808   7.607   1.606
14428WAT     H243527   4.764   7.451   1.583
14429WAT      O43528   6.493   9.641   6.465
14429WAT     H143529   6.444   9.654   6.551
14429WAT     H243530   6.434   9.667   6.388
14430WAT      O43531   0.394   8.224   4.562
14430WAT     H143532   0.330   8.151   4.541
14430WAT     H243533   0.414   8.276   4.479
14431WAT      O43534   7.768   9.522   0.718
14431WAT     H143535   7.769   9.595   0.787
14431WAT     H243536   7.781   9.434   0.763
14432WAT      O43537   3.801   3.061   2.694
14432WAT     H143538   3.817   2.989   2.761
14432WAT     H243539   3.855   3.142   2.718
14433WAT      O43540   9.437   4.249   0.172
14433WAT     H143541   9.340   4.243   0.149
14433WAT     H243542   9.450   4.313   0.248
14434WAT      O43543   4.779   3.037   7.672
14434WAT     H143544   4.858   3.097   7.681
14434WAT     H243545   4.783   2.987   7.585
14435WAT      O43546   5.297   1.513   6.832
14435WAT     H143547   5.351   1.551   6.757
14435WAT     H243548   5.350   1.515   6.917
14436WAT      O43549   3.874   5.786   3.966
14436WAT     H143550   3.882   5.806   4.064
14436WAT     H243551   3.828   5.698   3.954
14437WAT      O43552   7.515   2.048   7.659
14437WAT     H143553   7.606   2.047   7.700
14437WAT     H243554   7.470   2.135   7.679
14438WAT      O43555   6.249   8.490   7.245
14438WAT     H143556   6.308   8.481   7.164
14438WAT     H243557   6.244   8.586   7.271
14439WAT      O43558   2.726   8.248   1.312
14439WAT     H143559   2.774   8.172   1.356
14439WAT     H243560   2.650   8.277   1.370
14440WAT      O43561   1.387   9.696   1.809
14440WAT     H143562   1.409   9.633   1.736
14440WAT     H243563   1.292   9.727   1.799
14441WAT      O43564   4.172   7.814   2.081
14441WAT     H143565   4.175   7.880   2.156
14441WAT     H243566   4.140   7.860   1.998
14442WAT      O43567   2.078   0.313   2.037
14442WAT     H143568   2.023   0.368   2.100
14442WAT     H243569   2.156   0.367   2.006
14443WAT      O43570   1.189   0.569   5.470
14443WAT     H143571   1.272   0.517   5.447
14443WAT     H243572   1.163   0.548   5.565
14444WAT      O43573   4.062   3.668   1.140
14444WAT     H143574   4.099   3.745   1.193
14444WAT     H243575   3.973   3.694   1.102
14445WAT      O43576   1.391   4.490   6.643
14445WAT     H143577   1.348   4.413   6.689
14445WAT     H243578   1.452   4.538   6.707
14446WAT      O43579   1.610   4.820   1.777
14446WAT     H143580   1.631   4.742   1.836
14446WAT     H243581   1.688   4.839   1.717
14447WAT      O43582   4.872   9.631   2.851
14447WAT     H143583   4.868   9.610   2.753
14447WAT     H243584   4.873   9.545   2.903
14448WAT      O43585   0.526   8.455   4.947
14448WAT     H143586   0.582   8.485   5.024
14448WAT     H243587   0.459   8.526   4.924
14449WAT      O43588   5.542   3.842   1.221
14449WAT     H143589   5.560   3.927   1.171
14449WAT     H243590   5.573   3.853   1.316
14450WAT      O43591   6.225   2.539   8.307
14450WAT     H143592   6.171   2.586   8.377
14450WAT     H243593   6.196   2.443   8.302
14451WAT      O43594   4.881   1.080   7.597
14451WAT     H143595   4.788   1.044   7.588
14451WAT     H243596   4.929   1.030   7.669
14452WAT      O43597   7.146   7.256   9.400
14452WAT     H143598   7.178   7.349   9.384
14452WAT     H243599   7.063   7.259   9.455
14453WAT      O43600   9.151   9.481   4.901
14453WAT     H143601   9.239   9.527   4.889
14453WAT     H243602   9.080   9.549   4.917
14454WAT      O43603   0.722   7.708   1.851
14454WAT     H143604   0.819   7.723   1.834
14454WAT     H243605   0.681   7.792   1.886
14455WAT      O43606   3.978   8.194   4.051
14455WAT     H143607   3.950   8.177   4.146
14455WAT     H243608   3.939   8.123   3.992
14456WAT      O43609   3.780   2.468   3.009
14456WAT     H143610   3.788   2.469   2.909
14456WAT     H243611   3.870   2.484   3.049
14457WAT      O43612   6.002   2.421   3.481
14457WAT     H143613   6.069   2.464   3.542
14457WAT     H243614   5.981   2.329   3.514
14458WAT      O43615  -0.001   1.238   4.681
14458WAT     H143616   0.056   1.224   4.761
14458WAT     H243617   0.015   1.330   4.645
14459WAT      O43618   3.517   5.993   2.589
14459WAT     H143619   3.457   6.067   2.558
14459WAT     H243620   3.581   6.028   2.657
14460WAT      O43621   9.462   2.465   6.668
14460WAT     H143622   9.537   2.531   6.669
14460WAT     H243623   9.488   2.386   6.723
14461WAT      O43624   3.716   6.391   5.900
14461WAT     H143625   3.657   6.462   5.939
14461WAT     H243626   3.708   6.391   5.801
14462WAT      O43627   8.247   8.822   7.299
14462WAT     H143628   8.336   8.814   7.343
14462WAT     H243629   8.253   8.790   7.204
14463WAT      O43630   0.750   7.368   6.211
14463WAT     H143631   0.655   7.396   6.226
14463WAT     H243632   0.778   7.304   6.283
14464WAT      O43633   4.361   7.192   3.153
14464WAT     H143634   4.410   7.134   3.088
14464WAT     H243635   4.267   7.160   3.163
14465WAT      O43636   0.769   3.628   5.384
14465WAT     H143637   0.766   3.534   5.351
14465WAT     H243638   0.779   3.628   5.484
14466WAT      O43639   4.009   7.222   9.381
14466WAT     H143640   3.980   7.309   9.340
14466WAT     H243641   4.028   7.156   9.308
14467WAT      O43642   5.989   4.245   2.148
14467WAT     H143643   6.073   4.193   2.163
14467WAT     H243644   6.009   4.343   2.150
14468WAT      O43645   4.121   6.702   8.430
14468WAT     H143646   4.161   6.632   8.370
14468WAT     H243647   4.163   6.697   8.520
14469WAT      O43648   0.204   7.597   7.934
14469WAT     H143649   0.161   7.686   7.921
14469WAT     H243650   0.293   7.608   7.977
14470WAT      O43651   5.240   0.376   0.058
14470WAT     H143652   5.156   0.405   0.105
14470WAT     H243653   5.318   0.427   0.094
14471WAT      O43654   7.147   9.004   8.786
14471WAT     H143655   7.050   9.003   8.763
14471WAT     H243656   7.197   8.946   8.721
14472WAT      O43657   2.278   9.084   8.306
14472WAT     H143658   2.229   9.049   8.386
14472WAT     H243659   2.343   9.015   8.274
14473WAT      O43660   6.857   8.183   1.541
14473WAT     H143661   6.876   8.244   1.618
14473WAT     H243662   6.776   8.215   1.492
14474WAT      O43663   7.039   9.618   7.330
14474WAT     H143664   7.105   9.583   7.396
14474WAT     H243665   6.985   9.542   7.294
14475WAT      O43666   7.834   2.188   6.615
14475WAT     H143667   7.795   2.276   6.641
14475WAT     H243668   7.769   2.115   6.635
14476WAT      O43669   0.929   8.603   7.994
14476WAT     H143670   0.971   8.642   8.076
14476WAT     H243671   0.996   8.547   7.945
14477WAT      O43672   3.813   7.440   7.682
14477WAT     H143673   3.871   7.499   7.625
14477WAT     H243674   3.811   7.348   7.643
14478WAT      O43675   2.988   7.307   6.637
14478WAT     H143676   2.988   7.407   6.641
14478WAT     H243677   2.906   7.276   6.589
14479WAT      O43678   2.137   0.484   3.149
14479WAT     H143679   2.075   0.407   3.168
14479WAT     H243680   2.086   0.556   3.103
14480WAT      O43681   2.357   1.025   9.425
14480WAT     H143682   2.337   1.056   9.518
14480WAT     H243683   2.419   1.089   9.381
14481WAT      O43684   7.827   7.123   0.975
14481WAT     H143685   7.849   7.031   0.945
14481WAT     H243686   7.818   7.125   1.074
14482WAT      O43687   4.321   8.443   3.874
14482WAT     H143688   4.382   8.521   3.862
14482WAT     H243689   4.274   8.425   3.787
14483WAT      O43690   4.049   5.827   3.570
14483WAT     H143691   4.028   5.755   3.504
14483WAT     H243692   4.140   5.811   3.609
14484WAT      O43693   6.546   5.685   0.818
14484WAT     H143694   6.624   5.651   0.766
14484WAT     H243695   6.576   5.750   0.887
14485WAT      O43696   5.215   2.639   0.894
14485WAT     H143697   5.131   2.606   0.937
14485WAT     H243698   5.205   2.636   0.794
14486WAT      O43699   6.280   8.435   9.802
14486WAT     H143700   6.353   8.367   9.812
14486WAT     H243701   6.249   8.438   9.707
14487WAT      O43702   9.492   1.579   9.818
14487WAT     H143703   9.438   1.497   9.802
14487WAT     H243704   9.473   1.615   9.909
14488WAT      O43705   9.175   8.817   0.564
14488WAT     H143706   9.094   8.869   0.535
14488WAT     H243707   9.244   8.820   0.491
14489WAT      O43708   9.653   3.356   1.025
14489WAT     H143709   9.724   3.385   0.960
14489WAT     H243710   9.649   3.421   1.100
14490WAT      O43711   4.143   8.168   8.104
14490WAT     H143712   4.068   8.105   8.125
14490WAT     H243713   4.187   8.197   8.189
14491WAT      O43714   4.147   3.847   1.889
14491WAT     H143715   4.241   3.813   1.899
14491WAT     H243716   4.134   3.883   1.797
14492WAT      O43717   0.669   9.217   9.864
14492WAT     H143718   0.697   9.123   9.844
14492WAT     H243719   0.569   9.222   9.863
14493WAT      O43720   7.127   5.403   7.521
14493WAT     H143721   7.195   5.468   7.486
14493WAT     H243722   7.115   5.329   7.454
14494WAT      O43723   8.476   0.358   8.941
14494WAT     H143724   8.486   0.387   9.036
14494WAT     H243725   8.495   0.260   8.933
14495WAT      O43726   9.724   4.613   3.182
14495WAT     H143727   9.729   4.540   3.113
14495WAT     H243728   9.640   4.603   3.235
14496WAT      O43729   2.423   1.289   7.396
14496WAT     H143730   2.506   1.286   7.340
14496WAT     H243731   2.439   1.348   7.475
14497WAT      O43732   9.727   6.428   8.449
14497WAT     H143733   9.682   6.369   8.516
14497WAT     H243734   9.820   6.448   8.479
14498WAT      O43735   7.049   6.255   9.232
14498WAT     H143736   7.093   6.338   9.267
14498WAT     H243737   7.095   6.225   9.149
14499WAT      O43738   3.746   9.016   2.864
14499WAT     H143739   3.681   9.083   2.829
14499WAT     H243740   3.698   8.948   2.918
14500WAT      O43741   5.522   9.098   1.414
14500WAT     H143742   5.599   9.161   1.428
14500WAT     H243743   5.550   9.021   1.358
14501WAT      O43744   6.085   8.735   0.582
14501WAT     H143745   6.019   8.714   0.510
14501WAT     H243746   6.163   8.672   0.576
14502WAT      O43747   6.424   7.995   0.279
14502WAT     H143748   6.463   8.066   0.337
14502WAT     H243749   6.492   7.964   0.213
14503WAT      O43750   9.158   2.992   2.356
14503WAT     H143751   9.244   3.021   2.314
14503WAT     H243752   9.177   2.947   2.443
14504WAT      O43753   3.079   1.165   9.089
14504WAT     H143754   3.049   1.088   9.145
14504WAT     H243755   3.044   1.250   9.128
14505WAT      O43756   0.766   3.862   1.257
14505WAT     H143757   0.727   3.954   1.245
14505WAT     H243758   0.801   3.830   1.169
14506WAT      O43759   2.719   6.497   1.242
14506WAT     H143760   2.787   6.536   1.304
14506WAT     H243761   2.628   6.526   1.271
14507WAT      O43762   5.557   2.406   6.245
14507WAT     H143763   5.655   2.401   6.263
14507WAT     H243764   5.523   2.497   6.270
14508WAT      O43765   8.041   6.768   7.156
14508WAT     H143766   8.055   6.805   7.064
14508WAT     H243767   7.982   6.687   7.151
14509WAT      O43768   9.392   1.807   9.158
14509WAT     H143769   9.324   1.834   9.226
14509WAT     H243770   9.351   1.742   9.094
14510WAT      O43771   5.264   4.377   1.945
14510WAT     H143772   5.333   4.359   2.015
14510WAT     H243773   5.184   4.319   1.962
14511WAT      O43774   8.843   7.017   2.317
14511WAT     H143775   8.882   7.099   2.361
14511WAT     H243776   8.901   6.990   2.240
14512WAT      O43777   8.628   7.955   9.162
14512WAT     H143778   8.720   7.981   9.131
14512WAT     H243779   8.560   7.994   9.099
14513WAT      O43780   4.901   2.018   9.267
14513WAT     H143781   4.905   1.997   9.365
14513WAT     H243782   4.808   2.048   9.244
14514WAT      O43783   7.269   6.681   6.184
14514WAT     H143784   7.200   6.717   6.247
14514WAT     H243785   7.276   6.582   6.195
14515WAT      O43786   1.781   2.651   6.526
14515WAT     H143787   1.739   2.584   6.588
14515WAT     H243788   1.879   2.656   6.545
14516WAT      O43789   6.761   2.039   0.955
14516WAT     H143790   6.759   2.070   0.861
14516WAT     H243791   6.668   2.037   0.992
14517WAT      O43792   8.408   1.031   7.016
14517WAT     H143793   8.382   0.935   7.009
14517WAT     H243794   8.326   1.087   7.025
14518WAT      O43795   4.597   7.250   8.926
14518WAT     H143796   4.607   7.346   8.953
14518WAT     H243797   4.668   7.228   8.858
14519WAT      O43798   8.166   6.524   1.041
14519WAT     H143799   8.095   6.529   0.970
14519WAT     H243800   8.130   6.561   1.127
14520WAT      O43801   8.433   0.239   7.292
14520WAT     H143802   8.472   0.322   7.331
14520WAT     H243803   8.420   0.252   7.193
14521WAT      O43804   4.948   9.838   0.138
14521WAT     H143805   4.886   9.811   0.212
14521WAT     H243806   5.016   9.902   0.172
14522WAT      O43807   2.067   3.605   1.245
14522WAT     H143808   2.014   3.555   1.313
14522WAT     H243809   2.034   3.582   1.154
14523WAT      O43810   3.412   8.113   5.635
14523WAT     H143811   3.463   8.167   5.702
14523WAT     H243812   3.475   8.075   5.567
14524WAT      O43813   7.098   2.653   6.142
14524WAT     H143814   7.136   2.690   6.057
14524WAT     H243815   7.160   2.674   6.217
14525WAT      O43816   0.386   3.213   7.552
14525WAT     H143817   0.317   3.252   7.613
14525WAT     H243818   0.346   3.195   7.462
14526WAT      O43819   4.283   8.742   2.866
14526WAT     H143820   4.202   8.789   2.899
14526WAT     H243821   4.279   8.646   2.892
14527WAT      O43822   1.195   8.343   6.241
14527WAT     H143823   1.276   8.324   6.297
14527WAT     H243824   1.146   8.422   6.279
14528WAT      O43825   3.325   8.598   2.644
14528WAT     H143826   3.415   8.576   2.682
14528WAT     H243827   3.254   8.576   2.710
14529WAT      O43828   8.569   6.998   7.699
14529WAT     H143829   8.660   6.999   7.739
14529WAT     H243830   8.514   6.927   7.743
14530WAT      O43831   4.652   8.218   5.706
14530WAT     H143832   4.731   8.202   5.765
14530WAT     H243833   4.570   8.180   5.748
14531WAT      O43834   3.111   1.428   3.140
14531WAT     H143835   3.102   1.522   3.174
14531WAT     H243836   3.050   1.416   3.061
14532WAT      O43837   3.513   7.239   6.006
14532WAT     H143838   3.591   7.185   5.975
14532WAT     H243839   3.543   7.333   6.025
14533WAT      O43840   6.206   0.927   0.378
14533WAT     H143841   6.203   1.005   0.316
14533WAT     H243842   6.257   0.952   0.461
14534WAT      O43843   3.458   7.132   9.345
14534WAT     H143844   3.410   7.080   9.416
14534WAT     H243845   3.550   7.156   9.378
14535WAT      O43846   7.487   4.019   8.304
14535WAT     H143847   7.484   3.932   8.353
14535WAT     H243848   7.553   4.013   8.228
14536WAT      O43849   0.521   4.576   6.807
14536WAT     H143850   0.618   4.564   6.828
14536WAT     H243851   0.466   4.523   6.873
14537WAT      O43852   1.364   2.034   2.712
14537WAT     H143853   1.357   2.132   2.732
14537WAT     H243854   1.303   2.011   2.636
14538WAT      O43855   1.441   8.260   6.887
14538WAT     H143856   1.447   8.177   6.832
14538WAT     H243857   1.426   8.235   6.983
14539WAT      O43858   3.594   8.336   9.331
14539WAT     H143859   3.665   8.294   9.274
14539WAT     H243860   3.635   8.409   9.385
14540WAT      O43861   3.065   1.937   1.633
14540WAT     H143862   3.119   2.021   1.628
14540WAT     H243863   2.971   1.959   1.660
14541WAT      O43864   2.318   7.904   3.019
14541WAT     H143865   2.345   7.957   2.939
14541WAT     H243866   2.383   7.829   3.033
14542WAT      O43867   5.211   9.581   7.078
14542WAT     H143868   5.274   9.651   7.044
14542WAT     H243869   5.118   9.617   7.077
14543WAT      O43870   9.640   4.436   2.628
14543WAT     H143871   9.695   4.487   2.694
14543WAT     H243872   9.579   4.373   2.677
14544WAT      O43873   4.830   2.463   7.210
14544WAT     H143874   4.859   2.558   7.226
14544WAT     H243875   4.803   2.422   7.298
14545WAT      O43876   4.176   7.443   5.427
14545WAT     H143877   4.223   7.449   5.515
14545WAT     H243878   4.243   7.451   5.353
14546WAT      O43879   6.351   7.817   2.314
14546WAT     H143880   6.323   7.812   2.409
14546WAT     H243881   6.447   7.792   2.305
14547WAT      O43882   2.775   9.037   3.989
14547WAT     H143883   2.815   9.023   3.899
14547WAT     H243884   2.823   8.982   4.057
14548WAT      O43885   5.556   0.279   9.884
14548WAT     H143886   5.637   0.234   9.921
14548WAT     H243887   5.515   0.336   9.955
14549WAT      O43888   8.529   0.114   3.258
14549WAT     H143889   8.628   0.116   3.249
14549WAT     H243890   8.503   0.065   3.342
14550WAT      O43891   4.264   6.572   6.584
14550WAT     H143892   4.243   6.666   6.558
14550WAT     H243893   4.340   6.537   6.528
14551WAT      O43894   5.267   4.164   9.638
14551WAT     H143895   5.357   4.121   9.633
14551WAT     H243896   5.232   4.180   9.546
14552WAT      O43897   2.673   8.624   5.805
14552WAT     H143898   2.664   8.580   5.894
14552WAT     H243899   2.673   8.554   5.733
14553WAT      O43900   5.917   3.167   1.011
14553WAT     H143901   5.850   3.143   0.941
14553WAT     H243902   5.914   3.266   1.027
14554WAT      O43903   9.657   7.630   4.747
14554WAT     H143904   9.744   7.633   4.795
14554WAT     H243905   9.671   7.601   4.653
14555WAT      O43906   1.276   9.479   9.609
14555WAT     H143907   1.253   9.523   9.522
14555WAT     H243908   1.225   9.524   9.683
14556WAT      O43909   3.872   9.848   8.203
14556WAT     H143910   3.799   9.786   8.175
14556WAT     H243911   3.957   9.797   8.216
14557WAT      O43912   8.339   2.934   9.496
14557WAT     H143913   8.259   2.987   9.522
14557WAT     H243914   8.410   2.994   9.459
14558WAT      O43915   1.811   1.372   2.432
14558WAT     H143916   1.911   1.378   2.421
14558WAT     H243917   1.771   1.326   2.353
14559WAT      O43918   1.503   8.067   7.830
14559WAT     H143919   1.548   8.066   7.741
14559WAT     H243920   1.511   8.158   7.871
14560WAT      O43921   6.740   0.146   8.777
14560WAT     H143922   6.782   0.190   8.698
14560WAT     H243923   6.807   0.086   8.821
14561WAT      O43924   7.405   5.654   0.189
14561WAT     H143925   7.504   5.646   0.175
14561WAT     H243926   7.382   5.627   0.282
14562WAT      O43927   4.962   1.583   0.192
14562WAT     H143928   5.015   1.509   0.233
14562WAT     H243929   4.877   1.595   0.242
14563WAT      O43930   8.671   5.080   2.483
14563WAT     H143931   8.662   5.159   2.422
14563WAT     H243932   8.598   5.015   2.465
14564WAT      O43933   8.588   5.737   4.759
14564WAT     H143934   8.672   5.718   4.809
14564WAT     H243935   8.509   5.721   4.819
14565WAT      O43936   6.108   1.360   6.797
14565WAT     H143937   6.146   1.268   6.801
14565WAT     H243938   6.077   1.379   6.704
14566WAT      O43939   3.967   0.667   3.435
14566WAT     H143940   3.938   0.700   3.525
14566WAT     H243941   3.931   0.575   3.421
14567WAT      O43942   7.352   6.764   9.212
14567WAT     H143943   7.365   6.677   9.165
14567WAT     H243944   7.277   6.815   9.169
14568WAT      O43945   4.166   0.493   8.218
14568WAT     H143946   4.206   0.498   8.126
14568WAT     H243947   4.155   0.397   8.244
14569WAT      O43948   8.175   2.259   3.875
14569WAT     H143949   8.117   2.299   3.804
14569WAT     H243950   8.124   2.257   3.961
14570WAT      O43951   4.127   6.665   1.575
14570WAT     H143952   4.050   6.622   1.623
14570WAT     H243953   4.136   6.626   1.484
14571WAT      O43954   8.422   4.509   8.366
14571WAT     H143955   8.350   4.447   8.335
14571WAT     H243956   8.497   4.509   8.301
14572WAT      O43957   3.162   1.666   6.317
14572WAT     H143958   3.100   1.594   6.285
14572WAT     H243959   3.115   1.723   6.384
14573WAT      O43960   6.924   6.183   7.716
14573WAT     H143961   6.917   6.103   7.775
14573WAT     H243962   6.953   6.262   7.771
14574WAT      O43963   4.378   9.486   3.550
14574WAT     H143964   4.304   9.483   3.483
14574WAT     H243965   4.462   9.516   3.505
14575WAT      O43966   0.556   6.518   2.260
14575WAT     H143967   0.621   6.483   2.193
14575WAT     H243968   0.487   6.448   2.279
14576WAT      O43969   0.478   4.053   2.388
14576WAT     H143970   0.400   4.091   2.436
14576WAT     H243971   0.451   4.027   2.295
14577WAT      O43972   5.520   8.236   8.773
14577WAT     H143973   5.543   8.322   8.727
14577WAT     H243974   5.592   8.169   8.757
14578WAT      O43975   5.897   5.619   6.125
14578WAT     H143976   5.878   5.706   6.171
14578WAT     H243977   5.961   5.634   6.050
14579WAT      O43978   3.310   5.957   0.937
14579WAT     H143979   3.394   5.925   0.892
14579WAT     H243980   3.328   5.972   1.034
14580WAT      O43981   1.589   2.434   7.002
14580WAT     H143982   1.549   2.521   7.030
14580WAT     H243983   1.621   2.384   7.083
14581WAT      O43984   7.963   2.566   1.642
14581WAT     H143985   7.917   2.490   1.688
14581WAT     H243986   7.921   2.583   1.553
14582WAT      O43987   7.176   6.355   1.336
14582WAT     H143988   7.194   6.257   1.340
14582WAT     H243989   7.078   6.371   1.348
14583WAT      O43990   9.705   3.184   2.687
14583WAT     H143991   9.706   3.159   2.783
14583WAT     H243992   9.762   3.265   2.673
14584WAT      O43993   5.893   8.925   4.050
14584WAT     H143994   5.914   8.941   4.147
14584WAT     H243995   5.855   9.009   4.010
14585WAT      O43996   9.265   1.966   1.206
14585WAT     H143997   9.250   1.922   1.117
14585WAT     H243998   9.308   2.055   1.193
14586WAT      O43999   3.130   1.849   5.390
14586WAT     H144000   3.036   1.823   5.369
14586WAT     H244001   3.157   1.810   5.478
14587WAT      O44002   4.143   5.994   6.474
14587WAT     H144003   4.121   6.052   6.552
14587WAT     H244004   4.218   6.034   6.422
14588WAT      O44005   6.174   7.446   6.597
14588WAT     H144006   6.184   7.542   6.569
14588WAT     H244007   6.115   7.441   6.677
14589WAT      O44008   2.479   0.216   8.525
14589WAT     H144009   2.403   0.153   8.542
14589WAT     H244010   2.457   0.274   8.447
14590WAT      O44011   6.688   7.687   9.273
14590WAT     H144012   6.591   7.711   9.276
14590WAT     H244013   6.700   7.592   9.301
14591WAT      O44014   2.180   7.147   5.194
14591WAT     H144015   2.142   7.205   5.124
14591WAT     H244016   2.259   7.192   5.236
14592WAT      O44017   3.895   7.253   9.657
14592WAT     H144018   3.928   7.246   9.563
14592WAT     H244019   3.973   7.261   9.719
14593WAT      O44020   5.895   5.090   9.151
14593WAT     H144021   5.800   5.067   9.170
14593WAT     H244022   5.955   5.037   9.212
14594WAT      O44023   1.555   7.569   8.424
14594WAT     H144024   1.650   7.593   8.443
14594WAT     H244025   1.512   7.533   8.507
14595WAT      O44026   6.959   5.841   6.614
14595WAT     H144027   6.926   5.908   6.548
14595WAT     H244028   7.058   5.829   6.603
14596WAT      O44029   1.681   7.508   6.255
14596WAT     H144030   1.768   7.554   6.271
14596WAT     H244031   1.687   7.413   6.288
14597WAT      O44032   1.866   2.362   8.673
14597WAT     H144033   1.898   2.457   8.670
14597WAT     H244034   1.814   2.347   8.757
14598WAT      O44035   5.594   3.947   3.004
14598WAT     H144036   5.656   3.914   2.934
14598WAT     H244037   5.582   3.877   3.075
14599WAT      O44038   4.830   6.708   3.024
14599WAT     H144039   4.824   6.807   3.012
14599WAT     H244040   4.867   6.666   2.941
14600WAT      O44041   1.266   8.424   8.064
14600WAT     H144042   1.278   8.378   7.976
14600WAT     H244043   1.295   8.363   8.138
14601WAT      O44044   6.816   6.059   8.102
14601WAT     H144045   6.724   6.059   8.062
14601WAT     H244046   6.882   6.028   8.034
14602WAT      O44047   4.142   5.761   7.925
14602WAT     H144048   4.069   5.710   7.971
14602WAT     H244049   4.154   5.724   7.832
14603WAT      O44050   0.078   8.973   5.486
14603WAT     H144051   0.174   8.964   5.513
14603WAT     H244052   0.050   8.892   5.435
14604WAT      O44053   6.919   5.045   1.061
14604WAT     H144054   6.925   5.130   1.010
14604WAT     H244055   6.908   4.969   0.997
14605WAT      O44056   1.134   6.241   7.977
14605WAT     H144057   1.102   6.153   8.013
14605WAT     H244058   1.185   6.226   7.893
14606WAT      O44059   4.670   1.981   3.767
14606WAT     H144060   4.585   1.971   3.819
14606WAT     H244061   4.663   2.061   3.708
14607WAT      O44062   4.142   1.473   2.995
14607WAT     H144063   4.129   1.379   2.963
14607WAT     H244064   4.057   1.507   3.035
14608WAT      O44065   4.846   6.563   1.173
14608WAT     H144066   4.793   6.528   1.249
14608WAT     H244067   4.940   6.583   1.203
14609WAT      O44068   4.449   0.423   6.800
14609WAT     H144069   4.458   0.375   6.713
14609WAT     H244070   4.427   0.357   6.872
14610WAT      O44071   0.233   2.172   8.117
14610WAT     H144072   0.281   2.193   8.032
14610WAT     H244073   0.262   2.082   8.150
14611WAT      O44074   2.402   6.315   6.344
14611WAT     H144075   2.396   6.401   6.394
14611WAT     H244076   2.496   6.281   6.350
14612WAT      O44077   5.692   4.037   8.033
14612WAT     H144078   5.619   4.055   8.099
14612WAT     H244079   5.684   3.943   8.000
14613WAT      O44080   9.879   9.665   8.826
14613WAT     H144081   9.892   9.566   8.831
14613WAT     H244082   9.855   9.691   8.733
14614WAT      O44083   7.885   2.682   8.326
14614WAT     H144084   7.881   2.680   8.426
14614WAT     H244085   7.801   2.642   8.288
14615WAT      O44086   2.496   8.198   2.269
14615WAT     H144087   2.446   8.276   2.307
14615WAT     H244088   2.502   8.126   2.338
14616WAT      O44089   5.831   2.271   4.332
14616WAT     H144090   5.828   2.266   4.432
14616WAT     H244091   5.901   2.338   4.304
14617WAT      O44092   8.899   4.466   3.442
14617WAT     H144093   8.805   4.432   3.432
14617WAT     H244094   8.898   4.553   3.490
14618WAT      O44095   4.012   1.297   4.005
14618WAT     H144096   3.998   1.201   3.980
14618WAT     H244097   4.036   1.303   4.102
14619WAT      O44098   7.341   9.034   9.570
14619WAT     H144099   7.251   9.076   9.582
14619WAT     H244100   7.390   9.036   9.657
14620WAT      O44101   7.138   0.047   3.389
14620WAT     H144102   7.137  -0.043   3.346
14620WAT     H244103   7.063   0.102   3.353
14621WAT      O44104   8.678   5.412   7.583
14621WAT     H144105   8.632   5.489   7.625
14621WAT     H244106   8.761   5.444   7.536
14622WAT      O44107   0.638   7.175   1.088
14622WAT     H144108   0.646   7.120   1.005
14622WAT     H244109   0.581   7.255   1.069
14623WAT      O44110   8.763   7.780   1.337
14623WAT     H144111   8.672   7.755   1.371
14623WAT     H244112   8.786   7.872   1.370
14624WAT      O44113   2.071   1.702   5.071
14624WAT     H144114   2.014   1.684   5.151
14624WAT     H244115   2.167   1.708   5.098
14625WAT      O44116   5.700   3.493   2.628
14625WAT     H144117   5.797   3.504   2.649
14625WAT     H244118   5.666   3.576   2.583
14626WAT      O44119   1.911   2.783   3.543
14626WAT     H144120   1.898   2.875   3.505
14626WAT     H244121   1.823   2.737   3.551
14627WAT      O44122   8.503   6.836   8.850
14627WAT     H144123   8.559   6.754   8.847
14627WAT     H244124   8.418   6.821   8.800
14628WAT      O44125   5.596   8.131   5.259
14628WAT     H144126   5.655   8.086   5.326
14628WAT     H244127   5.637   8.217   5.231
14629WAT      O44128   3.764   3.042   1.944
14629WAT     H144129   3.723   3.080   1.861
14629WAT     H244130   3.701   2.976   1.985
14630WAT      O44131   7.700   0.327   3.539
14630WAT     H144132   7.671   0.235   3.514
14630WAT     H244133   7.621   0.380   3.569
14631WAT      O44134   6.019   2.794   2.362
14631WAT     H144135   5.946   2.726   2.351
14631WAT     H244136   6.084   2.786   2.286
14632WAT      O44137   3.572   1.359   7.894
14632WAT     H144138   3.594   1.456   7.884
14632WAT     H244139   3.557   1.338   7.991
14633WAT      O44140   4.416   9.147   8.778
14633WAT     H144141   4.504   9.104   8.797
14633WAT     H244142   4.349   9.116   8.845
14634WAT      O44143   6.507   1.834   4.240
14634WAT     H144144   6.409   1.850   4.238
14634WAT     H244145   6.545   1.869   4.325
14635WAT      O44146   6.048   8.063   5.094
14635WAT     H144147   6.111   7.985   5.096
14635WAT     H244148   5.956   8.030   5.072
14636WAT      O44149   0.319   2.731   7.551
14636WAT     H144150   0.310   2.809   7.612
14636WAT     H244151   0.414   2.700   7.549
14637WAT      O44152   3.161   9.796   5.818
14637WAT     H144153   3.148   9.816   5.916
14637WAT     H244154   3.086   9.835   5.766
14638WAT      O44155   8.036   0.274   4.453
14638WAT     H144156   7.973   0.217   4.506
14638WAT     H244157   8.116   0.295   4.509
14639WAT      O44158   9.064   6.921   9.724
14639WAT     H144159   9.024   6.899   9.812
14639WAT     H244160   9.008   6.883   9.650
14640WAT      O44161   3.268   2.896   0.492
14640WAT     H144162   3.254   2.816   0.434
14640WAT     H244163   3.217   2.974   0.455
14641WAT      O44164   2.145   4.323   9.882
14641WAT     H144165   2.172   4.314   9.786
14641WAT     H244166   2.225   4.345   9.937
14642WAT      O44167   6.550   0.206   1.949
14642WAT     H144168   6.575   0.126   2.004
14642WAT     H244169   6.450   0.216   1.950
14643WAT      O44170   8.108   2.264   1.913
14643WAT     H144171   8.127   2.204   1.991
14643WAT     H244172   8.077   2.210   1.835
14644WAT      O44173   0.193   9.742   6.501
14644WAT     H144174   0.189   9.833   6.543
14644WAT     H244175   0.275   9.736   6.444
14645WAT      O44176   3.026   7.489   4.286
14645WAT     H144177   3.096   7.434   4.331
14645WAT     H244178   2.935   7.454   4.309
14646WAT      O44179   6.815   4.817   7.598
14646WAT     H144180   6.902   4.858   7.572
14646WAT     H244181   6.750   4.826   7.522
14647WAT      O44182   1.451   6.579   9.094
14647WAT     H144183   1.358   6.606   9.067
14647WAT     H244184   1.463   6.481   9.080
14648WAT      O44185   5.301   2.513   8.111
14648WAT     H144186   5.343   2.544   8.025
14648WAT     H244187   5.262   2.422   8.099
14649WAT      O44188   4.343   7.613   2.151
14649WAT     H144189   4.422   7.642   2.205
14649WAT     H244190   4.288   7.693   2.128
14650WAT      O44191   3.383   1.339   8.661
14650WAT     H144192   3.333   1.308   8.580
14650WAT     H244193   3.385   1.266   8.729
14651WAT      O44194   1.604   8.929   8.250
14651WAT     H144195   1.640   9.020   8.274
14651WAT     H244196   1.516   8.916   8.296
14652WAT      O44197   6.401   5.457   1.944
14652WAT     H144198   6.358   5.426   2.029
14652WAT     H244199   6.480   5.399   1.923
14653WAT      O44200   2.709   9.278   7.747
14653WAT     H144201   2.649   9.218   7.694
14653WAT     H244202   2.725   9.237   7.837
14654WAT      O44203   1.241   7.956   0.429
14654WAT     H144204   1.281   7.993   0.513
14654WAT     H244205   1.179   7.881   0.452
14655WAT      O44206   8.387   1.831   7.795
14655WAT     H144207   8.312   1.833   7.861
14655WAT     H244208   8.453   1.761   7.821
14656WAT      O44209   6.379   8.677   3.392
14656WAT     H144210   6.297   8.663   3.448
14656WAT     H244211   6.451   8.616   3.422
14657WAT      O44212   6.877   2.821   7.517
14657WAT     H144213   6.967   2.858   7.540
14657WAT     H244214   6.856   2.841   7.421
14658WAT      O44215   8.007   0.926   5.886
14658WAT     H144216   7.913   0.957   5.876
14658WAT     H244217   8.010   0.850   5.951
14659WAT      O44218   0.447   2.694   3.807
14659WAT     H144219   0.530   2.692   3.863
14659WAT     H244220   0.466   2.657   3.717
14660WAT      O44221   3.719   3.464   9.141
14660WAT     H144222   3.697   3.492   9.048
14660WAT     H244223   3.740   3.366   9.142
14661WAT      O44224   7.861   3.327   3.756
14661WAT     H144225   7.804   3.409   3.753
14661WAT     H244226   7.841   3.269   3.676
14662WAT      O44227   6.212   7.736   6.651
14662WAT     H144228   6.131   7.732   6.593
14662WAT     H244229   6.230   7.831   6.678
14663WAT      O44230   3.983   1.322   6.338
14663WAT     H144231   3.949   1.242   6.287
14663WAT     H244232   4.076   1.343   6.308
14664WAT      O44233   4.719   7.038   0.118
14664WAT     H144234   4.764   7.125   0.099
14664WAT     H244235   4.625   7.055   0.149
14665WAT      O44236   2.051   6.885   9.262
14665WAT     H144237   2.096   6.905   9.174
14665WAT     H244238   1.972   6.946   9.273
14666WAT      O44239   8.139   4.763   8.535
14666WAT     H144240   8.167   4.669   8.554
14666WAT     H244241   8.046   4.778   8.570
14667WAT      O44242   8.777   4.100   0.105
14667WAT     H144243   8.838   4.077   0.182
14667WAT     H244244   8.830   4.146   0.034
14668WAT      O44245   7.534   0.088   4.965
14668WAT     H144246   7.565   0.069   5.059
14668WAT     H244247   7.452   0.033   4.946
14669WAT      O44248   7.441   5.836   7.198
14669WAT     H144249   7.361   5.792   7.241
14669WAT     H244250   7.435   5.825   7.099
14670WAT      O44251   6.108   1.374   1.101
14670WAT     H144252   6.111   1.319   1.017
14670WAT     H244253   6.070   1.464   1.080
14671WAT      O44254   5.443   9.263   0.961
14671WAT     H144255   5.409   9.293   0.872
14671WAT     H244256   5.536   9.298   0.974
14672WAT      O44257   4.025   1.766   7.424
14672WAT     H144258   3.969   1.767   7.341
14672WAT     H244259   4.090   1.690   7.419
14673WAT      O44260   0.749   3.748   9.113
14673WAT     H144261   0.812   3.825   9.099
14673WAT     H244262   0.656   3.776   9.091
14674WAT      O44263   4.069   8.453   6.126
14674WAT     H144264   4.109   8.361   6.130
14674WAT     H244265   3.974   8.450   6.157
14675WAT      O44266   0.149   7.762   8.368
14675WAT     H144267   0.199   7.834   8.321
14675WAT     H244268   0.135   7.684   8.307
14676WAT      O44269   3.994   3.447   3.850
14676WAT     H144270   4.084   3.462   3.808
14676WAT     H244271   3.945   3.534   3.856
14677WAT      O44272   6.286   3.251   5.798
14677WAT     H144273   6.354   3.280   5.866
14677WAT     H244274   6.198   3.237   5.843
14678WAT      O44275   7.175   6.375   4.751
14678WAT     H144276   7.111   6.318   4.803
14678WAT     H244277   7.131   6.403   4.665
14679WAT      O44278   4.010   8.736   4.248
14679WAT     H144279   3.933   8.690   4.205
14679WAT     H244280   4.095   8.700   4.212
14680WAT      O44281   9.321   8.608   0.285
14680WAT     H144282   9.257   8.555   0.341
14680WAT     H244283   9.309   8.705   0.303
14681WAT      O44284   9.311   8.454   4.217
14681WAT     H144285   9.395   8.400   4.226
14681WAT     H244286   9.333   8.551   4.225
14682WAT      O44287   1.307   1.733   8.881
14682WAT     H144288   1.268   1.733   8.973
14682WAT     H244289   1.392   1.680   8.881
14683WAT      O44290   2.209   4.578   9.577
14683WAT     H144291   2.126   4.537   9.539
14683WAT     H244292   2.278   4.507   9.590
14684WAT      O44293   5.167   6.009   3.537
14684WAT     H144294   5.090   5.951   3.509
14684WAT     H244295   5.247   5.987   3.482
14685WAT      O44296   1.669   3.159   3.478
14685WAT     H144297   1.573   3.157   3.450
14685WAT     H244298   1.695   3.252   3.502
14686WAT      O44299   8.937   1.033   0.744
14686WAT     H144300   9.003   1.053   0.816
14686WAT     H244301   8.936   1.108   0.678
14687WAT      O44302   6.436   5.497   0.993
14687WAT     H144303   6.519   5.468   1.041
14687WAT     H244304   6.460   5.564   0.922
14688WAT      O44305   1.946   7.610   6.000
14688WAT     H144306   1.996   7.550   5.938
14688WAT     H244307   2.005   7.686   6.027
14689WAT      O44308   9.011   0.630   4.313
14689WAT     H144309   9.028   0.708   4.253
14689WAT     H244310   9.085   0.563   4.302
14690WAT      O44311   4.069   2.267   4.100
14690WAT     H144312   3.988   2.258   4.157
14690WAT     H244313   4.059   2.211   4.018
14691WAT      O44314   7.252   0.119   6.071
14691WAT     H144315   7.246   0.089   5.975
14691WAT     H244316   7.222   0.214   6.078
14692WAT      O44317   0.957   7.800   4.789
14692WAT     H144318   1.041   7.746   4.798
14692WAT     H244319   0.888   7.746   4.742
14693WAT      O44320   7.534   4.118   6.084
14693WAT     H144321   7.456   4.150   6.137
14693WAT     H244322   7.560   4.026   6.114
14694WAT      O44323   6.041   6.663   1.250
14694WAT     H144324   6.109   6.731   1.222
14694WAT     H244325   5.956   6.679   1.199
14695WAT      O44326   9.522   2.017   3.064
14695WAT     H144327   9.489   2.106   3.032
14695WAT     H244328   9.618   2.006   3.038
14696WAT      O44329   3.198   3.177   6.702
14696WAT     H144330   3.141   3.243   6.751
14696WAT     H244331   3.225   3.215   6.614
14697WAT      O44332   2.453   6.977   4.245
14697WAT     H144333   2.485   7.043   4.176
14697WAT     H244334   2.532   6.930   4.284
14698WAT      O44335   6.845   9.035   0.472
14698WAT     H144336   6.902   9.115   0.452
14698WAT     H244337   6.767   9.033   0.409
14699WAT      O44338   0.454   8.074   0.099
14699WAT     H144339   0.409   8.126   0.026
14699WAT     H244340   0.389   8.011   0.141
14700WAT      O44341   1.663   4.590   0.308
14700WAT     H144342   1.637   4.529   0.383
14700WAT     H244343   1.602   4.575   0.230
14701WAT      O44344   0.603   2.153   7.241
14701WAT     H144345   0.695   2.160   7.203
14701WAT     H244346   0.568   2.245   7.261
14702WAT      O44347   3.093   2.483   0.696
14702WAT     H144348   3.130   2.417   0.761
14702WAT     H244349   2.999   2.457   0.671
14703WAT      O44350   8.519   8.607   3.449
14703WAT     H144351   8.455   8.600   3.525
14703WAT     H244352   8.567   8.695   3.454
14704WAT      O44353   1.291   6.446   5.566
14704WAT     H144354   1.356   6.429   5.640
14704WAT     H244355   1.233   6.524   5.589
14705WAT      O44356   9.366   7.380   2.894
14705WAT     H144357   9.417   7.307   2.849
14705WAT     H244358   9.286   7.341   2.939
14706WAT      O44359   2.353   3.897   1.617
14706WAT     H144360   2.322   3.921   1.709
14706WAT     H244361   2.414   3.818   1.622
14707WAT      O44362   1.901   2.743   8.092
14707WAT     H144363   1.949   2.734   8.005
14707WAT     H244364   1.803   2.756   8.075
14708WAT      O44365   2.742   2.857   8.523
14708WAT     H144366   2.827   2.818   8.558
14708WAT     H244367   2.712   2.805   8.442
14709WAT      O44368   7.175   0.779   3.605
14709WAT     H144369   7.265   0.758   3.643
14709WAT     H244370   7.110   0.708   3.633
14710WAT      O44371   3.666   0.097   1.706
14710WAT     H144372   3.722   0.151   1.768
14710WAT     H244373   3.580   0.073   1.750
14711WAT      O44374   6.532   0.754   8.133
14711WAT     H144375   6.522   0.806   8.048
14711WAT     H244376   6.619   0.776   8.177
14712WAT      O44377   5.623   6.240   4.320
14712WAT     H144378   5.540   6.274   4.364
14712WAT     H244379   5.685   6.203   4.390
14713WAT      O44380   2.181   4.635   3.306
14713WAT     H144381   2.134   4.678   3.384
14713WAT     H244382   2.150   4.678   3.221
14714WAT      O44383   6.903   6.370   1.414
14714WAT     H144384   6.832   6.304   1.391
14714WAT     H244385   6.864   6.462   1.415
14715WAT      O44386   6.093   1.449   5.422
14715WAT     H144387   6.085   1.475   5.518
14715WAT     H244388   6.178   1.398   5.409
14716WAT      O44389   2.453   4.840   0.650
14716WAT     H144390   2.378   4.785   0.613
14716WAT     H244391   2.470   4.813   0.745
14717WAT      O44392   1.757   7.310   6.647
14717WAT     H144393   1.853   7.284   6.640
14717WAT     H244394   1.725   7.295   6.741
14718WAT      O44395   1.922   3.663   8.015
14718WAT     H144396   1.859   3.740   8.009
14718WAT     H244397   1.870   3.578   8.025
14719WAT      O44398   1.321   3.548   5.074
14719WAT     H144399   1.355   3.455   5.089
14719WAT     H244400   1.299   3.560   4.977
14720WAT      O44401   9.722   9.066   9.302
14720WAT     H144402   9.658   9.027   9.368
14720WAT     H244403   9.692   9.042   9.209
14721WAT      O44404   4.089   9.810   5.412
14721WAT     H144405   4.068   9.808   5.510
14721WAT     H244406   4.147   9.888   5.391
14722WAT      O44407   9.561   6.341   7.718
14722WAT     H144408   9.586   6.339   7.815
14722WAT     H244409   9.616   6.275   7.668
14723WAT      O44410   8.026   3.439   6.988
14723WAT     H144411   8.020   3.520   7.046
14723WAT     H244412   7.978   3.457   6.902
14724WAT      O44413   4.847   5.733   8.555
14724WAT     H144414   4.906   5.709   8.632
14724WAT     H244415   4.758   5.763   8.590
14725WAT      O44416   0.802   4.445   6.876
14725WAT     H144417   0.826   4.420   6.782
14725WAT     H244418   0.853   4.528   6.901
14726WAT      O44419   3.712   4.777   9.223
14726WAT     H144420   3.670   4.688   9.240
14726WAT     H244421   3.760   4.807   9.306
14727WAT      O44422   9.063   9.375   6.809
14727WAT     H144423   9.138   9.436   6.783
14727WAT     H244424   9.101   9.291   6.848
14728WAT      O44425   9.053   8.271   2.088
14728WAT     H144426   9.123   8.201   2.081
14728WAT     H244427   8.963   8.228   2.090
14729WAT      O44428   9.085   6.735   3.184
14729WAT     H144429   9.180   6.748   3.211
14729WAT     H244430   9.067   6.638   3.170
14730WAT      O44431   5.673   7.753   6.805
14730WAT     H144432   5.610   7.829   6.793
14730WAT     H244433   5.646   7.699   6.884
14731WAT      O44434   0.103   3.087   0.972
14731WAT     H144435   0.121   3.171   0.923
14731WAT     H244436   0.016   3.048   0.942
14732WAT      O44437   1.667   6.023   3.202
14732WAT     H144438   1.667   6.064   3.293
14732WAT     H244439   1.620   6.083   3.138
14733WAT      O44440   1.429   7.562   1.834
14733WAT     H144441   1.333   7.548   1.861
14733WAT     H244442   1.436   7.563   1.735
14734WAT      O44443   5.723   1.786   8.959
14734WAT     H144444   5.677   1.708   8.918
14734WAT     H244445   5.705   1.869   8.906
14735WAT      O44446   3.452   6.514   6.762
14735WAT     H144447   3.511   6.469   6.694
14735WAT     H244448   3.446   6.457   6.844
14736WAT      O44449   2.460   3.011   8.867
14736WAT     H144450   2.464   3.103   8.830
14736WAT     H244451   2.421   3.013   8.959
14737WAT      O44452   7.922   9.762   5.450
14737WAT     H144453   7.950   9.788   5.542
14737WAT     H244454   7.831   9.719   5.454
14738WAT      O44455   9.784   1.090   1.224
14738WAT     H144456   9.857   1.133   1.278
14738WAT     H244457   9.758   1.003   1.266
14739WAT      O44458   6.622   9.359   4.407
14739WAT     H144459   6.688   9.433   4.424
14739WAT     H244460   6.533   9.398   4.386
14740WAT      O44461   0.185   7.436   3.396
14740WAT     H144462   0.263   7.446   3.458
14740WAT     H244463   0.164   7.339   3.386
14741WAT      O44464   4.497   5.471   9.293
14741WAT     H144465   4.566   5.429   9.235
14741WAT     H244466   4.450   5.401   9.345
14742WAT      O44467   0.709   0.290   0.416
14742WAT     H144468   0.769   0.275   0.338
14742WAT     H244469   0.731   0.225   0.489
14743WAT      O44470   9.242   4.243   3.685
14743WAT     H144471   9.183   4.226   3.764
14743WAT     H244472   9.326   4.287   3.716
14744WAT      O44473   7.959   7.854   3.126
14744WAT     H144474   7.881   7.889   3.075
14744WAT     H244475   7.940   7.759   3.154
14745WAT      O44476   2.826   0.331   1.769
14745WAT     H144477   2.855   0.387   1.847
14745WAT     H244478   2.903   0.315   1.708
14746WAT      O44479   7.453   2.175   3.687
14746WAT     H144480   7.373   2.137   3.641
14746WAT     H244481   7.509   2.100   3.722
14747WAT      O44482   6.569   3.220   0.778
14747WAT     H144483   6.648   3.163   0.801
14747WAT     H244484   6.554   3.219   0.679
14748WAT      O44485   1.893   6.790   6.433
14748WAT     H144486   1.826   6.721   6.407
14748WAT     H244487   1.848   6.863   6.484
14749WAT      O44488   0.082   9.243   0.257
14749WAT     H144489   0.108   9.308   0.329
14749WAT     H244490  -0.014   9.256   0.234
14750WAT      O44491   0.018   5.006   4.575
14750WAT     H144492   0.025   5.074   4.502
14750WAT     H244493  -0.000   4.916   4.534
14751WAT      O44494   0.159   1.071   2.392
14751WAT     H144495   0.121   1.163   2.402
14751WAT     H244496   0.258   1.073   2.406
14752WAT      O44497   2.451   2.096   8.995
14752WAT     H144498   2.474   2.073   8.901
14752WAT     H244499   2.484   2.188   9.016
14753WAT      O44500   9.014   8.174   7.908
14753WAT     H144501   9.081   8.226   7.855
14753WAT     H244502   9.047   8.162   8.002
14754WAT      O44503   3.994   4.972   7.935
14754WAT     H144504   3.985   5.059   7.984
14754WAT     H244505   3.904   4.935   7.915
14755WAT      O44506   4.234   9.637   2.256
14755WAT     H144507   4.300   9.654   2.183
14755WAT     H244508   4.243   9.708   2.326
14756WAT      O44509   8.006   0.448   6.275
14756WAT     H144510   8.094   0.441   6.321
14756WAT     H244511   7.970   0.540   6.287
14757WAT      O44512   4.015   7.656   5.921
14757WAT     H144513   3.964   7.693   5.998
14757WAT     H244514   4.091   7.718   5.899
14758WAT      O44515   5.874   2.989   6.805
14758WAT     H144516   5.840   2.961   6.894
14758WAT     H244517   5.944   3.060   6.816
14759WAT      O44518   5.033   7.422   9.547
14759WAT     H144519   4.937   7.393   9.535
14759WAT     H244520   5.090   7.372   9.482
14760WAT      O44521   4.677   7.103   8.602
14760WAT     H144522   4.628   7.036   8.659
14760WAT     H244523   4.765   7.125   8.646
14761WAT      O44524   1.322   9.372   0.137
14761WAT     H144525   1.318   9.283   0.182
14761WAT     H244526   1.252   9.432   0.174
14762WAT      O44527   7.152   6.191   7.220
14762WAT     H144528   7.146   6.282   7.179
14762WAT     H244529   7.064   6.145   7.211
14763WAT      O44530   4.416   8.958   0.527
14763WAT     H144531   4.420   9.036   0.589
14763WAT     H244532   4.444   8.875   0.577
14764WAT      O44533   5.952   3.924   4.380
14764WAT     H144534   5.904   3.871   4.310
14764WAT     H244535   6.045   3.888   4.391
14765WAT      O44536   7.843   5.619   4.136
14765WAT     H144537   7.825   5.643   4.231
14765WAT     H244538   7.759   5.584   4.094
14766WAT      O44539   8.706   8.188   0.782
14766WAT     H144540   8.703   8.151   0.689
14766WAT     H244541   8.802   8.202   0.809
14767WAT      O44542   3.248   3.752   2.228
14767WAT     H144543   3.226   3.792   2.317
14767WAT     H244544   3.242   3.652   2.233
14768WAT      O44545   8.557   9.519   1.425
14768WAT     H144546   8.521   9.444   1.370
14768WAT     H244547   8.621   9.573   1.370
14769WAT      O44548   8.745   3.627   6.896
14769WAT     H144549   8.689   3.699   6.937
14769WAT     H244550   8.788   3.572   6.967
14770WAT      O44551   1.600   8.135   4.832
14770WAT     H144552   1.647   8.223   4.836
14770WAT     H244553   1.666   8.061   4.846
14771WAT      O44554   6.461   4.505   7.964
14771WAT     H144555   6.379   4.557   7.989
14771WAT     H244556   6.497   4.539   7.878
14772WAT      O44557   8.295   2.501   3.885
14772WAT     H144558   8.253   2.410   3.897
14772WAT     H244559   8.225   2.565   3.853
14773WAT      O44560   6.692   6.427   9.186
14773WAT     H144561   6.753   6.498   9.221
14773WAT     H244562   6.653   6.376   9.263
14774WAT      O44563   2.105   2.708   7.687
14774WAT     H144564   2.173   2.650   7.733
14774WAT     H244565   2.023   2.654   7.668
14775WAT      O44566   5.838   9.665   2.704
14775WAT     H144567   5.935   9.644   2.693
14775WAT     H244568   5.795   9.597   2.763
14776WAT      O44569   7.020   0.675   8.393
14776WAT     H144570   6.972   0.625   8.465
14776WAT     H244571   7.074   0.611   8.338
14777WAT      O44572   7.945   3.502   8.602
14777WAT     H144573   7.999   3.555   8.668
14777WAT     H244574   7.922   3.413   8.641
14778WAT      O44575   2.608   1.279   5.349
14778WAT     H144576   2.531   1.216   5.337
14778WAT     H244577   2.605   1.318   5.441
14779WAT      O44578   8.886   9.653   6.842
14779WAT     H144579   8.934   9.571   6.812
14779WAT     H244580   8.787   9.641   6.828
14780WAT      O44581   0.068   1.197   2.010
14780WAT     H144582   0.163   1.206   2.039
14780WAT     H244583   0.025   1.287   2.008
14781WAT      O44584   0.123   0.847   3.493
14781WAT     H144585   0.215   0.855   3.456
14781WAT     H244586   0.059   0.898   3.436
14782WAT      O44587   0.818   0.658   9.503
14782WAT     H144588   0.823   0.758   9.499
14782WAT     H244589   0.729   0.630   9.539
14783WAT      O44590   7.545   8.307   5.826
14783WAT     H144591   7.603   8.227   5.839
14783WAT     H244592   7.574   8.356   5.743
14784WAT      O44593   8.312   0.168   2.382
14784WAT     H144594   8.290   0.073   2.402
14784WAT     H244595   8.408   0.185   2.403
14785WAT      O44596   1.107   4.314   7.299
14785WAT     H144597   1.164   4.381   7.250
14785WAT     H244598   1.159   4.230   7.312
14786WAT      O44599   3.074   5.129   1.546
14786WAT     H144600   3.139   5.065   1.588
14786WAT     H244601   3.012   5.079   1.486
14787WAT      O44602   8.438   7.732   2.843
14787WAT     H144603   8.339   7.746   2.843
14787WAT     H244604   8.468   7.706   2.935
14788WAT      O44605   4.537   0.419   9.375
14788WAT     H144606   4.498   0.383   9.290
14788WAT     H244607   4.554   0.517   9.363
14789WAT      O44608   3.607   7.148   7.035
14789WAT     H144609   3.569   7.062   7.070
14789WAT     H244610   3.640   7.133   6.942
14790WAT      O44611   2.042   6.317   7.912
14790WAT     H144612   1.987   6.241   7.876
14790WAT     H244613   1.992   6.403   7.899
14791WAT      O44614   1.906   9.178   1.872
14791WAT     H144615   1.860   9.121   1.940
14791WAT     H244616   2.000   9.146   1.860
14792WAT      O44617   6.669   3.754   3.908
14792WAT     H144618   6.731   3.689   3.952
14792WAT     H244619   6.578   3.745   3.947
14793WAT      O44620   6.782   7.521   8.912
14793WAT     H144621   6.784   7.494   8.815
14793WAT     H244622   6.806   7.442   8.969
14794WAT      O44623   7.192   9.093   2.916
14794WAT     H144624   7.256   9.066   2.844
14794WAT     H244625   7.106   9.044   2.904
14795WAT      O44626   5.935   4.274   0.908
14795WAT     H144627   5.903   4.186   0.945
14795WAT     H244628   5.868   4.308   0.842
14796WAT      O44629   9.180   9.785   3.979
14796WAT     H144630   9.235   9.767   4.060
14796WAT     H244631   9.130   9.703   3.953
14797WAT      O44632   9.357   1.331   2.389
14797WAT     H144633   9.401   1.251   2.429
14797WAT     H244634   9.355   1.405   2.456
14798WAT      O44635   0.675   4.637   2.179
14798WAT     H144636   0.740   4.710   2.201
14798WAT     H244637   0.670   4.624   2.080
14799WAT      O44638   0.408   7.885   9.201
14799WAT     H144639   0.472   7.906   9.127
14799WAT     H244640   0.385   7.969   9.250
14800WAT      O44641   1.776   4.513   6.876
14800WAT     H144642   1.822   4.600   6.889
14800WAT     H244643   1.790   4.455   6.957
14801WAT      O44644   7.898   1.005   3.761
14801WAT     H144645   7.902   0.906   3.775
14801WAT     H244646   7.862   1.024   3.669
14802WAT      O44647   0.597   3.752   7.056
14802WAT     H144648   0.510   3.774   7.100
14802WAT     H244649   0.636   3.671   7.098
14803WAT      O44650   6.928   0.402   7.611
14803WAT     H144651   6.905   0.499   7.625
14803WAT     H244652   6.919   0.379   7.514
14804WAT      O44653   8.495   0.299   1.059
14804WAT     H144654   8.497   0.389   1.102
14804WAT     H244655   8.566   0.242   1.100
14805WAT      O44656   3.722   5.760   2.922
14805WAT     H144657   3.725   5.664   2.948
14805WAT     H244658   3.815   5.793   2.906
14806WAT      O44659   5.180   6.875   5.721
14806WAT     H144660   5.242   6.938   5.675
14806WAT     H244661   5.198   6.876   5.820
14807WAT      O44662   9.434   7.831   3.740
14807WAT     H144663   9.416   7.827   3.642
14807WAT     H244664   9.487   7.751   3.768
14808WAT      O44665   9.589   2.110   2.723
14808WAT     H144666   9.494   2.080   2.713
14808WAT     H244667   9.630   2.122   2.633
14809WAT      O44668   9.860   7.444   7.334
14809WAT     H144669   9.812   7.498   7.403
14809WAT     H244670   9.896   7.361   7.377
14810WAT      O44671   3.246   7.075   4.003
14810WAT     H144672   3.282   7.108   4.091
14810WAT     H244673   3.162   7.124   3.982
14811WAT      O44674   7.292   7.143   4.022
14811WAT     H144675   7.371   7.189   4.062
14811WAT     H244676   7.221   7.211   4.002
14812WAT      O44677   7.620   5.676   4.528
14812WAT     H144678   7.607   5.588   4.481
14812WAT     H244679   7.536   5.700   4.577
14813WAT      O44680   5.776   0.168   0.164
14813WAT     H144681   5.780   0.074   0.131
14813WAT     H244682   5.864   0.213   0.148
14814WAT      O44683   2.472   3.778   5.056
14814WAT     H144684   2.374   3.764   5.045
14814WAT     H244685   2.489   3.866   5.102
14815WAT      O44686   0.468   4.772   3.504
14815WAT     H144687   0.420   4.737   3.584
14815WAT     H244688   0.404   4.783   3.428
14816WAT      O44689   9.503   0.684   2.446
14816WAT     H144690   9.569   0.719   2.512
14816WAT     H244691   9.522   0.724   2.356
14817WAT      O44692   6.523   4.795   5.344
14817WAT     H144693   6.463   4.842   5.409
14817WAT     H244694   6.586   4.736   5.393
14818WAT      O44695   0.451   0.757   7.217
14818WAT     H144696   0.519   0.729   7.150
14818WAT     H244697   0.392   0.679   7.241
14819WAT      O44698   3.597   6.939   9.168
14819WAT     H144699   3.685   6.980   9.144
14819WAT     H244700   3.535   7.011   9.201
14820WAT      O44701   7.881   7.054   8.580
14820WAT     H144702   7.977   7.060   8.551
14820WAT     H244703   7.844   7.147   8.589
14821WAT      O44704   1.396   5.296   7.745
14821WAT     H144705   1.485   5.273   7.707
14821WAT     H244706   1.404   5.311   7.843
14822WAT      O44707   0.333   8.435   5.643
14822WAT     H144708   0.387   8.410   5.724
14822WAT     H244709   0.236   8.420   5.661
14823WAT      O44710   5.855   3.164   0.695
14823WAT     H144711   5.775   3.123   0.740
14823WAT     H244712   5.927   3.095   0.687
14824WAT      O44713   0.132   0.878   2.215
14824WAT     H144714   0.043   0.833   2.210
14824WAT     H244715   0.130   0.949   2.286
14825WAT      O44716   2.984   8.518   9.891
14825WAT     H144717   3.010   8.488   9.799
14825WAT     H244718   2.898   8.567   9.888
14826WAT      O44719   1.718   6.026   8.512
14826WAT     H144720   1.711   5.930   8.539
14826WAT     H244721   1.632   6.055   8.470
14827WAT      O44722   3.675   8.060   5.884
14827WAT     H144723   3.619   8.143   5.889
14827WAT     H244724   3.681   8.029   5.790
14828WAT      O44725   0.810   0.092   1.532
14828WAT     H144726   0.833   0.019   1.596
14828WAT     H244727   0.879   0.096   1.459
14829WAT      O44728   5.507   2.693   2.257
14829WAT     H144729   5.514   2.606   2.209
14829WAT     H244730   5.569   2.759   2.215
14830WAT      O44731   3.895   9.514   1.835
14830WAT     H144732   3.816   9.562   1.797
14830WAT     H244733   3.977   9.568   1.819
14831WAT      O44734   8.185   6.064   1.852
14831WAT     H144735   8.129   6.031   1.776
14831WAT     H244736   8.129   6.071   1.934
14832WAT      O44737   2.216   9.651   8.175
14832WAT     H144738   2.243   9.616   8.085
14832WAT     H244739   2.286   9.627   8.242
14833WAT      O44740   3.856   1.729   3.333
14833WAT     H144741   3.814   1.815   3.305
14833WAT     H244742   3.952   1.744   3.356
14834WAT      O44743   4.012   3.309   4.198
14834WAT     H144744   3.933   3.309   4.260
14834WAT     H244745   4.073   3.234   4.222
14835WAT      O44746   1.091   1.671   6.685
14835WAT     H144747   1.081   1.765   6.654
14835WAT     H244748   1.163   1.626   6.632
14836WAT      O44749   8.985   7.271   2.094
14836WAT     H144750   8.959   7.174   2.093
14836WAT     H244751   8.989   7.305   2.001
14837WAT      O44752   5.584   7.614   7.047
14837WAT     H144753   5.520   7.544   7.014
14837WAT     H244754   5.534   7.697   7.071
14838WAT      O44755   5.276   5.700   2.236
14838WAT     H144756   5.353   5.665   2.183
14838WAT     H244757   5.308   5.766   2.304
14839WAT      O44758   3.451   6.162   2.321
14839WAT     H144759   3.391   6.180   2.242
14839WAT     H244760   3.407   6.196   2.404
14840WAT      O44761   8.043   7.829   2.597
14840WAT     H144762   8.136   7.864   2.596
14840WAT     H244763   7.987   7.880   2.531
14841WAT      O44764   8.181   4.272   3.342
14841WAT     H144765   8.181   4.187   3.395
14841WAT     H244766   8.227   4.258   3.255
14842WAT      O44767   0.214   3.385   4.679
14842WAT     H144768   0.151   3.420   4.610
14842WAT     H244769   0.201   3.434   4.764
14843WAT      O44770   0.529   9.101   2.023
14843WAT     H144771   0.578   9.032   1.971
14843WAT     H244772   0.431   9.093   2.005
14844WAT      O44773   5.401   8.712   6.942
14844WAT     H144774   5.396   8.616   6.915
14844WAT     H244775   5.316   8.758   6.916
14845WAT      O44776   7.129   5.227   3.366
14845WAT     H144777   7.158   5.139   3.328
14845WAT     H244778   7.125   5.295   3.293
14846WAT      O44779   0.379   5.781   7.455
14846WAT     H144780   0.342   5.805   7.366
14846WAT     H244781   0.351   5.850   7.522
14847WAT      O44782   8.956   4.489   5.158
14847WAT     H144783   8.977   4.430   5.235
14847WAT     H244784   8.945   4.583   5.190
14848WAT      O44785   1.379   8.054   1.246
14848WAT     H144786   1.364   8.093   1.337
14848WAT     H244787   1.320   8.102   1.180
14849WAT      O44788   8.529   0.402   8.598
14849WAT     H144789   8.600   0.355   8.649
14849WAT     H244790   8.547   0.392   8.500
14850WAT      O44791   8.297   2.746   8.882
14850WAT     H144792   8.263   2.681   8.814
14850WAT     H244793   8.387   2.716   8.915
14851WAT      O44794   2.909   1.256   3.381
14851WAT     H144795   2.900   1.327   3.451
14851WAT     H244796   2.840   1.270   3.311
14852WAT      O44797   9.083   6.736   8.994
14852WAT     H144798   9.107   6.833   9.006
14852WAT     H244799   9.166   6.684   8.973
14853WAT      O44800   3.654   1.572   0.895
14853WAT     H144801   3.666   1.638   0.820
14853WAT     H244802   3.586   1.504   0.869
14854WAT      O44803   8.227   6.263   1.105
14854WAT     H144804   8.273   6.202   1.040
14854WAT     H244805   8.189   6.341   1.056
14855WAT      O44806   4.632   7.253   6.321
14855WAT     H144807   4.550   7.210   6.359
14855WAT     H244808   4.712   7.196   6.342
14856WAT      O44809   2.729   0.484   8.764
14856WAT     H144810   2.738   0.494   8.665
14856WAT     H244811   2.709   0.573   8.805
14857WAT      O44812   5.231   7.144   8.071
14857WAT     H144813   5.168   7.106   8.139
14857WAT     H244814   5.232   7.086   7.990
14858WAT      O44815   7.814   4.612   4.248
14858WAT     H144816   7.883   4.550   4.209
14858WAT     H244817   7.766   4.659   4.174
14859WAT      O44818   8.730   0.429   3.233
14859WAT     H144819   8.781   0.499   3.182
14859WAT     H244820   8.639   0.418   3.191
14860WAT      O44821   0.303   3.174   7.281
14860WAT     H144822   0.339   3.117   7.208
14860WAT     H244823   0.212   3.143   7.308
14861WAT      O44824   0.846   5.374   0.365
14861WAT     H144825   0.886   5.313   0.434
14861WAT     H244826   0.870   5.341   0.274
14862WAT      O44827   2.229   1.482   2.182
14862WAT     H144828   2.323   1.470   2.214
14862WAT     H244829   2.220   1.571   2.138
14863WAT      O44830   6.965   2.493   4.334
14863WAT     H144831   7.062   2.479   4.319
14863WAT     H244832   6.937   2.448   4.419
14864WAT      O44833   0.019   0.549   4.198
14864WAT     H144834  -0.051   0.542   4.270
14864WAT     H244835  -0.014   0.503   4.116
14865WAT      O44836   6.867   0.936   4.330
14865WAT     H144837   6.805   1.004   4.369
14865WAT     H244838   6.869   0.855   4.388
14866WAT      O44839   5.933   6.277   9.377
14866WAT     H144840   5.963   6.200   9.322
14866WAT     H244841   5.895   6.244   9.464
14867WAT      O44842   8.924   3.987   0.309
14867WAT     H144843   8.854   3.920   0.336
14867WAT     H244844   8.994   3.942   0.253
14868WAT      O44845   3.196   8.629   8.667
14868WAT     H144846   3.205   8.587   8.577
14868WAT     H244847   3.280   8.614   8.720
14869WAT      O44848   2.269   7.749   4.258
14869WAT     H144849   2.280   7.828   4.199
14869WAT     H244850   2.199   7.688   4.220
14870WAT      O44851   4.375   9.349   7.140
14870WAT     H144852   4.461   9.399   7.151
14870WAT     H244853   4.329   9.342   7.229
14871WAT      O44854   1.546   9.238   7.555
14871WAT     H144855   1.582   9.295   7.481
14871WAT     H244856   1.607   9.244   7.635
14872WAT      O44857   9.702   4.512   2.174
14872WAT     H144858   9.711   4.491   2.272
14872WAT     H244859   9.669   4.430   2.126
14873WAT      O44860   3.439   5.297   3.459
14873WAT     H144861   3.506   5.291   3.533
14873WAT     H244862   3.462   5.230   3.389
14874WAT      O44863   1.647   2.195   3.683
14874WAT     H144864   1.586   2.260   3.639
14874WAT     H244865   1.632   2.104   3.644
14875WAT      O44866   9.867   7.933   9.287
14875WAT     H144867   9.770   7.949   9.267
14875WAT     H244868   9.920   7.942   9.202
14876WAT      O44869   4.591   4.532   8.612
14876WAT     H144870   4.656   4.538   8.536
14876WAT     H244871   4.498   4.521   8.575
14877WAT      O44872   3.988   2.421   6.671
14877WAT     H144873   3.941   2.434   6.758
14877WAT     H244874   4.064   2.485   6.663
14878WAT      O44875   7.283   4.470   1.087
14878WAT     H144876   7.256   4.374   1.084
14878WAT     H244877   7.204   4.528   1.066
14879WAT      O44878   0.647   7.278   9.843
14879WAT     H144879   0.676   7.353   9.782
14879WAT     H244880   0.562   7.303   9.888
14880WAT      O44881   9.809   4.089   2.034
14880WAT     H144882   9.874   4.030   2.082
14880WAT     H244883   9.819   4.077   1.936
14881WAT      O44884   7.231   4.430   4.291
14881WAT     H144885   7.290   4.354   4.318
14881WAT     H244886   7.278   4.485   4.222
14882WAT      O44887   7.847   5.016   7.447
14882WAT     H144888   7.856   4.924   7.485
14882WAT     H244889   7.753   5.030   7.416
14883WAT      O44890   8.618   9.344   7.245
14883WAT     H144891   8.579   9.399   7.319
14883WAT     H244892   8.637   9.403   7.166
14884WAT      O44893   2.946   7.263   7.281
14884WAT     H144894   2.968   7.212   7.365
14884WAT     H244895   3.014   7.243   7.211
14885WAT      O44896   3.751   3.386   6.823
14885WAT     H144897   3.761   3.482   6.851
14885WAT     H244898   3.784   3.376   6.729
14886WAT      O44899   6.707   7.633   1.183
14886WAT     H144900   6.658   7.550   1.207
14886WAT     H244901   6.695   7.652   1.086
14887WAT      O44902   2.398   6.571   8.826
14887WAT     H144903   2.397   6.610   8.734
14887WAT     H244904   2.362   6.478   8.823
14888WAT      O44905   1.299   3.728   2.449
14888WAT     H144906   1.253   3.650   2.490
14888WAT     H244907   1.237   3.774   2.385
14889WAT      O44908   3.129   0.859   1.179
14889WAT     H144909   3.131   0.955   1.149
14889WAT     H244910   3.222   0.823   1.180
14890WAT      O44911   1.838   5.743   1.993
14890WAT     H144912   1.807   5.659   2.039
14890WAT     H244913   1.907   5.720   1.925
14891WAT      O44914   4.416   6.001   6.099
14891WAT     H144915   4.439   6.095   6.077
14891WAT     H244916   4.495   5.955   6.140
14892WAT      O44917   0.448   0.025   1.248
14892WAT     H144918   0.351   0.011   1.269
14892WAT     H244919   0.472  -0.023   1.164
14893WAT      O44920   1.448   9.748   7.619
14893WAT     H144921   1.414   9.782   7.532
14893WAT     H244922   1.426   9.815   7.691
14894WAT      O44923   0.504   1.877   5.996
14894WAT     H144924   0.517   1.866   6.095
14894WAT     H244925   0.456   1.963   5.978
14895WAT      O44926   5.549   3.285   5.971
14895WAT     H144927   5.576   3.378   5.996
14895WAT     H244928   5.631   3.229   5.959
14896WAT      O44929   2.525   9.388   1.166
14896WAT     H144930   2.495   9.467   1.221
14896WAT     H244931   2.480   9.306   1.200
14897WAT      O44932   8.990   5.106   5.843
14897WAT     H144933   8.986   5.024   5.901
14897WAT     H244934   9.051   5.089   5.766
14898WAT      O44935   2.518   1.636   1.231
14898WAT     H144936   2.457   1.559   1.247
14898WAT     H244937   2.555   1.631   1.138
14899WAT      O44938   5.287   6.216   8.235
14899WAT     H144939   5.197   6.256   8.249
14899WAT     H244940   5.308   6.153   8.309
14900WAT      O44941   4.736   8.870   4.074
14900WAT     H144942   4.828   8.865   4.035
14900WAT     H244943   4.697   8.778   4.081
14901WAT      O44944   2.487   7.856   9.178
14901WAT     H144945   2.474   7.789   9.252
14901WAT     H244946   2.555   7.820   9.114
14902WAT      O44947   3.237   0.284   9.503
14902WAT     H144948   3.295   0.358   9.470
14902WAT     H244949   3.292   0.201   9.517
14903WAT      O44950   4.725   7.700   6.753
14903WAT     H144951   4.629   7.725   6.741
14903WAT     H244952   4.772   7.705   6.665
14904WAT      O44953   5.360   4.402   7.797
14904WAT     H144954   5.316   4.408   7.886
14904WAT     H244955   5.453   4.438   7.802
14905WAT      O44956   2.375   0.101   0.928
14905WAT     H144957   2.385   0.200   0.928
14905WAT     H244958   2.379   0.067   0.834
14906WAT      O44959   6.846   3.095   9.310
14906WAT     H144960   6.772   3.158   9.286
14906WAT     H244961   6.809   3.002   9.315
14907WAT      O44962   8.406   5.346   2.283
14907WAT     H144963   8.366   5.317   2.196
14907WAT     H244964   8.340   5.330   2.357
14908WAT      O44965   8.585   0.993   1.094
14908WAT     H144966   8.622   1.062   1.032
14908WAT     H244967   8.492   1.018   1.120
14909WAT      O44968   0.837   6.682   1.078
14909WAT     H144969   0.816   6.639   1.166
14909WAT     H244970   0.754   6.683   1.021
14910WAT      O44971   5.388   8.266   9.038
14910WAT     H144972   5.424   8.263   8.945
14910WAT     H244973   5.313   8.332   9.042
14911WAT      O44974   7.744   2.203   4.660
14911WAT     H144975   7.763   2.296   4.629
14911WAT     H244976   7.814   2.175   4.726
14912WAT      O44977   8.552   0.622   5.715
14912WAT     H144978   8.465   0.583   5.684
14912WAT     H244979   8.539   0.718   5.740
14913WAT      O44980   0.960   0.365   8.081
14913WAT     H144981   0.927   0.453   8.116
14913WAT     H244982   1.060   0.361   8.092
14914WAT      O44983   2.563   0.301   2.480
14914WAT     H144984   2.468   0.311   2.452
14914WAT     H244985   2.594   0.208   2.460
14915WAT      O44986   5.609   2.702   5.083
14915WAT     H144987   5.634   2.752   5.166
14915WAT     H244988   5.619   2.763   5.004
14916WAT      O44989   9.517   3.950   2.984
14916WAT     H144990   9.588   3.992   2.928
14916WAT     H244991   9.560   3.898   3.058
14917WAT      O44992   6.401   9.470   2.430
14917WAT     H144993   6.438   9.522   2.507
14917WAT     H244994   6.322   9.417   2.461
14918WAT      O44995   6.213   1.914   3.676
14918WAT     H144996   6.230   2.012   3.674
14918WAT     H244997   6.148   1.890   3.605
14919WAT      O44998   3.474   4.426   2.566
14919WAT     H144999   3.537   4.377   2.506
14919WAT     H245000   3.494   4.524   2.562
14920WAT      O45001   5.204   7.239   5.662
14920WAT     H145002   5.119   7.291   5.647
14920WAT     H245003   5.281   7.293   5.630
14921WAT      O45004   9.765   6.672   8.129
14921WAT     H145005   9.673   6.640   8.152
14921WAT     H245006   9.808   6.711   8.210
14922WAT      O45007   8.184   5.974   8.346
14922WAT     H145008   8.118   5.983   8.420
14922WAT     H245009   8.276   5.962   8.384
14923WAT      O45010   0.527   2.025   1.327
14923WAT     H145011   0.512   1.933   1.292
14923WAT     H245012   0.462   2.043   1.401
14924WAT      O45013   9.832   0.587   6.444
14924WAT     H145014   9.759   0.562   6.381
14924WAT     H245015   9.798   0.580   6.538
14925WAT      O45016   6.705   7.265   2.943
14925WAT     H145017   6.615   7.296   2.911
14925WAT     H245018   6.765   7.252   2.864
14926WAT      O45019   2.840   9.252   9.551
14926WAT     H145020   2.907   9.236   9.479
14926WAT     H245021   2.846   9.347   9.582
14927WAT      O45022   5.274   5.818   9.746
14927WAT     H145023   5.178   5.845   9.756
14927WAT     H245024   5.279   5.720   9.728
14928WAT      O45025   5.997   4.861   9.358
14928WAT     H145026   5.965   4.768   9.339
14928WAT     H245027   6.044   4.863   9.446
14929WAT      O45028   6.997   4.133   9.794
14929WAT     H145029   6.928   4.204   9.780
14929WAT     H245030   7.084   4.177   9.819
14930WAT      O45031   7.570   4.866   9.667
14930WAT     H145032   7.591   4.812   9.586
14930WAT     H245033   7.619   4.953   9.663
14931WAT      O45034   0.183   0.860   4.505
14931WAT     H145035   0.152   0.932   4.568
14931WAT     H245036   0.233   0.902   4.429
14932WAT      O45037   9.725   8.257   8.812
14932WAT     H145038   9.757   8.336   8.864
14932WAT     H245039   9.801   8.217   8.762
14933WAT      O45040   7.096   8.629   8.807
14933WAT     H145041   7.070   8.653   8.901
14933WAT     H245042   7.155   8.700   8.770
14934WAT      O45043   4.130   5.733   4.867
14934WAT     H145044   4.209   5.686   4.906
14934WAT     H245045   4.148   5.754   4.771
14935WAT      O45046   5.220   5.207   3.233
14935WAT     H145047   5.260   5.116   3.242
14935WAT     H245048   5.125   5.199   3.202
14936WAT      O45049   4.993   6.680   2.820
14936WAT     H145050   4.959   6.695   2.728
14936WAT     H245051   5.070   6.616   2.818
14937WAT      O45052   9.030   6.710   2.898
14937WAT     H145053   9.065   6.745   2.985
14937WAT     H245054   9.106   6.702   2.833
14938WAT      O45055   3.620   8.595   2.760
14938WAT     H145056   3.646   8.579   2.665
14938WAT     H245057   3.623   8.509   2.810
14939WAT      O45058   0.520   5.257   4.288
14939WAT     H145059   0.595   5.240   4.352
14939WAT     H245060   0.543   5.217   4.199
14940WAT      O45061   3.694   5.041   4.794
14940WAT     H145062   3.632   4.988   4.736
14940WAT     H245063   3.754   5.097   4.736
14941WAT      O45064   0.077   7.811   5.982
14941WAT     H145065  -0.006   7.857   6.014
14941WAT     H245066   0.144   7.807   6.057
14942WAT      O45067   8.610   3.407   5.401
14942WAT     H145068   8.595   3.480   5.468
14942WAT     H245069   8.557   3.327   5.427
14943WAT      O45070   0.757   3.539   2.734
14943WAT     H145071   0.728   3.512   2.826
14943WAT     H245072   0.689   3.509   2.667
14944WAT      O45073   4.069   6.374   1.819
14944WAT     H145074   4.001   6.432   1.774
14944WAT     H245075   4.045   6.363   1.915
14945WAT      O45076   6.837   1.607   4.439
14945WAT     H145077   6.738   1.624   4.441
14945WAT     H245078   6.878   1.640   4.524
14946WAT      O45079   5.962   8.328   3.563
14946WAT     H145080   6.020   8.314   3.483
14946WAT     H245081   5.914   8.415   3.555
14947WAT      O45082   9.229   1.944   5.633
14947WAT     H145083   9.282   1.871   5.590
14947WAT     H245084   9.137   1.910   5.654
14948WAT      O45085   9.820   0.874   6.131
14948WAT     H145086   9.904   0.900   6.179
14948WAT     H245087   9.839   0.865   6.033
14949WAT      O45088   9.736   9.364   9.035
14949WAT     H145089   9.696   9.317   8.957
14949WAT     H245090   9.715   9.314   9.119
14950WAT      O45091   8.827   4.896   1.879
14950WAT     H145092   8.890   4.847   1.940
14950WAT     H245093   8.734   4.886   1.912
14951WAT      O45094   0.988   6.641   7.952
14951WAT     H145095   0.970   6.627   7.855
14951WAT     H245096   0.969   6.557   8.002
14952WAT      O45097   1.780   7.844   6.380
14952WAT     H145098   1.864   7.815   6.335
14952WAT     H245099   1.800   7.874   6.473
14953WAT      O45100   5.400   9.684   0.023
14953WAT     H145101   5.370   9.779   0.014
14953WAT     H245102   5.470   9.677   0.094
14954WAT      O45103   0.502   1.539   8.264
14954WAT     H145104   0.552   1.623   8.285
14954WAT     H245105   0.497   1.526   8.165
14955WAT      O45106   2.105   6.386   6.605
14955WAT     H145107   2.142   6.299   6.572
14955WAT     H245108   2.079   6.443   6.527
14956WAT      O45109   8.395   8.718   8.673
14956WAT     H145110   8.384   8.619   8.686
14956WAT     H245111   8.314   8.754   8.626
14957WAT      O45112   2.178   2.845   3.610
14957WAT     H145113   2.085   2.840   3.574
14957WAT     H245114   2.211   2.752   3.629
14958WAT      O45115   6.891   2.196   0.585
14958WAT     H145116   6.894   2.146   0.499
14958WAT     H245117   6.803   2.180   0.630
14959WAT      O45118   2.875   0.561   7.347
14959WAT     H145119   2.961   0.513   7.363
14959WAT     H245120   2.807   0.497   7.311
14960WAT      O45121   7.534   6.597   8.918
14960WAT     H145122   7.612   6.536   8.926
14960WAT     H245123   7.506   6.604   8.822
14961WAT      O45124   8.654   1.231   8.027
14961WAT     H145125   8.593   1.154   8.008
14961WAT     H245126   8.617   1.284   8.104
14962WAT      O45127   6.829   7.493   1.514
14962WAT     H145128   6.738   7.493   1.557
14962WAT     H245129   6.830   7.558   1.438
14963WAT      O45130   5.755   2.610   1.346
14963WAT     H145131   5.808   2.578   1.268
14963WAT     H245132   5.801   2.586   1.431
14964WAT      O45133   5.731   3.037   2.548
14964WAT     H145134   5.673   3.101   2.599
14964WAT     H245135   5.681   2.952   2.532
14965WAT      O45136   4.485   8.142   5.285
14965WAT     H145137   4.397   8.164   5.242
14965WAT     H245138   4.469   8.086   5.366
14966WAT      O45139   4.907   2.071   1.093
14966WAT     H145140   4.894   2.087   1.191
14966WAT     H245141   4.999   2.034   1.078
14967WAT      O45142   1.048   0.466   1.498
14967WAT     H145143   1.060   0.515   1.585
14967WAT     H245144   1.000   0.525   1.433
14968WAT      O45145   3.295   3.037   8.542
14968WAT     H145146   3.260   3.128   8.563
14968WAT     H245147   3.388   3.028   8.577
14969WAT      O45148   4.303   9.462   6.328
14969WAT     H145149   4.334   9.370   6.354
14969WAT     H245150   4.205   9.459   6.308
14970WAT      O45151   6.612   5.034   8.803
14970WAT     H145152   6.598   5.064   8.897
14970WAT     H245153   6.670   5.100   8.755
14971WAT      O45154   5.199   3.575   9.620
14971WAT     H145155   5.168   3.632   9.696
14971WAT     H245156   5.254   3.499   9.655
14972WAT      O45157   2.401   2.651   7.201
14972WAT     H145158   2.325   2.621   7.144
14972WAT     H245159   2.466   2.704   7.145
14973WAT      O45160   5.496   0.275   7.219
14973WAT     H145161   5.479   0.228   7.306
14973WAT     H245162   5.557   0.219   7.163
14974WAT      O45163   9.399   7.128   4.783
14974WAT     H145164   9.364   7.204   4.839
14974WAT     H245165   9.323   7.074   4.749
14975WAT      O45166   5.969   8.484   7.311
14975WAT     H145167   6.067   8.475   7.329
14975WAT     H245168   5.942   8.417   7.241
14976WAT      O45169   2.441   9.778   9.068
14976WAT     H145170   2.386   9.750   9.146
14976WAT     H245171   2.405   9.863   9.030
14977WAT      O45172   2.456   9.639   2.806
14977WAT     H145173   2.360   9.628   2.781
14977WAT     H245174   2.470   9.730   2.845
14978WAT      O45175   5.566   6.420   3.123
14978WAT     H145176   5.626   6.433   3.043
14978WAT     H245177   5.551   6.323   3.137
14979WAT      O45178   5.667   1.108   1.395
14979WAT     H145179   5.716   1.024   1.372
14979WAT     H245180   5.573   1.102   1.361
14980WAT      O45181   3.424   4.251   2.770
14980WAT     H145182   3.435   4.325   2.704
14980WAT     H245183   3.453   4.165   2.728
14981WAT      O45184   2.187   5.263   5.919
14981WAT     H145185   2.242   5.338   5.956
14981WAT     H245186   2.091   5.278   5.941
14982WAT      O45187   4.239   5.460   5.773
14982WAT     H145188   4.193   5.393   5.714
14982WAT     H245189   4.191   5.547   5.768
14983WAT      O45190   6.444   0.438   1.606
14983WAT     H145191   6.485   0.488   1.529
14983WAT     H245192   6.358   0.482   1.633
14984WAT      O45193   7.007   3.515   9.386
14984WAT     H145194   7.097   3.539   9.422
14984WAT     H245195   7.012   3.426   9.341
14985WAT      O45196   7.458   6.528   3.602
14985WAT     H145197   7.361   6.550   3.611
14985WAT     H245198   7.479   6.509   3.506
14986WAT      O45199   3.645   0.823   4.339
14986WAT     H145200   3.659   0.746   4.277
14986WAT     H245201   3.550   0.854   4.333
14987WAT      O45202   9.882   4.756   5.582
14987WAT     H145203   9.914   4.767   5.488
14987WAT     H245204   9.824   4.676   5.589
14988WAT      O45205   4.567   8.346   1.631
14988WAT     H145206   4.658   8.382   1.649
14988WAT     H245207   4.563   8.249   1.655
14989WAT      O45208   5.837   8.093   9.000
14989WAT     H145209   5.805   8.061   8.911
14989WAT     H245210   5.762   8.086   9.066
14990WAT      O45211   5.126   2.805   9.081
14990WAT     H145212   5.124   2.759   9.170
14990WAT     H245213   5.035   2.805   9.041
14991WAT      O45214   2.243   2.642   2.662
14991WAT     H145215   2.221   2.550   2.629
14991WAT     H245216   2.218   2.709   2.592
14992WAT      O45217   4.160   7.356   0.628
14992WAT     H145218   4.236   7.354   0.562
14992WAT     H245219   4.081   7.311   0.587
14993WAT      O45220   8.201   9.253   8.306
14993WAT     H145221   8.144   9.201   8.242
14993WAT     H245222   8.290   9.271   8.264
14994WAT      O45223   5.344   1.894   8.168
14994WAT     H145224   5.399   1.813   8.146
14994WAT     H245225   5.359   1.964   8.098
14995WAT      O45226   3.008   5.395   9.274
14995WAT     H145227   2.923   5.445   9.252
14995WAT     H245228   3.023   5.323   9.206
14996WAT      O45229   4.186   0.121   3.792
14996WAT     H145230   4.091   0.090   3.791
14996WAT     H245231   4.247   0.041   3.791
14997WAT      O45232   8.048   1.468   6.031
14997WAT     H145233   8.090   1.540   5.976
14997WAT     H245234   8.084   1.471   6.124
14998WAT      O45235   1.529   0.644   8.622
14998WAT     H145236   1.499   0.620   8.714
14998WAT     H245237   1.545   0.561   8.569
14999WAT      O45238   2.365   6.862   9.707
14999WAT     H145239   2.298   6.830   9.639
14999WAT     H245240   2.372   6.794   9.781
15000WAT      O45241   2.069   4.794   5.078
15000WAT     H145242   1.993   4.732   5.061
15000WAT     H245243   2.106   4.779   5.169
15001WAT      O45244   5.239   2.580   8.380
15001WAT     H145245   5.257   2.497   8.432
15001WAT     H245246   5.254   2.563   8.283
15002WAT      O45247   6.698   7.967   5.566
15002WAT     H145248   6.754   7.994   5.488
15002WAT     H245249   6.711   7.870   5.585
15003WAT      O45250   1.647   5.986   2.476
15003WAT     H145251   1.633   6.071   2.527
15003WAT     H245252   1.582   5.917   2.509
15004WAT      O45253   8.670   6.473   6.462
15004WAT     H145254   8.600   6.440   6.399
15004WAT     H245255   8.717   6.395   6.505
15005WAT      O45256   7.059   6.226   4.957
15005WAT     H145257   7.125   6.189   5.022
15005WAT     H245258   6.985   6.272   5.007
15006WAT      O45259   6.003   0.984   1.514
15006WAT     H145260   5.958   0.957   1.599
15006WAT     H245261   5.961   0.936   1.437
15007WAT      O45262   1.804   0.447   4.748
15007WAT     H145263   1.761   0.369   4.793
15007WAT     H245264   1.852   0.417   4.666
15008WAT      O45265   2.121   2.017   7.599
15008WAT     H145266   2.097   2.083   7.670
15008WAT     H245267   2.108   2.058   7.509
15009WAT      O45268   8.760   4.286   8.463
15009WAT     H145269   8.760   4.311   8.560
15009WAT     H245270   8.732   4.365   8.408
15010WAT      O45271   5.606   9.714   3.714
15010WAT     H145272   5.689   9.754   3.752
15010WAT     H245273   5.560   9.660   3.784
15011WAT      O45274   4.146   4.942   5.134
15011WAT     H145275   4.172   4.846   5.127
15011WAT     H245276   4.155   4.986   5.045
15012WAT      O45277   0.957   0.040   5.699
15012WAT     H145278   1.016   0.099   5.753
15012WAT     H245279   1.002  -0.048   5.683
15013WAT      O45280   1.900   2.129   1.580
15013WAT     H145281   1.863   2.184   1.505
15013WAT     H245282   1.954   2.187   1.641
15014WAT      O45283   7.020   1.061   3.608
15014WAT     H145284   6.948   1.067   3.539
15014WAT     H245285   7.057   0.968   3.609
15015WAT      O45286   2.889   0.620   6.193
15015WAT     H145287   2.867   0.558   6.118
15015WAT     H245288   2.887   0.569   6.279
15016WAT      O45289   5.983   6.328   5.303
15016WAT     H145290   6.040   6.371   5.233
15016WAT     H245291   5.994   6.229   5.298
15017WAT      O45292   9.580   5.533   3.843
15017WAT     H145293   9.590   5.567   3.937
15017WAT     H245294   9.581   5.610   3.779
15018WAT      O45295   1.158   8.424   3.454
15018WAT     H145296   1.225   8.425   3.379
15018WAT     H245297   1.155   8.333   3.494
15019WAT      O45298   9.042   1.008   6.768
15019WAT     H145299   9.135   1.002   6.804
15019WAT     H245300   9.020   1.103   6.748
15020WAT      O45301   7.553   4.084   4.708
15020WAT     H145302   7.467   4.134   4.700
15020WAT     H245303   7.536   3.993   4.747
15021WAT      O45304   8.194   3.666   8.297
15021WAT     H145305   8.140   3.741   8.334
15021WAT     H245306   8.288   3.696   8.281
15022WAT      O45307   0.995   0.034   9.543
15022WAT     H145308   0.945  -0.036   9.492
15022WAT     H245309   1.034  -0.007   9.625
15023WAT      O45310   4.526   2.341   8.953
15023WAT     H145311   4.605   2.376   8.903
15023WAT     H245312   4.529   2.372   9.048
15024WAT      O45313   2.980   3.454   5.750
15024WAT     H145314   2.999   3.524   5.818
15024WAT     H245315   2.988   3.363   5.792
15025WAT      O45316   1.891   1.584   3.259
15025WAT     H145317   1.945   1.499   3.254
15025WAT     H245318   1.952   1.661   3.277
15026WAT      O45319   4.646   6.901   4.388
15026WAT     H145320   4.715   6.868   4.452
15026WAT     H245321   4.582   6.962   4.435
15027WAT      O45322   7.743   7.369   1.740
15027WAT     H145323   7.787   7.457   1.760
15027WAT     H245324   7.780   7.299   1.800
15028WAT      O45325   2.361   7.740   8.060
15028WAT     H145326   2.433   7.731   8.129
15028WAT     H245327   2.348   7.837   8.039
15029WAT      O45328   6.170   5.579   6.376
15029WAT     H145329   6.217   5.624   6.452
15029WAT     H245330   6.112   5.505   6.412
15030WAT      O45331   2.492   3.301   0.869
15030WAT     H145332   2.509   3.263   0.960
15030WAT     H245333   2.578   3.306   0.819
15031WAT      O45334   9.892   6.254   8.711
15031WAT     H145335   9.794   6.236   8.703
15031WAT     H245336   9.910   6.349   8.685
15032WAT      O45337   0.133   5.541   9.414
15032WAT     H145338   0.061   5.608   9.393
15032WAT     H245339   0.220   5.588   9.428
15033WAT      O45340   6.262   5.972   0.345
15033WAT     H145341   6.203   5.891   0.346
15033WAT     H245342   6.329   5.962   0.271
15034WAT      O45343   0.465   5.230   2.135
15034WAT     H145344   0.443   5.166   2.062
15034WAT     H245345   0.503   5.180   2.213
15035WAT      O45346   2.592   4.970   4.562
15035WAT     H145347   2.535   5.043   4.599
15035WAT     H245348   2.535   4.905   4.511
15036WAT      O45349   6.962   4.169   8.712
15036WAT     H145350   6.902   4.089   8.701
15036WAT     H245351   7.000   4.194   8.623
15037WAT      O45352   9.773   0.980   3.585
15037WAT     H145353   9.779   0.989   3.685
15037WAT     H245354   9.737   0.889   3.562
15038WAT      O45355   4.040   4.313   6.779
15038WAT     H145356   4.026   4.401   6.735
15038WAT     H245357   4.059   4.243   6.710
15039WAT      O45358   2.428   3.792   2.400
15039WAT     H145359   2.459   3.720   2.463
15039WAT     H245360   2.451   3.881   2.438
15040WAT      O45361   0.782   4.369   3.880
15040WAT     H145362   0.729   4.431   3.938
15040WAT     H245363   0.822   4.297   3.937
15041WAT      O45364   3.641   5.852   1.169
15041WAT     H145365   3.586   5.842   1.252
15041WAT     H245366   3.590   5.818   1.090
15042WAT      O45367   5.482   8.857   2.729
15042WAT     H145368   5.481   8.952   2.762
15042WAT     H245369   5.504   8.856   2.632
15043WAT      O45370   3.140   3.194   0.802
15043WAT     H145371   3.219   3.201   0.863
15043WAT     H245372   3.081   3.119   0.833
15044WAT      O45373   2.827   4.376   7.511
15044WAT     H145374   2.776   4.427   7.580
15044WAT     H245375   2.893   4.437   7.467
15045WAT      O45376   9.679   8.801   4.965
15045WAT     H145377   9.618   8.786   4.888
15045WAT     H245378   9.743   8.874   4.944
15046WAT      O45379   8.717   3.463   2.227
15046WAT     H145380   8.691   3.532   2.295
15046WAT     H245381   8.660   3.381   2.240
15047WAT      O45382   4.868   9.265   2.047
15047WAT     H145383   4.784   9.257   2.101
15047WAT     H245384   4.945   9.230   2.101
15048WAT      O45385   7.748   1.440   8.377
15048WAT     H145386   7.736   1.357   8.432
15048WAT     H245387   7.841   1.474   8.389
15049WAT      O45388   9.737   4.533   4.885
15049WAT     H145389   9.648   4.577   4.890
15049WAT     H245390   9.725   4.436   4.861
15050WAT      O45391   7.043   3.162   6.069
15050WAT     H145392   7.112   3.093   6.046
15050WAT     H245393   7.084   3.253   6.062
15051WAT      O45394   8.019   3.024   7.514
15051WAT     H145395   7.962   3.039   7.595
15051WAT     H245396   8.112   3.057   7.532
15052WAT      O45397   2.649   5.064   6.964
15052WAT     H145398   2.632   4.973   7.002
15052WAT     H245399   2.579   5.128   6.997
15053WAT      O45400   0.829   7.764   0.334
15053WAT     H145401   0.924   7.740   0.353
15053WAT     H245402   0.777   7.682   0.310
15054WAT      O45403   2.023   9.759   7.828
15054WAT     H145404   2.110   9.724   7.862
15054WAT     H245405   1.993   9.704   7.750
15055WAT      O45406   3.242   6.420   6.559
15055WAT     H145407   3.298   6.450   6.636
15055WAT     H245408   3.237   6.320   6.558
15056WAT      O45409   6.707   5.568   0.638
15056WAT     H145410   6.694   5.469   0.631
15056WAT     H245411   6.654   5.614   0.567
15057WAT      O45412   6.889   3.835   5.239
15057WAT     H145413   6.856   3.743   5.259
15057WAT     H245414   6.977   3.850   5.285
15058WAT      O45415   2.690   7.746   0.638
15058WAT     H145416   2.667   7.813   0.568
15058WAT     H245417   2.776   7.772   0.682
15059WAT      O45418   5.351   6.105   6.950
15059WAT     H145419   5.339   6.008   6.930
15059WAT     H245420   5.394   6.151   6.872
15060WAT      O45421   3.636   9.616   2.261
15060WAT     H145422   3.663   9.612   2.357
15060WAT     H245423   3.709   9.577   2.204
15061WAT      O45424   8.297   4.713   1.700
15061WAT     H145425   8.266   4.712   1.795
15061WAT     H245426   8.394   4.738   1.697
15062WAT      O45427   4.539   1.508   9.657
15062WAT     H145428   4.460   1.569   9.646
15062WAT     H245429   4.623   1.557   9.634
15063WAT      O45430   7.831   2.996   9.064
15063WAT     H145431   7.763   3.046   9.118
15063WAT     H245432   7.898   3.061   9.027
15064WAT      O45433   0.512   6.703   4.378
15064WAT     H145434   0.419   6.681   4.407
15064WAT     H245435   0.511   6.733   4.283
15065WAT      O45436   0.368   2.822   3.286
15065WAT     H145437   0.417   2.811   3.200
15065WAT     H245438   0.433   2.826   3.362
15066WAT      O45439   0.831   9.182   7.305
15066WAT     H145440   0.746   9.143   7.270
15066WAT     H245441   0.904   9.171   7.237
15067WAT      O45442   8.597   9.742   7.143
15067WAT     H145443   8.655   9.662   7.131
15067WAT     H245444   8.599   9.771   7.239
15068WAT      O45445   5.291   2.332   8.834
15068WAT     H145446   5.304   2.240   8.798
15068WAT     H245447   5.253   2.327   8.927
15069WAT      O45448   6.976   0.191   8.153
15069WAT     H145449   7.057   0.243   8.127
15069WAT     H245450   6.896   0.251   8.154
15070WAT      O45451   7.545   1.495   6.621
15070WAT     H145452   7.569   1.592   6.627
15070WAT     H245453   7.571   1.449   6.706
15071WAT      O45454   2.189   5.219   4.039
15071WAT     H145455   2.137   5.149   3.991
15071WAT     H245456   2.188   5.200   4.137
15072WAT      O45457   3.971   5.867   7.641
15072WAT     H145458   4.039   5.840   7.573
15072WAT     H245459   3.910   5.935   7.601
15073WAT      O45460   3.119   8.406   8.448
15073WAT     H145461   3.183   8.482   8.434
15073WAT     H245462   3.076   8.382   8.361
15074WAT      O45463   4.521   8.042   0.337
15074WAT     H145464   4.599   8.031   0.399
15074WAT     H245465   4.447   8.089   0.386
15075WAT      O45466   7.780   3.900   3.005
15075WAT     H145467   7.693   3.943   3.030
15075WAT     H245468   7.784   3.808   3.043
15076WAT      O45469   0.381   8.230   4.990
15076WAT     H145470   0.300   8.242   4.934
15076WAT     H245471   0.442   8.308   4.977
15077WAT      O45472   9.637   2.615   4.834
15077WAT     H145473   9.659   2.617   4.736
15077WAT     H245474   9.620   2.708   4.866
15078WAT      O45475   0.612   3.072   5.194
15078WAT     H145476   0.644   3.036   5.282
15078WAT     H245477   0.513   3.062   5.188
15079WAT      O45478   5.732   6.123   1.207
15079WAT     H145479   5.713   6.062   1.283
15079WAT     H245480   5.684   6.090   1.125
15080WAT      O45481   3.843   7.405   7.113
15080WAT     H145482   3.751   7.378   7.142
15080WAT     H245483   3.861   7.371   7.021
15081WAT      O45484   2.251   5.561   8.209
15081WAT     H145485   2.247   5.490   8.139
15081WAT     H245486   2.280   5.647   8.168
15082WAT      O45487   9.016   4.121   9.105
15082WAT     H145488   8.985   4.199   9.160
15082WAT     H245489   8.950   4.046   9.114
15083WAT      O45490   9.524   2.330   4.325
15083WAT     H145491   9.460   2.393   4.280
15083WAT     H245492   9.487   2.301   4.412
15084WAT      O45493   2.669   0.048   3.016
15084WAT     H145494   2.728   0.012   3.089
15084WAT     H245495   2.713   0.032   2.927
15085WAT      O45496   0.619   4.109   2.023
15085WAT     H145497   0.714   4.137   2.036
15085WAT     H245498   0.561   4.190   2.016
15086WAT      O45499   6.243   1.606   7.102
15086WAT     H145500   6.334   1.565   7.108
15086WAT     H245501   6.216   1.612   7.006
15087WAT      O45502   6.241   2.725   5.629
15087WAT     H145503   6.152   2.771   5.633
15087WAT     H245504   6.227   2.626   5.632
15088WAT      O45505   8.713   7.022   3.609
15088WAT     H145506   8.752   7.114   3.606
15088WAT     H245507   8.626   7.025   3.659
15089WAT      O45508   5.090   6.626   6.597
15089WAT     H145509   5.111   6.529   6.602
15089WAT     H245510   5.164   6.673   6.547
15090WAT      O45511   8.660   8.183   4.931
15090WAT     H145512   8.611   8.160   5.016
15090WAT     H245513   8.595   8.213   4.862
15091WAT      O45514   8.872   1.461   4.154
15091WAT     H145515   8.948   1.459   4.090
15091WAT     H245516   8.843   1.367   4.174
15092WAT      O45517   3.540   5.320   5.231
15092WAT     H145518   3.503   5.282   5.316
15092WAT     H245519   3.580   5.246   5.177
15093WAT      O45520   3.494   4.996   8.228
15093WAT     H145521   3.402   4.959   8.213
15093WAT     H245522   3.517   5.059   8.154
15094WAT      O45523   0.466   7.601   9.062
15094WAT     H145524   0.541   7.666   9.051
15094WAT     H245525   0.400   7.637   9.128
15095WAT      O45526   4.823   4.117   8.297
15095WAT     H145527   4.915   4.084   8.275
15095WAT     H245528   4.759   4.040   8.293
15096WAT      O45529   3.554   9.469   0.162
15096WAT     H145530   3.618   9.392   0.170
15096WAT     H245531   3.523   9.496   0.253
15097WAT      O45532   1.649   7.378   3.757
15097WAT     H145533   1.573   7.386   3.821
15097WAT     H245534   1.618   7.335   3.673
15098WAT      O45535   3.984   2.718   2.772
15098WAT     H145536   3.986   2.634   2.827
15098WAT     H245537   4.059   2.716   2.707
15099WAT      O45538   9.426   0.827   1.320
15099WAT     H145539   9.455   0.886   1.396
15099WAT     H245540   9.493   0.833   1.246
15100WAT      O45541   9.182   2.151   1.550
15100WAT     H145542   9.262   2.151   1.489
15100WAT     H245543   9.193   2.080   1.619
15101WAT      O45544   6.124   2.561   7.792
15101WAT     H145545   6.136   2.472   7.747
15101WAT     H245546   6.163   2.633   7.734
15102WAT      O45547   3.081   5.948   3.453
15102WAT     H145548   3.071   5.940   3.553
15102WAT     H245549   3.030   6.027   3.421
15103WAT      O45550   0.844   8.215   0.055
15103WAT     H145551   0.768   8.239   0.116
15103WAT     H245552   0.867   8.119   0.067
15104WAT      O45553   1.298   8.413   3.231
15104WAT     H145554   1.340   8.339   3.179
15104WAT     H245555   1.321   8.501   3.190
15105WAT      O45556   7.875   3.934   0.555
15105WAT     H145557   7.956   3.890   0.517
15105WAT     H245558   7.891   4.033   0.564
15106WAT      O45559   2.938   8.899   4.144
15106WAT     H145560   2.901   8.812   4.112
15106WAT     H245561   2.932   8.903   4.244
15107WAT      O45562   7.402   5.090   0.684
15107WAT     H145563   7.459   5.110   0.764
15107WAT     H245564   7.308   5.119   0.702
15108WAT      O45565   9.449   4.258   1.435
15108WAT     H145566   9.534   4.251   1.382
15108WAT     H245567   9.372   4.259   1.372
15109WAT      O45568   5.829   6.932   3.887
15109WAT     H145569   5.842   7.012   3.946
15109WAT     H245570   5.890   6.858   3.917
15110WAT      O45571   0.347   7.906   9.510
15110WAT     H145572   0.255   7.893   9.548
15110WAT     H245573   0.344   7.977   9.440
15111WAT      O45574   3.725   2.662   3.942
15111WAT     H145575   3.676   2.744   3.911
15111WAT     H245576   3.730   2.596   3.866
15112WAT      O45577   5.297   3.615   5.768
15112WAT     H145578   5.236   3.694   5.765
15112WAT     H245579   5.384   3.642   5.810
15113WAT      O45580   6.521   7.755   2.647
15113WAT     H145581   6.573   7.827   2.602
15113WAT     H245582   6.574   7.718   2.723
15114WAT      O45583   6.987   8.308   3.971
15114WAT     H145584   6.895   8.314   3.931
15114WAT     H245585   7.049   8.264   3.907
15115WAT      O45586   3.781   0.894   1.046
15115WAT     H145587   3.744   0.896   0.954
15115WAT     H245588   3.879   0.916   1.043
15116WAT      O45589   1.109   1.662   1.228
15116WAT     H145590   1.085   1.759   1.239
15116WAT     H245591   1.154   1.648   1.140
15117WAT      O45592   8.581   6.103   1.554
15117WAT     H145593   8.516   6.140   1.620
15117WAT     H245594   8.552   6.012   1.524
15118WAT      O45595   9.787   1.117   7.291
15118WAT     H145596   9.834   1.192   7.338
15118WAT     H245597   9.795   1.130   7.192
15119WAT      O45598   2.612   5.643   0.510
15119WAT     H145599   2.704   5.607   0.490
15119WAT     H245600   2.544   5.586   0.465
15120WAT      O45601   4.927   7.143   0.647
15120WAT     H145602   4.852   7.209   0.645
15120WAT     H245603   4.898   7.060   0.693
15121WAT      O45604   8.544   8.761   0.880
15121WAT     H145605   8.599   8.745   0.962
15121WAT     H245606   8.491   8.678   0.859
15122WAT      O45607   1.549   1.218   4.370
15122WAT     H145608   1.562   1.119   4.368
15122WAT     H245609   1.628   1.263   4.328
15123WAT      O45610   6.953   1.703   6.862
15123WAT     H145611   6.854   1.716   6.852
15123WAT     H245612   6.987   1.765   6.933
15124WAT      O45613   9.681   0.267   4.475
15124WAT     H145614   9.689   0.366   4.475
15124WAT     H245615   9.771   0.226   4.492
15125WAT      O45616   7.438   7.046   9.190
15125WAT     H145617   7.362   7.013   9.246
15125WAT     H245618   7.523   7.041   9.242
15126WAT      O45619   0.841   0.934   2.272
15126WAT     H145620   0.808   0.957   2.364
15126WAT     H245621   0.884   1.014   2.231
15127WAT      O45622   5.137   7.375   8.363
15127WAT     H145623   5.140   7.468   8.401
15127WAT     H245624   5.065   7.370   8.293
15128WAT      O45625   8.376   2.004   4.761
15128WAT     H145626   8.300   1.980   4.701
15128WAT     H245627   8.345   2.005   4.856
15129WAT      O45628   2.885   1.901   6.035
15129WAT     H145629   2.894   1.973   6.104
15129WAT     H245630   2.925   1.933   5.949
15130WAT      O45631   9.578   5.888   9.356
15130WAT     H145632   9.669   5.864   9.390
15130WAT     H245633   9.509   5.859   9.423
15131WAT      O45634   1.237   0.081   6.842
15131WAT     H145635   1.319   0.137   6.857
15131WAT     H245636   1.225   0.067   6.743
15132WAT      O45637   6.601   1.902   7.991
15132WAT     H145638   6.682   1.932   7.940
15132WAT     H245639   6.628   1.832   8.057
15133WAT      O45640   9.766   4.983   9.018
15133WAT     H145641   9.710   4.953   8.941
15133WAT     H245642   9.775   5.082   9.016
15134WAT      O45643   4.139   6.817   1.248
15134WAT     H145644   4.062   6.882   1.247
15134WAT     H245645   4.193   6.828   1.165
15135WAT      O45646   4.159   0.720   1.484
15135WAT     H145647   4.223   0.732   1.560
15135WAT     H245648   4.198   0.761   1.401
15136WAT      O45649   8.442   8.011   5.906
15136WAT     H145650   8.462   7.927   5.957
15136WAT     H245651   8.527   8.059   5.884
15137WAT      O45652   2.382   7.748   1.832
15137WAT     H145653   2.480   7.763   1.839
15137WAT     H245654   2.363   7.650   1.836
15138WAT      O45655   5.135   4.066   4.674
15138WAT     H145656   5.057   4.003   4.670
15138WAT     H245657   5.105   4.154   4.711
15139WAT      O45658   1.451   1.997   1.730
15139WAT     H145659   1.489   1.908   1.706
15139WAT     H245660   1.458   2.011   1.829
15140WAT      O45661   2.530   1.090   3.903
15140WAT     H145662   2.436   1.099   3.870
15140WAT     H245663   2.594   1.098   3.827
15141WAT      O45664   4.849   5.720   4.906
15141WAT     H145665   4.933   5.731   4.853
15141WAT     H245666   4.772   5.705   4.844
15142WAT      O45667   6.076   6.037   0.975
15142WAT     H145668   6.166   6.053   0.934
15142WAT     H245669   6.007   6.088   0.924
15143WAT      O45670   9.212   7.481   4.063
15143WAT     H145671   9.118   7.504   4.035
15143WAT     H245672   9.268   7.564   4.062
15144WAT      O45673   6.180   9.040   3.907
15144WAT     H145674   6.093   9.037   3.955
15144WAT     H245675   6.215   8.947   3.895
15145WAT      O45676   8.968   9.105   5.177
15145WAT     H145677   8.874   9.083   5.153
15145WAT     H245678   8.982   9.204   5.171
15146WAT      O45679   7.948   8.242   5.766
15146WAT     H145680   8.043   8.223   5.739
15146WAT     H245681   7.924   8.336   5.741
15147WAT      O45682   8.646   4.226   1.160
15147WAT     H145683   8.696   4.189   1.082
15147WAT     H245684   8.710   4.265   1.226
15148WAT      O45685   5.220   2.819   8.089
15148WAT     H145686   5.233   2.725   8.118
15148WAT     H245687   5.179   2.872   8.163
15149WAT      O45688   1.245   1.863   9.458
15149WAT     H145689   1.315   1.835   9.524
15149WAT     H245690   1.191   1.938   9.496
15150WAT      O45691   6.885   0.017   8.976
15150WAT     H145692   6.887  -0.071   8.928
15150WAT     H245693   6.915   0.005   9.070
15151WAT      O45694   3.575   5.186   2.677
15151WAT     H145695   3.644   5.136   2.729
15151WAT     H245696   3.587   5.284   2.692
15152WAT      O45697   6.993   8.636   3.251
15152WAT     H145698   7.005   8.635   3.350
15152WAT     H245699   6.931   8.562   3.225
15153WAT      O45700   1.528   8.677   7.478
15153WAT     H145701   1.532   8.772   7.507
15153WAT     H245702   1.479   8.670   7.391
15154WAT      O45703   7.036   4.371   6.906
15154WAT     H145704   6.994   4.363   6.816
15154WAT     H245705   7.007   4.293   6.963
15155WAT      O45706   9.397   4.251   6.110
15155WAT     H145707   9.384   4.166   6.161
15155WAT     H245708   9.486   4.292   6.135
15156WAT      O45709   8.030   1.642   0.824
15156WAT     H145710   7.957   1.630   0.891
15156WAT     H245711   8.036   1.561   0.765
15157WAT      O45712   1.048   7.823   3.005
15157WAT     H145713   1.022   7.878   2.925
15157WAT     H245714   0.985   7.843   3.080
15158WAT      O45715   5.258   3.003   2.045
15158WAT     H145716   5.270   2.910   2.008
15158WAT     H245717   5.341   3.030   2.094
15159WAT      O45718   3.645   7.739   4.100
15159WAT     H145719   3.545   7.744   4.091
15159WAT     H245720   3.676   7.646   4.083
15160WAT      O45721   2.221   8.953   8.909
15160WAT     H145722   2.139   8.920   8.862
15160WAT     H245723   2.229   9.052   8.899
15161WAT      O45724   9.334   8.774   6.040
15161WAT     H145725   9.315   8.871   6.026
15161WAT     H245726   9.432   8.761   6.056
15162WAT      O45727   4.481   6.541   2.794
15162WAT     H145728   4.496   6.520   2.698
15162WAT     H245729   4.490   6.457   2.848
15163WAT      O45730   1.295   5.383   6.170
15163WAT     H145731   1.233   5.389   6.091
15163WAT     H245732   1.380   5.337   6.142
15164WAT      O45733   5.868   9.748   7.865
15164WAT     H145734   5.900   9.715   7.776
15164WAT     H245735   5.923   9.826   7.893
15165WAT      O45736   0.215   9.381   1.610
15165WAT     H145737   0.212   9.410   1.706
15165WAT     H245738   0.243   9.285   1.606
15166WAT      O45739   1.535   8.257   7.243
15166WAT     H145740   1.482   8.252   7.328
15166WAT     H245741   1.531   8.169   7.196
15167WAT      O45742   5.720   5.622   1.185
15167WAT     H145743   5.786   5.679   1.136
15167WAT     H245744   5.703   5.662   1.275
15168WAT      O45745   2.504   8.923   6.538
15168WAT     H145746   2.547   9.012   6.524
15168WAT     H245747   2.430   8.911   6.472
15169WAT      O45748   2.404   2.551   0.287
15169WAT     H145749   2.305   2.555   0.276
15169WAT     H245750   2.427   2.542   0.384
15170WAT      O45751   1.793   4.126   1.621
15170WAT     H145752   1.700   4.146   1.589
15170WAT     H245753   1.808   4.169   1.710
15171WAT      O45754   3.853   5.104   3.550
15171WAT     H145755   3.898   5.044   3.616
15171WAT     H245756   3.884   5.081   3.458
15172WAT      O45757   0.590   0.304   3.231
15172WAT     H145758   0.520   0.236   3.251
15172WAT     H245759   0.574   0.387   3.285
15173WAT      O45760   3.795   5.415   0.091
15173WAT     H145761   3.787   5.375   0.182
15173WAT     H245762   3.803   5.514   0.099
15174WAT      O45763   5.359   4.017   2.883
15174WAT     H145764   5.358   4.019   2.783
15174WAT     H245765   5.451   3.994   2.915
15175WAT      O45766   4.479   6.306   8.997
15175WAT     H145767   4.512   6.257   9.078
15175WAT     H245768   4.517   6.264   8.915
15176WAT      O45769   3.004   8.345   9.593
15176WAT     H145770   2.912   8.308   9.607
15176WAT     H245771   3.053   8.290   9.527
15177WAT      O45772   1.189   1.125   2.244
15177WAT     H145773   1.187   1.050   2.178
15177WAT     H245774   1.194   1.088   2.336
15178WAT      O45775   7.314   6.919   8.220
15178WAT     H145776   7.299   6.909   8.121
15178WAT     H245777   7.226   6.925   8.266
15179WAT      O45778   7.306   5.745   2.077
15179WAT     H145779   7.355   5.692   2.008
15179WAT     H245780   7.360   5.825   2.102
15180WAT      O45781   7.946   6.399   4.777
15180WAT     H145782   8.045   6.385   4.777
15180WAT     H245783   7.923   6.477   4.835
15181WAT      O45784   6.605   4.887   1.369
15181WAT     H145785   6.689   4.941   1.363
15181WAT     H245786   6.600   4.843   1.458
15182WAT      O45787   6.155   9.064   8.947
15182WAT     H145788   6.136   9.146   9.002
15182WAT     H245789   6.069   9.021   8.921
15183WAT      O45790   7.925   1.257   1.846
15183WAT     H145791   7.936   1.353   1.870
15183WAT     H245792   7.882   1.208   1.921
15184WAT      O45793   8.511   3.043   6.611
15184WAT     H145794   8.526   3.088   6.523
15184WAT     H245795   8.421   3.000   6.611
15185WAT      O45796   2.238   7.434   6.330
15185WAT     H145797   2.189   7.372   6.392
15185WAT     H245798   2.294   7.381   6.267
15186WAT      O45799   4.141   9.645   1.087
15186WAT     H145800   4.148   9.580   1.162
15186WAT     H245801   4.192   9.728   1.109
15187WAT      O45802   3.139   2.753   0.696
15187WAT     H145803   3.137   2.654   0.681
15187WAT     H245804   3.173   2.799   0.613
15188WAT      O45805   8.503   8.266   6.128
15188WAT     H145806   8.518   8.325   6.049
15188WAT     H245807   8.577   8.279   6.194
15189WAT      O45808   3.426   0.456   3.191
15189WAT     H145809   3.506   0.511   3.218
15189WAT     H245810   3.452   0.391   3.120
15190WAT      O45811   4.413   4.838   4.206
15190WAT     H145812   4.400   4.887   4.291
15190WAT     H245813   4.471   4.758   4.222
15191WAT      O45814   8.988   3.178   5.015
15191WAT     H145815   8.960   3.110   4.947
15191WAT     H245816   9.083   3.162   5.040
15192WAT      O45817   0.691   2.545   5.752
15192WAT     H145818   0.755   2.580   5.820
15192WAT     H245819   0.602   2.589   5.764
15193WAT      O45820   0.993   8.014   2.825
15193WAT     H145821   0.905   8.060   2.817
15193WAT     H245822   1.067   8.079   2.809
15194WAT      O45823   6.725   6.089   4.789
15194WAT     H145824   6.676   6.149   4.725
15194WAT     H245825   6.703   5.994   4.768
15195WAT      O45826   5.462   9.171   9.248
15195WAT     H145827   5.510   9.259   9.252
15195WAT     H245828   5.409   9.158   9.332
15196WAT      O45829   3.404   6.645   9.677
15196WAT     H145830   3.361   6.557   9.698
15196WAT     H245831   3.475   6.631   9.607
15197WAT      O45832   5.553   3.554   4.632
15197WAT     H145833   5.524   3.649   4.625
15197WAT     H245834   5.485   3.502   4.683
15198WAT      O45835   0.772   0.981   9.188
15198WAT     H145836   0.673   0.972   9.174
15198WAT     H245837   0.810   1.045   9.121
15199WAT      O45838   1.114   9.506   7.389
15199WAT     H145839   1.016   9.488   7.397
15199WAT     H245840   1.152   9.525   7.480
15200WAT      O45841   6.882   1.441   0.259
15200WAT     H145842   6.806   1.505   0.273
15200WAT     H245843   6.853   1.349   0.287
15201WAT      O45844   2.924   4.745   7.470
15201WAT     H145845   2.845   4.736   7.531
15201WAT     H245846   2.912   4.826   7.412
15202WAT      O45847   2.701   9.603   7.279
15202WAT     H145848   2.676   9.582   7.373
15202WAT     H245849   2.647   9.546   7.216
15203WAT      O45850   9.592   5.390   0.408
15203WAT     H145851   9.590   5.291   0.421
15203WAT     H245852   9.577   5.412   0.311
15204WAT      O45853   5.731   8.604   3.420
15204WAT     H145854   5.631   8.606   3.421
15204WAT     H245855   5.766   8.687   3.377
15205WAT      O45856   2.241   3.882   3.919
15205WAT     H145857   2.319   3.835   3.876
15205WAT     H245858   2.245   3.979   3.897
15206WAT      O45859   3.868   3.330   6.553
15206WAT     H145860   3.899   3.405   6.494
15206WAT     H245861   3.915   3.246   6.526
15207WAT      O45862   7.046   4.634   8.259
15207WAT     H145863   7.039   4.559   8.193
15207WAT     H245864   6.960   4.685   8.261
15208WAT      O45865   7.821   6.555   7.986
15208WAT     H145866   7.822   6.586   7.891
15208WAT     H245867   7.769   6.470   7.994
15209WAT      O45868   0.675   3.170   7.211
15209WAT     H145869   0.651   3.267   7.209
15209WAT     H245870   0.762   3.156   7.164
15210WAT      O45871   7.979   6.468   9.033
15210WAT     H145872   8.002   6.507   9.122
15210WAT     H245873   8.054   6.409   9.002
15211WAT      O45874   4.419   2.404   4.131
15211WAT     H145875   4.436   2.350   4.048
15211WAT     H245876   4.481   2.482   4.132
15212WAT      O45877   4.616   8.955   0.099
15212WAT     H145878   4.685   8.908   0.044
15212WAT     H245879   4.643   8.952   0.195
15213WAT      O45880   9.231   1.064   1.563
15213WAT     H145881   9.177   1.145   1.541
15213WAT     H245882   9.175   0.982   1.555
15214WAT      O45883   7.346   1.031   4.001
15214WAT     H145884   7.422   1.095   3.994
15214WAT     H245885   7.269   1.064   3.946
15215WAT      O45886   2.604   9.716   4.033
15215WAT     H145887   2.574   9.804   4.068
15215WAT     H245888   2.692   9.691   4.074
15216WAT      O45889   8.258   4.352   2.334
15216WAT     H145890   8.220   4.393   2.417
15216WAT     H245891   8.185   4.310   2.281
15217WAT      O45892   1.195   2.830   1.099
15217WAT     H145893   1.157   2.737   1.102
15217WAT     H245894   1.203   2.866   1.192
15218WAT      O45895   6.899   2.867   6.792
15218WAT     H145896   6.933   2.960   6.809
15218WAT     H245897   6.966   2.801   6.827
15219WAT      O45898   4.651   5.409   5.092
15219WAT     H145899   4.593   5.330   5.111
15219WAT     H245900   4.596   5.481   5.050
15220WAT      O45901   1.042   3.670   7.591
15220WAT     H145902   1.072   3.678   7.496
15220WAT     H245903   0.955   3.620   7.594
15221WAT      O45904   2.706   1.530   5.895
15221WAT     H145905   2.782   1.494   5.841
15221WAT     H245906   2.742   1.589   5.968
15222WAT      O45907   4.910   1.101   5.319
15222WAT     H145908   4.934   1.172   5.385
15222WAT     H245909   4.903   1.141   5.228
15223WAT      O45910   8.627   1.041   4.866
15223WAT     H145911   8.554   1.061   4.932
15223WAT     H245912   8.599   0.965   4.807
15224WAT      O45913   9.708   1.476   7.247
15224WAT     H145914   9.783   1.449   7.307
15224WAT     H245915   9.632   1.511   7.301
15225WAT      O45916   5.393   7.891   8.869
15225WAT     H145917   5.341   7.807   8.853
15225WAT     H245918   5.411   7.937   8.782
15226WAT      O45919   6.843   4.319   5.803
15226WAT     H145920   6.823   4.417   5.802
15226WAT     H245921   6.938   4.303   5.776
15227WAT      O45922   0.565   2.970   0.194
15227WAT     H145923   0.539   2.913   0.116
15227WAT     H245924   0.611   2.914   0.263
15228WAT      O45925   3.235   1.628   2.327
15228WAT     H145926   3.235   1.690   2.248
15228WAT     H245927   3.299   1.662   2.396
15229WAT      O45928   1.907   1.048   3.160
15229WAT     H145929   1.876   1.125   3.215
15229WAT     H245930   1.964   1.081   3.085
15230WAT      O45931   3.516   3.056   1.414
15230WAT     H145932   3.476   3.052   1.323
15230WAT     H245933   3.453   3.016   1.480
15231WAT      O45934   4.105   2.310   0.275
15231WAT     H145935   4.042   2.378   0.314
15231WAT     H245936   4.182   2.357   0.232
15232WAT      O45937   4.627   4.964   4.423
15232WAT     H145938   4.664   5.016   4.500
15232WAT     H245939   4.682   4.982   4.341
15233WAT      O45940   0.845   2.899   7.513
15233WAT     H145941   0.764   2.955   7.498
15233WAT     H245942   0.919   2.956   7.548
15234WAT      O45943   2.064   1.441   5.855
15234WAT     H145944   2.108   1.353   5.874
15234WAT     H245945   1.999   1.430   5.779
15235WAT      O45946   9.352   7.946   0.055
15235WAT     H145947   9.390   7.956  -0.036
15235WAT     H245948   9.363   7.851   0.085
15236WAT      O45949   5.765   6.631   9.081
15236WAT     H145950   5.817   6.590   9.006
15236WAT     H245951   5.779   6.578   9.165
15237WAT      O45952   9.233   5.306   0.788
15237WAT     H145953   9.333   5.306   0.786
15237WAT     H245954   9.199   5.400   0.784
15238WAT      O45955   0.002   9.049   8.238
15238WAT     H145956   0.003   9.014   8.145
15238WAT     H245957   0.057   9.132   8.244
15239WAT      O45958   3.260   3.786   1.963
15239WAT     H145959   3.176   3.833   1.937
15239WAT     H245960   3.272   3.792   2.062
15240WAT      O45961   9.101   5.269   0.356
15240WAT     H145962   9.004   5.268   0.332
15240WAT     H245963   9.118   5.201   0.427
15241WAT      O45964   6.093   5.897   5.487
15241WAT     H145965   6.101   5.799   5.470
15241WAT     H245966   6.108   5.916   5.584
15242WAT      O45967   7.551   2.125   0.001
15242WAT     H145968   7.531   2.195  -0.068
15242WAT     H245969   7.467   2.098   0.046
15243WAT      O45970   7.793   2.216   7.048
15243WAT     H145971   7.710   2.160   7.045
15243WAT     H245972   7.794   2.270   7.132
15244WAT      O45973   7.241   8.912   2.496
15244WAT     H145974   7.177   8.968   2.444
15244WAT     H245975   7.290   8.969   2.562
15245WAT      O45976   1.041   8.228   7.696
15245WAT     H145977   0.967   8.164   7.720
15245WAT     H245978   1.107   8.232   7.771
15246WAT      O45979   3.932   6.758   1.028
15246WAT     H145980   3.953   6.743   1.125
15246WAT     H245981   3.971   6.845   0.998
15247WAT      O45982   6.712   2.521   8.334
15247WAT     H145983   6.759   2.433   8.326
15247WAT     H245984   6.769   2.593   8.295
15248WAT      O45985   8.776   9.248   0.007
15248WAT     H145986   8.763   9.149   0.012
15248WAT     H245987   8.776   9.277  -0.089
15249WAT      O45988   8.188   5.449   4.106
15249WAT     H145989   8.233   5.526   4.060
15249WAT     H245990   8.155   5.384   4.038
15250WAT      O45991   4.927   6.861   0.160
15250WAT     H145992   4.995   6.881   0.230
15250WAT     H245993   4.851   6.924   0.169
15251WAT      O45994   8.574   5.931   0.897
15251WAT     H145995   8.669   5.954   0.877
15251WAT     H245996   8.550   5.960   0.989
15252WAT      O45997   8.954   2.228   8.234
15252WAT     H145998   8.932   2.305   8.293
15252WAT     H245999   8.918   2.144   8.274
15253WAT      O46000   9.351   7.395   8.486
15253WAT     H146001   9.354   7.299   8.459
15253WAT     H246002   9.444   7.431   8.492
15254WAT      O46003   4.761   5.303   0.605
15254WAT     H146004   4.740   5.218   0.654
15254WAT     H246005   4.692   5.319   0.534
15255WAT      O46006   4.001   2.051   4.338
15255WAT     H146007   4.091   2.066   4.381
15255WAT     H246008   4.010   2.058   4.239
15256WAT      O46009   0.102   9.453   2.830
15256WAT     H146010   0.183   9.430   2.777
15256WAT     H246011   0.028   9.480   2.768
15257WAT      O46012   2.891   8.154   5.790
15257WAT     H146013   2.822   8.151   5.718
15257WAT     H246014   2.933   8.245   5.793
15258WAT      O46015   1.218   8.696   6.868
15258WAT     H146016   1.167   8.616   6.900
15258WAT     H246017   1.154   8.770   6.848
15259WAT      O46018   0.206   6.050   0.568
15259WAT     H146019   0.250   5.963   0.543
15259WAT     H246020   0.165   6.091   0.487
15260WAT      O46021   9.089   7.287   0.668
15260WAT     H146022   9.081   7.251   0.761
15260WAT     H246023   9.184   7.278   0.638
15261WAT      O46024   6.032   2.079   5.906
15261WAT     H146025   6.076   2.099   5.994
15261WAT     H246026   6.012   2.164   5.858
15262WAT      O46027   2.972   0.375   0.198
15262WAT     H146028   3.025   0.304   0.150
15262WAT     H246029   2.883   0.384   0.155
15263WAT      O46030   7.135   1.593   3.115
15263WAT     H146031   7.062   1.657   3.137
15263WAT     H246032   7.173   1.615   3.025
15264WAT      O46033   3.174   2.572   5.020
15264WAT     H146034   3.200   2.477   5.037
15264WAT     H246035   3.230   2.609   4.945
15265WAT      O46036   9.842   0.561   1.251
15265WAT     H146037   9.867   0.624   1.178
15265WAT     H246038   9.924   0.534   1.301
15266WAT      O46039   3.326   1.908   4.121
15266WAT     H146040   3.276   1.884   4.038
15266WAT     H246041   3.271   1.887   4.202
15267WAT      O46042   9.379   5.370   4.595
15267WAT     H146043   9.417   5.305   4.661
15267WAT     H246044   9.417   5.351   4.504
15268WAT      O46045   3.404   6.935   1.436
15268WAT     H146046   3.454   6.970   1.515
15268WAT     H246047   3.316   6.983   1.429
15269WAT      O46048   0.867   4.266   4.574
15269WAT     H146049   0.801   4.322   4.524
15269WAT     H246050   0.827   4.176   4.593
15270WAT      O46051   4.623   0.951   7.517
15270WAT     H146052   4.536   0.983   7.554
15270WAT     H246053   4.613   0.856   7.486
15271WAT      O46054   5.097   7.636   1.843
15271WAT     H146055   5.177   7.585   1.810
15271WAT     H246056   5.026   7.572   1.872
15272WAT      O46057   2.291   7.245   2.019
15272WAT     H146058   2.229   7.212   2.089
15272WAT     H246059   2.386   7.233   2.050
15273WAT      O46060   8.820   0.133   2.232
15273WAT     H146061   8.786   0.226   2.242
15273WAT     H246062   8.759   0.070   2.281
15274WAT      O46063   0.931   8.483   9.479
15274WAT     H146064   1.028   8.499   9.460
15274WAT     H246065   0.920   8.447   9.571
15275WAT      O46066   7.142   2.665   3.693
15275WAT     H146067   7.135   2.623   3.784
15275WAT     H246068   7.182   2.599   3.630
15276WAT      O46069   3.203   4.301   2.947
15276WAT     H146070   3.151   4.216   2.956
15276WAT     H246071   3.276   4.289   2.881
15277WAT      O46072   7.430   7.694   9.375
15277WAT     H146073   7.487   7.765   9.335
15277WAT     H246074   7.451   7.685   9.472
15278WAT      O46075   3.947   6.958   2.603
15278WAT     H146076   3.972   6.866   2.634
15278WAT     H246077   3.987   7.026   2.664
15279WAT      O46078   2.038   0.243   9.361
15279WAT     H146079   1.978   0.317   9.392
15279WAT     H246080   2.111   0.230   9.428
15280WAT      O46081   6.597   6.047   1.637
15280WAT     H146082   6.695   6.069   1.643
15280WAT     H246083   6.586   5.963   1.583
15281WAT      O46084   6.055   1.799   9.293
15281WAT     H146085   6.096   1.812   9.203
15281WAT     H246086   5.956   1.792   9.284
15282WAT      O46087   5.039   4.960   9.159
15282WAT     H146088   5.136   4.952   9.182
15282WAT     H246089   4.991   5.005   9.235
15283WAT      O46090   6.085   6.836   2.503
15283WAT     H146091   5.987   6.854   2.497
15283WAT     H246092   6.101   6.737   2.496
15284WAT      O46093   2.519   1.925   5.010
15284WAT     H146094   2.589   1.863   4.974
15284WAT     H246095   2.562   2.005   5.051
15285WAT      O46096   9.694   0.148   5.401
15285WAT     H146097   9.693   0.094   5.486
15285WAT     H246098   9.772   0.120   5.346
15286WAT      O46099   6.499   3.971   3.443
15286WAT     H146100   6.453   4.003   3.526
15286WAT     H246101   6.430   3.938   3.378
15287WAT      O46102   2.745   0.144   3.930
15287WAT     H146103   2.784   0.136   4.022
15287WAT     H246104   2.675   0.215   3.929
15288WAT      O46105   7.041   6.356   1.652
15288WAT     H146106   7.111   6.425   1.640
15288WAT     H246107   6.984   6.351   1.570
15289WAT      O46108   5.257   4.630   7.022
15289WAT     H146109   5.170   4.610   6.977
15289WAT     H246110   5.302   4.706   6.976
15290WAT      O46111   5.047   8.113   1.443
15290WAT     H146112   5.006   8.102   1.353
15290WAT     H246113   5.110   8.191   1.442
15291WAT      O46114   7.831   0.609   0.463
15291WAT     H146115   7.857   0.693   0.416
15291WAT     H246116   7.871   0.530   0.416
15292WAT      O46117   1.206   8.440   7.607
15292WAT     H146118   1.197   8.453   7.508
15292WAT     H246119   1.146   8.365   7.637
15293WAT      O46120   5.151   7.786   8.587
15293WAT     H146121   5.165   7.885   8.592
15293WAT     H246122   5.059   7.763   8.618
15294WAT      O46123   1.145   5.535   6.416
15294WAT     H146124   1.140   5.439   6.444
15294WAT     H246125   1.147   5.540   6.316
15295WAT      O46126   8.918   5.830   7.244
15295WAT     H146127   8.925   5.907   7.181
15295WAT     H246128   9.001   5.823   7.299
15296WAT      O46129   8.939   1.811   3.997
15296WAT     H146130   9.018   1.775   3.948
15296WAT     H246131   8.896   1.884   3.944
15297WAT      O46132   7.849   0.839   0.327
15297WAT     H146133   7.759   0.841   0.282
15297WAT     H246134   7.916   0.883   0.268
15298WAT      O46135   4.644   3.108   8.435
15298WAT     H146136   4.592   3.136   8.354
15298WAT     H246137   4.604   3.026   8.475
15299WAT      O46138   7.680   8.408   5.055
15299WAT     H146139   7.613   8.338   5.080
15299WAT     H246140   7.738   8.429   5.133
15300WAT      O46141   9.832   7.047   8.789
15300WAT     H146142   9.783   7.129   8.759
15300WAT     H246143   9.927   7.071   8.810
15301WAT      O46144   6.247   8.696   7.535
15301WAT     H146145   6.277   8.712   7.441
15301WAT     H246146   6.314   8.736   7.598
15302WAT      O46147   5.194   9.381   9.587
15302WAT     H146148   5.279   9.420   9.553
15302WAT     H246149   5.145   9.336   9.513
15303WAT      O46150   8.983   1.437   0.073
15303WAT     H146151   9.006   1.345   0.041
15303WAT     H246152   9.018   1.505   0.008
15304WAT      O46153   0.317   2.247   4.274
15304WAT     H146154   0.379   2.325   4.265
15304WAT     H246155   0.254   2.246   4.197
15305WAT      O46156   2.583   7.594   1.471
15305WAT     H146157   2.518   7.670   1.473
15305WAT     H246158   2.604   7.567   1.565
15306WAT      O46159   7.629   3.899   6.225
15306WAT     H146160   7.710   3.842   6.217
15306WAT     H246161   7.547   3.843   6.215
15307WAT      O46162   5.010   2.468   6.482
15307WAT     H146163   5.063   2.393   6.442
15307WAT     H246164   4.955   2.433   6.558
15308WAT      O46165   5.258   3.684   3.259
15308WAT     H146166   5.257   3.733   3.172
15308WAT     H246167   5.173   3.631   3.268
15309WAT      O46168   5.649   2.847   5.633
15309WAT     H146169   5.743   2.815   5.644
15309WAT     H246170   5.587   2.786   5.683
15310WAT      O46171   6.346   9.529   1.621
15310WAT     H146172   6.294   9.500   1.540
15310WAT     H246173   6.428   9.578   1.593
15311WAT      O46174   9.726   3.989   5.592
15311WAT     H146175   9.745   3.995   5.690
15311WAT     H246176   9.809   3.965   5.542
15312WAT      O46177   4.940   6.994   3.864
15312WAT     H146178   4.941   7.069   3.797
15312WAT     H246179   4.847   6.981   3.899
15313WAT      O46180   1.419   5.154   5.900
15313WAT     H146181   1.329   5.117   5.922
15313WAT     H246182   1.449   5.117   5.812
15314WAT      O46183   8.564   2.689   4.417
15314WAT     H146184   8.513   2.623   4.473
15314WAT     H246185   8.662   2.673   4.427
15315WAT      O46186   1.851   2.624   8.513
15315WAT     H146187   1.928   2.613   8.450
15315WAT     H246188   1.868   2.703   8.572
15316WAT      O46189   4.742   4.900   7.041
15316WAT     H146190   4.760   4.997   7.060
15316WAT     H246191   4.814   4.864   6.981
15317WAT      O46192   6.872   3.575   7.030
15317WAT     H146193   6.855   3.664   6.987
15317WAT     H246194   6.792   3.547   7.082
15318WAT      O46195   7.560   5.323   7.890
15318WAT     H146196   7.495   5.259   7.930
15318WAT     H246197   7.530   5.417   7.908
15319WAT      O46198   8.378   2.534   6.619
15319WAT     H146199   8.377   2.622   6.572
15319WAT     H246200   8.469   2.516   6.655
15320WAT      O46201   6.836   3.243   0.933
15320WAT     H146202   6.898   3.249   1.011
15320WAT     H246203   6.860   3.312   0.865
15321WAT      O46204   2.487   4.651   4.942
15321WAT     H146205   2.545   4.727   4.913
15321WAT     H246206   2.538   4.566   4.937
15322WAT      O46207   3.754   3.404   0.368
15322WAT     H146208   3.833   3.410   0.429
15322WAT     H246209   3.672   3.432   0.416
15323WAT      O46210   0.225   3.797   2.242
15323WAT     H146211   0.282   3.858   2.186
15323WAT     H246212   0.271   3.779   2.329
15324WAT      O46213   2.795   9.393   4.761
15324WAT     H146214   2.815   9.472   4.819
15324WAT     H246215   2.730   9.420   4.690
15325WAT      O46216   3.504   5.951   4.042
15325WAT     H146217   3.500   5.862   3.997
15325WAT     H246218   3.431   5.957   4.110
15326WAT      O46219   2.270   6.287   7.423
15326WAT     H146220   2.198   6.224   7.397
15326WAT     H246221   2.230   6.374   7.452
15327WAT      O46222   6.845   1.803   0.797
15327WAT     H146223   6.790   1.722   0.816
15327WAT     H246224   6.823   1.875   0.863
15328WAT      O46225   1.297   8.092   9.823
15328WAT     H146226   1.251   8.078   9.911
15328WAT     H246227   1.231   8.078   9.749
15329WAT      O46228   3.696   5.274   6.006
15329WAT     H146229   3.756   5.312   5.936
15329WAT     H246230   3.745   5.205   6.059
15330WAT      O46231   1.307   6.026   6.859
15330WAT     H146232   1.270   6.073   6.939
15330WAT     H246233   1.366   5.951   6.889
15331WAT      O46234   1.968   8.184   9.231
15331WAT     H146235   2.062   8.218   9.239
15331WAT     H246236   1.911   8.254   9.188
15332WAT      O46237   7.672   0.356   4.254
15332WAT     H146238   7.604   0.337   4.325
15332WAT     H246239   7.628   0.403   4.178
15333WAT      O46240   1.379   4.344   9.616
15333WAT     H146241   1.281   4.328   9.605
15333WAT     H246242   1.429   4.258   9.606
15334WAT      O46243   1.822   4.170   9.562
15334WAT     H146244   1.827   4.263   9.524
15334WAT     H246245   1.726   4.144   9.571
15335WAT      O46246   9.324   1.672   6.451
15335WAT     H146247   9.290   1.732   6.523
15335WAT     H246248   9.321   1.720   6.363
15336WAT      O46249   2.963   6.436   3.682
15336WAT     H146250   3.045   6.394   3.645
15336WAT     H246251   2.895   6.447   3.609
15337WAT      O46252   6.628   3.478   0.791
15337WAT     H146253   6.603   3.381   0.784
15337WAT     H246254   6.546   3.532   0.810
15338WAT      O46255   0.861   5.196   6.104
15338WAT     H146256   0.789   5.146   6.056
15338WAT     H246257   0.820   5.253   6.175
15339WAT      O46258   5.430   6.487   6.662
15339WAT     H146259   5.495   6.526   6.597
15339WAT     H246260   5.448   6.524   6.754
15340WAT      O46261   2.159   5.724   5.257
15340WAT     H146262   2.066   5.688   5.257
15340WAT     H246263   2.156   5.824   5.252
15341WAT      O46264   1.328   6.964   4.507
15341WAT     H146265   1.347   7.059   4.482
15341WAT     H246266   1.413   6.912   4.506
15342WAT      O46267   3.522   2.584   0.661
15342WAT     H146268   3.510   2.533   0.576
15342WAT     H246269   3.509   2.522   0.739
15343WAT      O46270   5.800   9.260   3.038
15343WAT     H146271   5.779   9.341   3.092
15343WAT     H246272   5.799   9.284   2.941
15344WAT      O46273   1.280   9.749   5.332
15344WAT     H146274   1.185   9.771   5.353
15344WAT     H246275   1.317   9.689   5.403
15345WAT      O46276   9.786   7.605   5.332
15345WAT     H146277   9.711   7.599   5.398
15345WAT     H246278   9.871   7.574   5.375
15346WAT      O46279   5.435   5.063   3.594
15346WAT     H146280   5.419   4.972   3.633
15346WAT     H246281   5.499   5.114   3.652
15347WAT      O46282   4.434   9.438   2.625
15347WAT     H146283   4.466   9.345   2.641
15347WAT     H246284   4.462   9.467   2.533
15348WAT      O46285   3.998   4.863   2.763
15348WAT     H146286   3.990   4.867   2.664
15348WAT     H246287   4.094   4.853   2.789
15349WAT      O46288   8.328   5.119   4.767
15349WAT     H146289   8.409   5.158   4.723
15349WAT     H246290   8.274   5.069   4.700
15350WAT      O46291   7.570   1.028   7.287
15350WAT     H146292   7.658   0.996   7.321
15350WAT     H246293   7.573   1.127   7.274
15351WAT      O46294   1.529   9.504   2.676
15351WAT     H146295   1.626   9.491   2.695
15351WAT     H246296   1.484   9.415   2.669
15352WAT      O46297   9.524   3.113   7.740
15352WAT     H146298   9.498   3.019   7.763
15352WAT     H246299   9.586   3.148   7.810
15353WAT      O46300   2.427   1.039   6.319
15353WAT     H146301   2.435   1.006   6.225
15353WAT     H246302   2.334   1.025   6.352
15354WAT      O46303   2.310   6.337   7.836
15354WAT     H146304   2.213   6.346   7.860
15354WAT     H246305   2.318   6.324   7.737
15355WAT      O46306   7.732   2.417   5.018
15355WAT     H146307   7.801   2.476   4.976
15355WAT     H246308   7.641   2.445   4.986
15356WAT      O46309   6.476   1.379   1.516
15356WAT     H146310   6.425   1.377   1.602
15356WAT     H246311   6.426   1.434   1.449
15357WAT      O46312   1.645   1.433   3.944
15357WAT     H146313   1.610   1.340   3.955
15357WAT     H246314   1.682   1.465   4.032
15358WAT      O46315   8.953   8.661   6.883
15358WAT     H146316   8.913   8.731   6.942
15358WAT     H246317   8.944   8.688   6.788
15359WAT      O46318   5.095   6.357   8.677
15359WAT     H146319   5.168   6.401   8.624
15359WAT     H246320   5.073   6.413   8.756
15360WAT      O46321   0.129   8.889   7.453
15360WAT     H146322   0.089   8.979   7.468
15360WAT     H246323   0.163   8.853   7.540
15361WAT      O46324   6.660   0.275   2.689
15361WAT     H146325   6.667   0.177   2.708
15361WAT     H246326   6.691   0.294   2.596
15362WAT      O46327   1.247   6.688   7.157
15362WAT     H146328   1.337   6.645   7.158
15362WAT     H246329   1.177   6.619   7.142
15363WAT      O46330   5.367   0.699   1.961
15363WAT     H146331   5.319   0.747   1.887
15363WAT     H246332   5.458   0.739   1.973
15364WAT      O46333   8.051   6.628   8.089
15364WAT     H146334   8.033   6.691   8.164
15364WAT     H246335   7.964   6.595   8.051
15365WAT      O46336   3.259   4.652   9.657
15365WAT     H146337   3.242   4.558   9.686
15365WAT     H246338   3.253   4.713   9.737
15366WAT      O46339   5.611   4.351   1.068
15366WAT     H146340   5.547   4.393   1.004
15366WAT     H246341   5.704   4.376   1.043
15367WAT      O46342   5.667   8.666   5.388
15367WAT     H146343   5.643   8.754   5.429
15367WAT     H246344   5.756   8.637   5.424
15368WAT      O46345   7.831   8.154   2.327
15368WAT     H146346   7.847   8.059   2.353
15368WAT     H246347   7.825   8.210   2.410
15369WAT      O46348   2.628   7.865   5.975
15369WAT     H146349   2.673   7.882   6.062
15369WAT     H246350   2.674   7.789   5.928
15370WAT      O46351   7.728   7.397   9.462
15370WAT     H146352   7.663   7.340   9.411
15370WAT     H246353   7.736   7.486   9.417
15371WAT      O46354   1.296   0.119   7.266
15371WAT     H146355   1.241   0.047   7.310
15371WAT     H246356   1.385   0.081   7.240
15372WAT      O46357   3.294   2.217   5.601
15372WAT     H146358   3.335   2.162   5.673
15372WAT     H246359   3.277   2.310   5.635
15373WAT      O46360   6.227   3.244   0.227
15373WAT     H146361   6.146   3.208   0.180
15373WAT     H246362   6.216   3.232   0.326
15374WAT      O46363   4.805   3.187   1.049
15374WAT     H146364   4.898   3.151   1.037
15374WAT     H246365   4.758   3.134   1.119
15375WAT      O46366   4.495   2.669   7.866
15375WAT     H146367   4.503   2.580   7.822
15375WAT     H246368   4.579   2.722   7.851
15376WAT      O46369   9.199   0.256   8.707
15376WAT     H146370   9.202   0.157   8.723
15376WAT     H246371   9.273   0.300   8.759
15377WAT      O46372   8.245   5.629   5.566
15377WAT     H146373   8.194   5.556   5.520
15377WAT     H246374   8.199   5.717   5.550
15378WAT      O46375   3.651   4.570   6.380
15378WAT     H146376   3.717   4.502   6.350
15378WAT     H246377   3.604   4.536   6.462
15379WAT      O46378   4.219   0.072   5.945
15379WAT     H146379   4.318   0.073   5.931
15379WAT     H246380   4.190  -0.022   5.965
15380WAT      O46381   0.475   3.290   0.580
15380WAT     H146382   0.446   3.213   0.523
15380WAT     H246383   0.396   3.328   0.628
15381WAT      O46384   3.352   7.703   4.067
15381WAT     H146385   3.385   7.693   3.973
15381WAT     H246386   3.292   7.626   4.090
15382WAT      O46387   8.895   3.285   0.548
15382WAT     H146388   8.870   3.300   0.644
15382WAT     H246389   8.836   3.213   0.510
15383WAT      O46390   9.119   6.445   2.471
15383WAT     H146391   9.113   6.352   2.507
15383WAT     H246392   9.085   6.509   2.539
15384WAT      O46393   5.373   9.625   1.387
15384WAT     H146394   5.331   9.657   1.472
15384WAT     H246395   5.371   9.698   1.319
15385WAT      O46396   0.762   8.244   8.238
15385WAT     H146397   0.809   8.242   8.327
15385WAT     H246398   0.723   8.335   8.223
15386WAT      O46399   3.343   4.171   7.994
15386WAT     H146400   3.327   4.103   8.066
15386WAT     H246401   3.259   4.185   7.942
15387WAT      O46402   6.944   9.354   5.059
15387WAT     H146403   7.035   9.336   5.022
15387WAT     H246404   6.915   9.276   5.115
15388WAT      O46405   4.115   7.488   6.954
15388WAT     H146406   4.020   7.518   6.945
15388WAT     H246407   4.131   7.453   7.047
15389WAT      O46408   6.158   7.631   9.767
15389WAT     H146409   6.138   7.728   9.752
15389WAT     H246410   6.168   7.614   9.865
15390WAT      O46411   0.440   8.805   1.276
15390WAT     H146412   0.439   8.757   1.363
15390WAT     H246413   0.533   8.836   1.256
15391WAT      O46414   7.561   4.021   4.064
15391WAT     H146415   7.536   3.971   4.147
15391WAT     H246416   7.521   3.975   3.984
15392WAT      O46417   7.507   2.404   6.848
15392WAT     H146418   7.497   2.430   6.944
15392WAT     H246419   7.421   2.418   6.800
15393WAT      O46420   9.653   2.919   9.852
15393WAT     H146421   9.714   2.997   9.840
15393WAT     H246422   9.635   2.905   9.949
15394WAT      O46423   7.895   5.038   4.996
15394WAT     H146424   7.976   5.076   4.952
15394WAT     H246425   7.840   5.112   5.035
15395WAT      O46426   8.031   7.941   3.375
15395WAT     H146427   8.130   7.945   3.390
15395WAT     H246428   8.013   7.915   3.280
15396WAT      O46429   1.656   3.178   0.778
15396WAT     H146430   1.673   3.081   0.797
15396WAT     H246431   1.588   3.214   0.842
15397WAT      O46432   6.852   1.140   3.988
15397WAT     H146433   6.859   1.045   3.959
15397WAT     H246434   6.756   1.168   3.988
15398WAT      O46435   6.079   4.202   5.838
15398WAT     H146436   6.052   4.263   5.764
15398WAT     H246437   6.147   4.137   5.805
15399WAT      O46438   8.710   7.530   6.086
15399WAT     H146439   8.620   7.567   6.108
15399WAT     H246440   8.775   7.557   6.157
15400WAT      O46441   5.036   7.105   2.738
15400WAT     H146442   4.992   7.145   2.819
15400WAT     H246443   4.966   7.087   2.668
15401WAT      O46444   1.326   1.327   6.911
15401WAT     H146445   1.414   1.300   6.874
15401WAT     H246446   1.338   1.358   7.006
15402WAT      O46447   0.913   5.690   6.450
15402WAT     H146448   0.995   5.635   6.435
15402WAT     H246449   0.896   5.698   6.548
15403WAT      O46450   3.573   3.764   9.036
15403WAT     H146451   3.660   3.779   9.082
15403WAT     H246452   3.585   3.778   8.938
15404WAT      O46453   4.493   1.051   0.947
15404WAT     H146454   4.441   0.965   0.940
15404WAT     H246455   4.476   1.106   0.866
15405WAT      O46456   1.104   1.970   6.594
15405WAT     H146457   1.103   2.068   6.615
15405WAT     H246458   1.196   1.934   6.609
15406WAT      O46459   9.622   5.063   2.175
15406WAT     H146460   9.575   4.974   2.180
15406WAT     H246461   9.710   5.056   2.222
15407WAT      O46462   9.277   7.321   4.950
15407WAT     H146463   9.260   7.387   4.878
15407WAT     H246464   9.189   7.291   4.989
15408WAT      O46465   2.489   2.286   5.552
15408WAT     H146466   2.541   2.361   5.594
15408WAT     H246467   2.397   2.317   5.530
15409WAT      O46468   5.011   5.083   7.015
15409WAT     H146469   5.004   5.181   6.998
15409WAT     H246470   5.031   5.067   7.112
15410WAT      O46471   8.326   5.497   7.866
15410WAT     H146472   8.412   5.548   7.874
15410WAT     H246473   8.256   5.540   7.922
15411WAT      O46474   9.481   1.056   2.800
15411WAT     H146475   9.547   1.120   2.839
15411WAT     H246476   9.388   1.085   2.824
15412WAT      O46477   7.472   5.410   8.558
15412WAT     H146478   7.484   5.324   8.607
15412WAT     H246479   7.485   5.486   8.622
15413WAT      O46480   2.579   4.834   7.086
15413WAT     H146481   2.587   4.736   7.068
15413WAT     H246482   2.596   4.850   7.184
15414WAT      O46483   2.895   6.962   4.141
15414WAT     H146484   2.800   6.967   4.112
15414WAT     H246485   2.953   7.009   4.075
15415WAT      O46486   5.133   1.547   7.206
15415WAT     H146487   5.189   1.630   7.211
15415WAT     H246488   5.172   1.476   7.263
15416WAT      O46489   4.690   5.733   4.143
15416WAT     H146490   4.709   5.684   4.229
15416WAT     H246491   4.612   5.794   4.156
15417WAT      O46492   1.314   8.890   7.476
15417WAT     H146493   1.255   8.966   7.451
15417WAT     H246494   1.410   8.919   7.472
15418WAT      O46495   9.228   8.058   5.097
15418WAT     H146496   9.232   7.994   5.020
15418WAT     H246497   9.189   8.012   5.176
15419WAT      O46498   1.236   9.348   2.832
15419WAT     H146499   1.319   9.309   2.792
15419WAT     H246500   1.156   9.309   2.786
15420WAT      O46501   8.920   5.464   9.522
15420WAT     H146502   8.941   5.524   9.445
15420WAT     H246503   8.952   5.371   9.502
15421WAT      O46504   5.155   3.775   2.380
15421WAT     H146505   5.224   3.720   2.334
15421WAT     H246506   5.199   3.852   2.426
15422WAT      O46507   4.512   6.013   0.507
15422WAT     H146508   4.418   5.979   0.512
15422WAT     H246509   4.511   6.112   0.491
15423WAT      O46510   6.526   7.611   5.978
15423WAT     H146511   6.486   7.695   5.940
15423WAT     H246512   6.457   7.538   5.976
15424WAT      O46513   4.415   2.558   1.502
15424WAT     H146514   4.453   2.485   1.559
15424WAT     H246515   4.436   2.647   1.543
15425WAT      O46516   6.851   7.146   6.958
15425WAT     H146517   6.891   7.178   6.872
15425WAT     H246518   6.779   7.208   6.987
15426WAT      O46519   7.870   4.769   2.906
15426WAT     H146520   7.961   4.808   2.919
15426WAT     H246521   7.839   4.726   2.990
15427WAT      O46522   8.888   5.202   2.249
15427WAT     H146523   8.897   5.104   2.267
15427WAT     H246524   8.795   5.231   2.272
15428WAT      O46525   2.313   1.065   9.695
15428WAT     H146526   2.381   1.136   9.677
15428WAT     H246527   2.336   1.017   9.779
15429WAT      O46528   4.955   6.960   1.352
15429WAT     H146529   4.941   6.891   1.423
15429WAT     H246530   4.964   7.050   1.394
15430WAT      O46531   4.356   8.687   9.120
15430WAT     H146532   4.419   8.680   9.043
15430WAT     H246533   4.394   8.638   9.199
15431WAT      O46534   5.258   1.427   2.884
15431WAT     H146535   5.238   1.523   2.902
15431WAT     H246536   5.207   1.396   2.804
15432WAT      O46537   6.391   9.361   9.839
15432WAT     H146538   6.292   9.348   9.837
15432WAT     H246539   6.436   9.276   9.815
15433WAT      O46540   6.414   4.575   9.179
15433WAT     H146541   6.382   4.641   9.247
15433WAT     H246542   6.337   4.545   9.123
15434WAT      O46543   9.251   0.943   8.169
15434WAT     H146544   9.172   0.992   8.207
15434WAT     H246545   9.333   0.967   8.221
15435WAT      O46546   1.212   5.423   7.439
15435WAT     H146547   1.132   5.479   7.420
15435WAT     H246548   1.191   5.361   7.515
15436WAT      O46549   5.286   6.995   3.312
15436WAT     H146550   5.339   6.918   3.348
15436WAT     H246551   5.348   7.057   3.264
15437WAT      O46552   6.706   5.590   4.610
15437WAT     H146553   6.698   5.572   4.511
15437WAT     H246554   6.792   5.552   4.644
15438WAT      O46555   3.969   4.074   7.033
15438WAT     H146556   3.923   4.129   6.963
15438WAT     H246557   4.024   4.135   7.091
15439WAT      O46558   7.102   1.593   3.509
15439WAT     H146559   7.146   1.504   3.498
15439WAT     H246560   7.115   1.647   3.426
15440WAT      O46561   4.297   1.795   1.638
15440WAT     H146562   4.384   1.748   1.650
15440WAT     H246563   4.229   1.731   1.603
15441WAT      O46564   5.271   8.669   4.394
15441WAT     H146565   5.357   8.624   4.371
15441WAT     H246566   5.233   8.627   4.477
15442WAT      O46567   9.885   7.695   9.676
15442WAT     H146568   9.957   7.626   9.666
15442WAT     H246569   9.797   7.654   9.652
15443WAT      O46570   3.982   7.060   3.778
15443WAT     H146571   4.077   7.043   3.805
15443WAT     H246572   3.934   7.106   3.853
15444WAT      O46573   2.331   8.733   4.424
15444WAT     H146574   2.396   8.673   4.471
15444WAT     H246575   2.348   8.828   4.450
15445WAT      O46576   7.882   6.207   0.628
15445WAT     H146577   7.973   6.234   0.659
15445WAT     H246578   7.888   6.122   0.576
15446WAT      O46579   5.252   2.786   1.272
15446WAT     H146580   5.247   2.856   1.202
15446WAT     H246581   5.254   2.829   1.363
15447WAT      O46582   8.565   9.341   6.663
15447WAT     H146583   8.492   9.357   6.730
15447WAT     H246584   8.651   9.321   6.712
15448WAT      O46585   8.350   2.625   4.794
15448WAT     H146586   8.252   2.607   4.786
15448WAT     H246587   8.396   2.603   4.708
15449WAT      O46588   3.254   3.299   4.555
15449WAT     H146589   3.303   3.265   4.475
15449WAT     H246590   3.157   3.275   4.548
15450WAT      O46591   4.897   7.444   4.740
15450WAT     H146592   4.885   7.362   4.795
15450WAT     H246593   4.965   7.427   4.669
15451WAT      O46594   9.703   5.596   1.915
15451WAT     H146595   9.675   5.534   1.988
15451WAT     H246596   9.629   5.660   1.894
15452WAT      O46597   4.176   1.934   1.833
15452WAT     H146598   4.201   1.866   1.765
15452WAT     H246599   4.096   1.985   1.802
15453WAT      O46600   4.582   1.180   0.203
15453WAT     H146601   4.563   1.261   0.148
15453WAT     H246602   4.599   1.207   0.297
15454WAT      O46603   4.679   5.246   4.797
15454WAT     H146604   4.726   5.269   4.882
15454WAT     H246605   4.620   5.323   4.770
15455WAT      O46606   8.895   5.005   1.325
15455WAT     H146607   8.987   5.016   1.361
15455WAT     H246608   8.877   5.078   1.259
15456WAT      O46609   3.069   0.649   8.778
15456WAT     H146610   3.133   0.720   8.807
15456WAT     H246611   2.978   0.670   8.814
15457WAT      O46612   2.373   7.248   5.963
15457WAT     H146613   2.334   7.330   6.004
15457WAT     H246614   2.300   7.193   5.922
15458WAT      O46615   9.170   3.526   8.131
15458WAT     H146616   9.224   3.490   8.207
15458WAT     H246617   9.132   3.615   8.156
15459WAT      O46618   1.194   1.617   0.104
15459WAT     H146619   1.284   1.594   0.141
15459WAT     H246620   1.137   1.535   0.104
15460WAT      O46621   0.803   8.875   1.428
15460WAT     H146622   0.735   8.885   1.356
15460WAT     H246623   0.816   8.778   1.448
15461WAT      O46624   0.360   9.422   8.980
15461WAT     H146625   0.370   9.331   8.938
15461WAT     H246626   0.446   9.447   9.024
15462WAT      O46627   4.832   2.367   4.809
15462WAT     H146628   4.914   2.425   4.813
15462WAT     H246629   4.786   2.380   4.722
15463WAT      O46630   2.226   9.232   0.445
15463WAT     H146631   2.193   9.195   0.532
15463WAT     H246632   2.185   9.322   0.429
15464WAT      O46633   8.589   7.912   6.156
15464WAT     H146634   8.519   7.969   6.198
15464WAT     H246635   8.579   7.817   6.188
15465WAT      O46636   6.992   6.871   8.039
15465WAT     H146637   6.969   6.804   8.110
15465WAT     H246638   7.086   6.857   8.009
15466WAT      O46639   2.048   5.197   8.774
15466WAT     H146640   1.961   5.153   8.798
15466WAT     H246641   2.031   5.289   8.740
15467WAT      O46642   7.546   1.936   1.297
15467WAT     H146643   7.584   2.028   1.289
15467WAT     H246644   7.448   1.939   1.274
15468WAT      O46645   1.755   6.501   2.906
15468WAT     H146646   1.761   6.486   3.005
15468WAT     H246647   1.823   6.445   2.859
15469WAT      O46648   4.437   8.715   3.978
15469WAT     H146649   4.509   8.673   4.034
15469WAT     H246650   4.471   8.728   3.885
15470WAT      O46651   6.311   0.370   7.050
15470WAT     H146652   6.248   0.430   7.001
15470WAT     H246653   6.283   0.275   7.038
15471WAT      O46654   8.370   8.943   7.860
15471WAT     H146655   8.439   9.013   7.875
15471WAT     H246656   8.301   8.976   7.796
15472WAT      O46657   6.023   5.062   9.796
15472WAT     H146658   5.972   5.144   9.823
15472WAT     H246659   6.074   5.027   9.875
15473WAT      O46660   4.859   5.907   7.607
15473WAT     H146661   4.880   5.836   7.675
15473WAT     H246662   4.819   5.865   7.526
15474WAT      O46663   1.002   2.416   5.469
15474WAT     H146664   0.949   2.383   5.547
15474WAT     H246665   1.073   2.350   5.446
15475WAT      O46666   8.580   8.824   4.916
15475WAT     H146667   8.627   8.748   4.962
15475WAT     H246668   8.497   8.848   4.967
15476WAT      O46669   7.449   9.499   0.438
15476WAT     H146670   7.380   9.537   0.499
15476WAT     H246671   7.440   9.541   0.347
15477WAT      O46672   3.667   2.556   9.051
15477WAT     H146673   3.595   2.520   8.992
15477WAT     H246674   3.756   2.545   9.005
15478WAT      O46675   3.328   3.754   8.618
15478WAT     H146676   3.408   3.695   8.632
15478WAT     H246677   3.355   3.850   8.628
15479WAT      O46678   2.270   3.147   6.855
15479WAT     H146679   2.271   3.114   6.950
15479WAT     H246680   2.204   3.221   6.846
15480WAT      O46681   2.726   5.993   6.167
15480WAT     H146682   2.634   5.955   6.175
15480WAT     H246683   2.766   5.968   6.079
15481WAT      O46684   5.410   8.015   0.398
15481WAT     H146685   5.393   7.981   0.305
15481WAT     H246686   5.508   8.027   0.411
15482WAT      O46687   3.594   8.830   5.614
15482WAT     H146688   3.517   8.886   5.585
15482WAT     H246689   3.624   8.859   5.704
15483WAT      O46690   9.561   7.155   0.525
15483WAT     H146691   9.593   7.061   0.536
15483WAT     H246692   9.636   7.218   0.545
15484WAT      O46693   6.663   5.315   0.865
15484WAT     H146694   6.655   5.282   0.959
15484WAT     H246695   6.757   5.344   0.848
15485WAT      O46696   0.574   5.505   2.686
15485WAT     H146697   0.663   5.460   2.686
15485WAT     H246698   0.534   5.499   2.595
15486WAT      O46699   3.132   3.128   9.016
15486WAT     H146700   3.111   3.031   9.031
15486WAT     H246701   3.226   3.138   8.986
15487WAT      O46702   8.175   0.183   6.440
15487WAT     H146703   8.116   0.171   6.520
15487WAT     H246704   8.204   0.278   6.434
15488WAT      O46705   3.043   4.775   5.254
15488WAT     H146706   3.130   4.810   5.220
15488WAT     H246707   2.969   4.804   5.192
15489WAT      O46708   1.239   1.895   2.939
15489WAT     H146709   1.276   1.895   3.032
15489WAT     H246710   1.283   1.967   2.885
15490WAT      O46711   8.263   5.312   2.508
15490WAT     H146712   8.305   5.240   2.563
15490WAT     H246713   8.164   5.297   2.504
15491WAT      O46714   8.049   2.883   5.228
15491WAT     H146715   8.086   2.949   5.162
15491WAT     H246716   7.963   2.846   5.192
15492WAT      O46717   0.768   5.266   6.499
15492WAT     H146718   0.817   5.307   6.576
15492WAT     H246719   0.780   5.322   6.418
15493WAT      O46720   5.487   3.262   0.364
15493WAT     H146721   5.582   3.246   0.391
15493WAT     H246722   5.472   3.360   0.349
15494WAT      O46723   2.779   1.996   5.488
15494WAT     H146724   2.720   2.047   5.425
15494WAT     H246725   2.806   2.056   5.564
15495WAT      O46726   0.617   1.177   3.614
15495WAT     H146727   0.669   1.155   3.532
15495WAT     H246728   0.680   1.209   3.686
15496WAT      O46729   8.593   2.609   5.945
15496WAT     H146730   8.662   2.658   5.890
15496WAT     H246731   8.513   2.590   5.887
15497WAT      O46732   2.565   0.272   6.130
15497WAT     H146733   2.540   0.284   6.034
15497WAT     H246734   2.554   0.176   6.155
15498WAT      O46735   9.128   5.069   5.628
15498WAT     H146736   9.113   5.150   5.572
15498WAT     H246737   9.178   5.000   5.575
15499WAT      O46738   9.538   2.769   5.163
15499WAT     H146739   9.473   2.749   5.236
15499WAT     H246740   9.621   2.714   5.175
15500WAT      O46741   7.284   4.929   3.873
15500WAT     H146742   7.350   4.988   3.919
15500WAT     H246743   7.258   4.969   3.785
15501WAT      O46744   7.732   7.890   6.724
15501WAT     H146745   7.760   7.839   6.806
15501WAT     H246746   7.655   7.950   6.747
15502WAT      O46747   8.526   8.311   0.958
15502WAT     H146748   8.473   8.381   0.910
15502WAT     H246749   8.575   8.255   0.891
15503WAT      O46750   9.047  -0.005   2.263
15503WAT     H146751   8.973   0.060   2.248
15503WAT     H246752   9.134   0.037   2.240
15504WAT      O46753   1.534   8.783   6.411
15504WAT     H146754   1.535   8.683   6.420
15504WAT     H246755   1.531   8.808   6.315
15505WAT      O46756   4.556   5.090   0.185
15505WAT     H146757   4.556   4.991   0.200
15505WAT     H246758   4.471   5.116   0.138
15506WAT      O46759   7.342   0.515   7.447
15506WAT     H146760   7.252   0.538   7.411
15506WAT     H246761   7.363   0.420   7.424
15507WAT      O46762   0.192   8.480   0.264
15507WAT     H146763   0.144   8.399   0.296
15507WAT     H246764   0.133   8.533   0.204
15508WAT      O46765   9.440   5.991   5.797
15508WAT     H146766   9.397   5.910   5.757
15508WAT     H246767   9.475   5.968   5.888
15509WAT      O46768   8.267   7.268   6.584
15509WAT     H146769   8.349   7.300   6.631
15509WAT     H246770   8.209   7.347   6.562
15510WAT      O46771   3.744   2.004   5.207
15510WAT     H146772   3.823   1.967   5.256
15510WAT     H246773   3.750   2.104   5.205
15511WAT      O46774   7.660   3.005   6.705
15511WAT     H146775   7.732   3.010   6.637
15511WAT     H246776   7.645   2.909   6.731
15512WAT      O46777   9.818   2.005   6.806
15512WAT     H146778   9.871   1.938   6.855
15512WAT     H246779   9.795   1.970   6.715
15513WAT      O46780   2.244   6.330   5.810
15513WAT     H146781   2.151   6.348   5.778
15513WAT     H246782   2.301   6.299   5.734
15514WAT      O46783   2.786   3.814   4.040
15514WAT     H146784   2.728   3.892   4.016
15514WAT     H246785   2.731   3.743   4.084
15515WAT      O46786   8.993   9.367   2.366
15515WAT     H146787   8.903   9.324   2.362
15515WAT     H246788   8.982   9.467   2.365
15516WAT      O46789   2.463   4.283   7.026
15516WAT     H146790   2.473   4.363   6.967
15516WAT     H246791   2.520   4.208   6.992
15517WAT      O46792   9.264   6.943   0.688
15517WAT     H146793   9.174   6.915   0.722
15517WAT     H246794   9.265   6.936   0.588
15518WAT      O46795   6.269   0.845   3.943
15518WAT     H146796   6.273   0.862   4.042
15518WAT     H246797   6.275   0.746   3.927
15519WAT      O46798   1.357   7.534   2.849
15519WAT     H146799   1.404   7.580   2.775
15519WAT     H246800   1.339   7.598   2.923
15520WAT      O46801   0.197   1.321   1.431
15520WAT     H146802   0.127   1.284   1.492
15520WAT     H246803   0.281   1.335   1.483
15521WAT      O46804   3.170   8.011   8.647
15521WAT     H146805   3.154   8.095   8.698
15521WAT     H246806   3.174   7.934   8.711
15522WAT      O46807   2.096   8.237   8.950
15522WAT     H146808   2.061   8.311   8.894
15522WAT     H246809   2.133   8.274   9.036
15523WAT      O46810   2.628   4.436   6.601
15523WAT     H146811   2.558   4.480   6.544
15523WAT     H246812   2.714   4.486   6.592
15524WAT      O46813   3.943   6.863   7.431
15524WAT     H146814   3.961   6.905   7.520
15524WAT     H246815   3.956   6.930   7.359
15525WAT      O46816   2.816   1.709   1.608
15525WAT     H146817   2.791   1.662   1.523
15525WAT     H246818   2.827   1.642   1.681
15526WAT      O46819   5.973   8.442   5.201
15526WAT     H146820   5.941   8.480   5.288
15526WAT     H246821   5.995   8.516   5.139
15527WAT      O46822   3.942   3.690   7.112
15527WAT     H146823   3.911   3.665   7.204
15527WAT     H246824   3.972   3.786   7.111
15528WAT      O46825   5.683   6.547   4.652
15528WAT     H146826   5.734   6.625   4.616
15528WAT     H246827   5.744   6.487   4.703
15529WAT      O46828   3.918   0.217   8.029
15529WAT     H146829   3.899   0.135   8.083
15529WAT     H246830   3.834   0.246   7.983
15530WAT      O46831   6.614   9.069   4.032
15530WAT     H146832   6.653   9.108   4.115
15530WAT     H246833   6.660   9.108   3.952
15531WAT      O46834   5.148   2.824   3.877
15531WAT     H146835   5.084   2.885   3.831
15531WAT     H246836   5.238   2.830   3.833
15532WAT      O46837   0.083   6.880   3.198
15532WAT     H146838   0.176   6.853   3.222
15532WAT     H246839   0.078   6.898   3.100
15533WAT      O46840   6.275   1.091   3.316
15533WAT     H146841   6.281   1.167   3.251
15533WAT     H246842   6.240   1.124   3.403
15534WAT      O46843   3.803   5.507   2.974
15534WAT     H146844   3.896   5.491   3.005
15534WAT     H246845   3.741   5.441   3.018
15535WAT      O46846   6.194   1.329   0.672
15535WAT     H146847   6.286   1.294   0.656
15535WAT     H246848   6.183   1.417   0.626
15536WAT      O46849   4.167   2.421   1.123
15536WAT     H146850   4.220   2.445   1.042
15536WAT     H246851   4.186   2.487   1.196
15537WAT      O46852   2.550   6.008   1.000
15537WAT     H146853   2.569   6.093   1.050
15537WAT     H246854   2.621   5.994   0.930
15538WAT      O46855   9.686   1.970   2.182
15538WAT     H146856   9.603   1.920   2.159
15538WAT     H246857   9.663   2.049   2.239
15539WAT      O46858   7.102   6.383   3.473
15539WAT     H146859   7.023   6.405   3.414
15539WAT     H246860   7.117   6.458   3.538
15540WAT      O46861   5.202   9.119   2.696
15540WAT     H146862   5.199   9.197   2.757
15540WAT     H246863   5.229   9.037   2.747
15541WAT      O46864   5.604   2.781   9.266
15541WAT     H146865   5.666   2.858   9.250
15541WAT     H246866   5.635   2.730   9.346
15542WAT      O46867   2.683   8.521   6.042
15542WAT     H146868   2.674   8.436   5.990
15542WAT     H246869   2.773   8.525   6.085
15543WAT      O46870   8.531   1.915   6.237
15543WAT     H146871   8.592   1.848   6.196
15543WAT     H246872   8.485   1.875   6.316
15544WAT      O46873   3.024   7.651   1.393
15544WAT     H146874   2.932   7.656   1.355
15544WAT     H246875   3.090   7.633   1.320
15545WAT      O46876   2.246   2.318   3.244
15545WAT     H146877   2.341   2.315   3.214
15545WAT     H246878   2.201   2.399   3.205
15546WAT      O46879   3.141   3.432   4.004
15546WAT     H146880   3.080   3.419   4.082
15546WAT     H246881   3.185   3.345   3.982
15547WAT      O46882   7.506   6.975   0.986
15547WAT     H146883   7.575   7.043   0.960
15547WAT     H246884   7.418   7.021   1.000
15548WAT      O46885   2.928   6.466   5.670
15548WAT     H146886   2.905   6.472   5.573
15548WAT     H246887   2.980   6.548   5.697
15549WAT      O46888   5.527   3.276   5.310
15549WAT     H146889   5.620   3.243   5.325
15549WAT     H246890   5.464   3.199   5.316
15550WAT      O46891   5.662   2.118   8.451
15550WAT     H146892   5.631   2.032   8.410
15550WAT     H246893   5.648   2.115   8.550
15551WAT      O46894   8.407   1.939   3.878
15551WAT     H146895   8.486   1.890   3.844
15551WAT     H246896   8.407   2.032   3.841
15552WAT      O46897   1.558   3.366   7.130
15552WAT     H146898   1.562   3.379   7.229
15552WAT     H246899   1.648   3.384   7.091
15553WAT      O46900   0.997   1.555   0.862
15553WAT     H146901   1.057   1.538   0.784
15553WAT     H246902   0.983   1.653   0.873
15554WAT      O46903   4.514   9.173   2.590
15554WAT     H146904   4.447   9.146   2.659
15554WAT     H246905   4.475   9.163   2.499
15555WAT      O46906   3.763   3.330   9.887
15555WAT     H146907   3.685   3.389   9.864
15555WAT     H246908   3.802   3.360   9.974
15556WAT      O46909   1.582   8.035   0.893
15556WAT     H146910   1.620   8.116   0.849
15556WAT     H246911   1.608   8.034   0.989
15557WAT      O46912   1.453   7.534   5.486
15557WAT     H146913   1.516   7.456   5.485
15557WAT     H246914   1.496   7.610   5.534
15558WAT      O46915   8.745   6.781   4.194
15558WAT     H146916   8.660   6.831   4.212
15558WAT     H246917   8.760   6.776   4.095
15559WAT      O46918   6.044   7.872   4.516
15559WAT     H146919   6.096   7.947   4.558
15559WAT     H246920   6.030   7.891   4.419
15560WAT      O46921   9.388   8.515   2.480
15560WAT     H146922   9.331   8.453   2.426
15560WAT     H246923   9.471   8.537   2.428
15561WAT      O46924   5.709   8.812   0.504
15561WAT     H146925   5.665   8.780   0.421
15561WAT     H246926   5.655   8.885   0.546
15562WAT      O46927   9.733   8.329   1.397
15562WAT     H146928   9.831   8.318   1.409
15562WAT     H246929   9.709   8.426   1.402
15563WAT      O46930   8.209   0.512   9.567
15563WAT     H146931   8.303   0.521   9.599
15563WAT     H246932   8.151   0.483   9.643
15564WAT      O46933   7.265   1.003   0.059
15564WAT     H146934   7.353   1.010   0.011
15564WAT     H246935   7.258   1.078   0.125
15565WAT      O46936   7.911   7.642   5.160
15565WAT     H146937   7.891   7.679   5.069
15565WAT     H246938   7.914   7.718   5.226
15566WAT      O46939   0.973   6.340   0.050
15566WAT     H146940   0.928   6.426   0.030
15566WAT     H246941   1.014   6.344   0.141
15567WAT      O46942   2.984   4.963   2.253
15567WAT     H146943   2.895   5.000   2.226
15567WAT     H246944   3.004   4.989   2.347
15568WAT      O46945   3.361   9.466   2.968
15568WAT     H146946   3.454   9.435   2.985
15568WAT     H246947   3.318   9.406   2.900
15569WAT      O46948   1.582   9.179   8.884
15569WAT     H146949   1.578   9.272   8.922
15569WAT     H246950   1.491   9.139   8.884
15570WAT      O46951   6.335   3.879   1.143
15570WAT     H146952   6.409   3.915   1.086
15570WAT     H246953   6.261   3.846   1.084
15571WAT      O46954   6.873   3.189   9.010
15571WAT     H146955   6.795   3.188   9.073
15571WAT     H246956   6.922   3.275   9.018
15572WAT      O46957   2.080   5.008   7.105
15572WAT     H146958   2.021   5.052   7.037
15572WAT     H246959   2.032   5.003   7.193
15573WAT      O46960   6.668   4.144   4.525
15573WAT     H146961   6.665   4.085   4.606
15573WAT     H246962   6.685   4.088   4.444
15574WAT      O46963   9.109   8.145   5.347
15574WAT     H146964   9.188   8.147   5.409
15574WAT     H246965   9.127   8.206   5.269
15575WAT      O46966   8.611   6.980   5.661
15575WAT     H146967   8.624   6.925   5.579
15575WAT     H246968   8.607   6.920   5.741
15576WAT      O46969   7.409   6.113   7.165
15576WAT     H146970   7.322   6.150   7.198
15576WAT     H246971   7.404   6.013   7.163
15577WAT      O46972   2.669   4.708   6.238
15577WAT     H146973   2.670   4.803   6.207
15577WAT     H246974   2.692   4.648   6.161
15578WAT      O46975   6.412   3.847   5.905
15578WAT     H146976   6.512   3.854   5.904
15578WAT     H246977   6.386   3.751   5.920
15579WAT      O46978   8.071   8.343   7.708
15579WAT     H146979   8.046   8.327   7.804
15579WAT     H246980   8.146   8.282   7.683
15580WAT      O46981   6.175   9.143   9.358
15580WAT     H146982   6.256   9.104   9.315
15580WAT     H246983   6.202   9.210   9.427
15581WAT      O46984   6.352   6.896   4.987
15581WAT     H146985   6.310   6.951   5.059
15581WAT     H246986   6.304   6.808   4.981
15582WAT      O46987   3.667   8.689   7.339
15582WAT     H146988   3.631   8.611   7.390
15582WAT     H246989   3.611   8.705   7.257
15583WAT      O46990   5.362   9.336   0.708
15583WAT     H146991   5.431   9.289   0.653
15583WAT     H246992   5.370   9.435   0.695
15584WAT      O46993   9.332   2.895   0.633
15584WAT     H146994   9.330   2.989   0.667
15584WAT     H246995   9.401   2.843   0.684
15585WAT      O46996   6.225   4.331   1.838
15585WAT     H146997   6.236   4.236   1.866
15585WAT     H246998   6.313   4.365   1.804
15586WAT      O46999   5.525   9.289   4.119
15586WAT     H147000   5.494   9.256   4.209
15586WAT     H247001   5.447   9.290   4.056
15587WAT      O47002   0.656   3.238   0.224
15587WAT     H147003   0.628   3.143   0.211
15587WAT     H247004   0.678   3.253   0.321
15588WAT      O47005   3.901   2.367   3.478
15588WAT     H147006   3.982   2.311   3.496
15588WAT     H247007   3.819   2.319   3.508
15589WAT      O47008   7.527   4.592   6.375
15589WAT     H147009   7.617   4.582   6.416
15589WAT     H247010   7.471   4.511   6.395
15590WAT      O47011   8.013   1.772   3.791
15590WAT     H147012   7.999   1.674   3.802
15590WAT     H247013   8.019   1.795   3.694
15591WAT      O47014   0.098   7.204   8.253
15591WAT     H147015   0.071   7.181   8.159
15591WAT     H247016   0.080   7.301   8.270
15592WAT      O47017   7.126   3.095   0.258
15592WAT     H147018   7.047   3.089   0.320
15592WAT     H247019   7.110   3.166   0.190
15593WAT      O47020   2.237   2.776   1.109
15593WAT     H147021   2.205   2.845   1.044
15593WAT     H247022   2.294   2.709   1.061
15594WAT      O47023   5.413   3.139   2.255
15594WAT     H147024   5.425   3.071   2.327
15594WAT     H247025   5.352   3.211   2.288
15595WAT      O47026   9.182   2.968   3.354
15595WAT     H147027   9.221   2.993   3.265
15595WAT     H247028   9.234   2.892   3.393
15596WAT      O47029   7.089   6.865   9.197
15596WAT     H147030   7.028   6.788   9.213
15596WAT     H247031   7.116   6.905   9.285
15597WAT      O47032   1.592   3.980   0.704
15597WAT     H147033   1.506   4.020   0.672
15597WAT     H247034   1.588   3.969   0.804
15598WAT      O47035   0.015   1.485   0.511
15598WAT     H147036   0.096   1.451   0.464
15598WAT     H247037  -0.065   1.433   0.482
15599WAT      O47038   1.929   4.749   7.275
15599WAT     H147039   1.930   4.681   7.348
15599WAT     H247040   1.844   4.801   7.279
15600WAT      O47041   9.748   3.456   0.418
15600WAT     H147042   9.667   3.467   0.475
15600WAT     H247043   9.788   3.545   0.399
15601WAT      O47044   8.061   2.304   4.136
15601WAT     H147045   7.992   2.234   4.158
15601WAT     H247046   8.086   2.353   4.219
15602WAT      O47047   6.612   3.728   1.198
15602WAT     H147048   6.655   3.783   1.270
15602WAT     H247049   6.519   3.763   1.182
15603WAT      O47050   0.551   6.301   2.063
15603WAT     H147051   0.628   6.345   2.018
15603WAT     H247052   0.555   6.202   2.048
15604WAT      O47053   3.673   4.205   0.903
15604WAT     H147054   3.647   4.217   0.807
15604WAT     H247055   3.595   4.225   0.962
15605WAT      O47056   1.109   6.806   8.179
15605WAT     H147057   1.060   6.790   8.093
15605WAT     H247058   1.071   6.747   8.250
15606WAT      O47059   7.042   1.983   2.411
15606WAT     H147060   6.991   1.898   2.423
15606WAT     H247061   7.140   1.965   2.421
15607WAT      O47062   0.279   7.064   3.886
15607WAT     H147063   0.290   7.097   3.979
15607WAT     H247064   0.286   7.141   3.822
15608WAT      O47065   8.646   7.853   0.259
15608WAT     H147066   8.609   7.937   0.220
15608WAT     H247067   8.741   7.867   0.286
15609WAT      O47068   1.101   3.761   7.028
15609WAT     H147069   1.085   3.690   6.961
15609WAT     H247070   1.015   3.807   7.049
15610WAT      O47071   2.217   6.414   3.585
15610WAT     H147072   2.166   6.386   3.666
15610WAT     H247073   2.285   6.344   3.562
15611WAT      O47074   7.875   9.487   8.471
15611WAT     H147075   7.962   9.498   8.423
15611WAT     H247076   7.843   9.576   8.503
15612WAT      O47077   9.772   9.188   1.058
15612WAT     H147078   9.797   9.173   1.153
15612WAT     H247079   9.703   9.120   1.030
15613WAT      O47080   6.747   7.543   2.734
15613WAT     H147081   6.820   7.500   2.786
15613WAT     H247082   6.780   7.568   2.644
15614WAT      O47083   9.206   4.267   9.733
15614WAT     H147084   9.163   4.343   9.684
15614WAT     H247085   9.305   4.281   9.737
15615WAT      O47086   1.582   9.444   8.921
15615WAT     H147087   1.565   9.447   9.020
15615WAT     H247088   1.676   9.471   8.902
15616WAT      O47089   4.933   5.850   1.364
15616WAT     H147090   4.990   5.869   1.285
15616WAT     H247091   4.840   5.882   1.347
15617WAT      O47092   6.648   6.898   0.610
15617WAT     H147093   6.619   6.884   0.516
15617WAT     H247094   6.568   6.897   0.670
15618WAT      O47095   4.367   2.582   2.229
15618WAT     H147096   4.342   2.485   2.236
15618WAT     H247097   4.305   2.628   2.166
15619WAT      O47098   7.923   4.995   5.953
15619WAT     H147099   8.003   5.014   6.009
15619WAT     H247100   7.952   4.950   5.868
15620WAT      O47101   7.134   2.197   5.143
15620WAT     H147102   7.154   2.130   5.071
15620WAT     H247103   7.214   2.255   5.157
15621WAT      O47104   8.011   9.354   2.529
15621WAT     H147105   8.005   9.318   2.436
15621WAT     H247106   7.986   9.451   2.528
15622WAT      O47107   7.987   6.575   9.517
15622WAT     H147108   7.962   6.596   9.612
15622WAT     H247109   7.954   6.648   9.457
15623WAT      O47110   8.839   1.607   5.920
15623WAT     H147111   8.860   1.549   5.999
15623WAT     H247112   8.884   1.696   5.932
15624WAT      O47113   2.786   0.678   2.097
15624WAT     H147114   2.837   0.600   2.060
15624WAT     H247115   2.718   0.645   2.163
15625WAT      O47116   4.054   4.870   3.546
15625WAT     H147117   4.015   4.829   3.628
15625WAT     H247118   4.009   4.833   3.465
15626WAT      O47119   7.820   8.231   8.246
15626WAT     H147120   7.721   8.232   8.242
15626WAT     H247121   7.855   8.142   8.217
15627WAT      O47122   1.628   4.880   8.374
15627WAT     H147123   1.640   4.979   8.367
15627WAT     H247124   1.543   4.853   8.328
15628WAT      O47125   2.082   1.136   2.454
15628WAT     H147126   2.062   1.232   2.471
15628WAT     H247127   2.179   1.125   2.432
15629WAT      O47128   5.172   3.333   9.162
15629WAT     H147129   5.110   3.257   9.139
15629WAT     H247130   5.148   3.369   9.253
15630WAT      O47131   9.218   7.040   9.245
15630WAT     H147132   9.184   7.040   9.151
15630WAT     H247133   9.243   6.947   9.272
15631WAT      O47134   6.913   0.791   9.178
15631WAT     H147135   7.006   0.772   9.208
15631WAT     H247136   6.899   0.889   9.173
15632WAT      O47137   3.301   8.403   8.825
15632WAT     H147138   3.347   8.483   8.863
15632WAT     H247139   3.352   8.321   8.849
15633WAT      O47140   3.072   9.175   2.493
15633WAT     H147141   3.033   9.267   2.496
15633WAT     H247142   3.015   9.112   2.545
15634WAT      O47143   5.711   7.948   6.389
15634WAT     H147144   5.641   7.998   6.337
15634WAT     H247145   5.705   7.850   6.367
15635WAT      O47146   7.589   5.666   1.749
15635WAT     H147147   7.570   5.752   1.701
15635WAT     H247148   7.687   5.647   1.744
15636WAT      O47149   8.419   2.091   5.229
15636WAT     H147150   8.402   2.066   5.325
15636WAT     H247151   8.423   2.190   5.220
15637WAT      O47152   7.493   1.303   6.420
15637WAT     H147153   7.559   1.318   6.346
15637WAT     H247154   7.510   1.370   6.493
15638WAT      O47155   7.510   6.644   0.397
15638WAT     H147156   7.561   6.705   0.457
15638WAT     H247157   7.414   6.672   0.396
15639WAT      O47158   5.067   2.436   2.811
15639WAT     H147159   5.080   2.467   2.717
15639WAT     H247160   4.982   2.475   2.847
15640WAT      O47161   1.558   0.007   4.469
15640WAT     H147162   1.567   0.052   4.559
15640WAT     H247163   1.513  -0.081   4.481
15641WAT      O47164   0.622   9.453   5.301
15641WAT     H147165   0.702   9.448   5.360
15641WAT     H247166   0.608   9.548   5.272
15642WAT      O47167   7.209   7.914   7.974
15642WAT     H147168   7.138   7.976   7.942
15642WAT     H247169   7.193   7.822   7.936
15643WAT      O47170   4.912   5.456   2.581
15643WAT     H147171   4.935   5.422   2.489
15643WAT     H247172   4.966   5.538   2.600
15644WAT      O47173   7.920   8.578   4.715
15644WAT     H147174   7.972   8.606   4.634
15644WAT     H247175   7.835   8.533   4.686
15645WAT      O47176   3.242   3.930   3.084
15645WAT     H147177   3.273   4.016   3.124
15645WAT     H247178   3.247   3.858   3.154
15646WAT      O47179   7.126   4.845   1.172
15646WAT     H147180   7.064   4.767   1.170
15646WAT     H247181   7.130   4.888   1.082
15647WAT      O47182   9.571   8.329   4.195
15647WAT     H147183   9.554   8.319   4.097
15647WAT     H247184   9.657   8.379   4.209
15648WAT      O47185   9.258   0.511   1.102
15648WAT     H147186   9.160   0.532   1.090
15648WAT     H247187   9.290   0.459   1.023
15649WAT      O47188   8.833   3.122   3.041
15649WAT     H147189   8.803   3.156   3.130
15649WAT     H247190   8.754   3.111   2.981
15650WAT      O47191   6.105   3.286   2.430
15650WAT     H147192   6.010   3.284   2.398
15650WAT     H247193   6.129   3.380   2.455
15651WAT      O47194   5.892   2.659   5.868
15651WAT     H147195   5.893   2.622   5.775
15651WAT     H247196   5.798   2.661   5.902
15652WAT      O47197   7.447   1.529   2.897
15652WAT     H147198   7.543   1.553   2.885
15652WAT     H247199   7.436   1.480   2.984
15653WAT      O47200   7.500   3.125   6.038
15653WAT     H147201   7.582   3.174   6.067
15653WAT     H247202   7.427   3.190   6.018
15654WAT      O47203   3.744   4.917   3.158
15654WAT     H147204   3.646   4.933   3.142
15654WAT     H247205   3.797   4.992   3.119
15655WAT      O47206   6.681   4.197   5.155
15655WAT     H147207   6.688   4.187   5.254
15655WAT     H247208   6.612   4.134   5.119
15656WAT      O47209   7.180   6.779   0.706
15656WAT     H147210   7.119   6.804   0.781
15656WAT     H247211   7.241   6.856   0.686
15657WAT      O47212   2.787   1.208   0.657
15657WAT     H147213   2.796   1.111   0.676
15657WAT     H247214   2.826   1.229   0.567
15658WAT      O47215   2.055   5.235   6.905
15658WAT     H147216   2.148   5.203   6.885
15658WAT     H247217   2.032   5.310   6.844
15659WAT      O47218   6.257   9.323   3.950
15659WAT     H147219   6.169   9.362   3.975
15659WAT     H247220   6.244   9.231   3.914
15660WAT      O47221   2.264   5.960   9.017
15660WAT     H147222   2.293   5.901   9.093
15660WAT     H247223   2.259   5.906   8.933
15661WAT      O47224   3.431   7.506   3.580
15661WAT     H147225   3.366   7.430   3.577
15661WAT     H247226   3.518   7.477   3.540
15662WAT      O47227   1.454   5.042   8.633
15662WAT     H147228   1.447   4.942   8.632
15662WAT     H247229   1.549   5.068   8.613
15663WAT      O47230   6.022   6.930   9.802
15663WAT     H147231   5.946   6.894   9.857
15663WAT     H247232   5.999   7.022   9.770
15664WAT      O47233   3.948   2.572   0.091
15664WAT     H147234   3.970   2.635   0.165
15664WAT     H247235   4.008   2.589   0.013
15665WAT      O47236   6.196   8.680   1.128
15665WAT     H147237   6.190   8.642   1.035
15665WAT     H247238   6.117   8.649   1.181
15666WAT      O47239   9.786   9.305   8.052
15666WAT     H147240   9.780   9.216   8.007
15666WAT     H247241   9.882   9.332   8.060
15667WAT      O47242   7.328   6.494   7.368
15667WAT     H147243   7.245   6.471   7.318
15667WAT     H247244   7.407   6.483   7.308
15668WAT      O47245   2.008   9.192   5.524
15668WAT     H147246   1.953   9.201   5.441
15668WAT     H247247   2.062   9.108   5.518
15669WAT      O47248   8.633   1.571   0.221
15669WAT     H147249   8.707   1.542   0.281
15669WAT     H247250   8.666   1.575   0.127
15670WAT      O47251   4.649   7.520   0.047
15670WAT     H147252   4.661   7.606   0.096
15670WAT     H247253   4.586   7.462   0.098
15671WAT      O47254   1.594   5.008   6.511
15671WAT     H147255   1.508   4.975   6.471
15671WAT     H247256   1.627   5.085   6.457
15672WAT      O47257   0.675   4.114   7.151
15672WAT     H147258   0.739   4.186   7.179
15672WAT     H247259   0.724   4.028   7.137
15673WAT      O47260   2.978   0.481   4.683
15673WAT     H147261   3.070   0.519   4.700
15673WAT     H247262   2.943   0.516   4.596
15674WAT      O47263   7.459   8.563   9.152
15674WAT     H147264   7.362   8.579   9.168
15674WAT     H247265   7.483   8.591   9.059
15675WAT      O47266   6.846   0.580   7.396
15675WAT     H147267   6.832   0.611   7.302
15675WAT     H247268   6.801   0.643   7.459
15676WAT      O47269   9.382   7.746   5.547
15676WAT     H147270   9.443   7.825   5.556
15676WAT     H247271   9.290   7.778   5.523
15677WAT      O47272   7.137   9.448   7.841
15677WAT     H147273   7.184   9.392   7.909
15677WAT     H247274   7.084   9.519   7.887
15678WAT      O47275   3.420   3.479   3.445
15678WAT     H147276   3.359   3.558   3.437
15678WAT     H247277   3.511   3.510   3.473
15679WAT      O47278   8.538   3.789   4.640
15679WAT     H147279   8.605   3.715   4.634
15679WAT     H247280   8.562   3.861   4.575
15680WAT      O47281   2.664   5.481   1.897
15680WAT     H147282   2.763   5.475   1.912
15680WAT     H247283   2.625   5.388   1.894
15681WAT      O47284   1.147   3.135   5.133
15681WAT     H147285   1.179   3.092   5.049
15681WAT     H247286   1.092   3.071   5.185
15682WAT      O47287   7.988   1.580   8.401
15682WAT     H147288   8.035   1.507   8.351
15682WAT     H247289   7.967   1.655   8.338
15683WAT      O47290   7.074   1.496   7.615
15683WAT     H147291   7.070   1.573   7.552
15683WAT     H247292   7.168   1.483   7.646
15684WAT      O47293   8.432   7.315   6.809
15684WAT     H147294   8.393   7.247   6.872
15684WAT     H247295   8.504   7.272   6.754
15685WAT      O47296   6.859   9.757   3.317
15685WAT     H147297   6.831   9.764   3.413
15685WAT     H247298   6.785   9.716   3.264
15686WAT      O47299   7.465   2.883   9.513
15686WAT     H147300   7.370   2.885   9.546
15686WAT     H247301   7.466   2.890   9.414
15687WAT      O47302   3.768   8.528   2.184
15687WAT     H147303   3.864   8.501   2.186
15687WAT     H247304   3.754   8.596   2.112
15688WAT      O47305   6.865   0.196   0.777
15688WAT     H147306   6.963   0.212   0.788
15688WAT     H247307   6.838   0.118   0.834
15689WAT      O47308   1.087   8.582   0.559
15689WAT     H147309   1.014   8.523   0.524
15689WAT     H247310   1.051   8.640   0.632
15690WAT      O47311   6.605   8.751   8.617
15690WAT     H147312   6.557   8.701   8.545
15690WAT     H247313   6.673   8.812   8.575
15691WAT      O47314   4.495   7.500   4.929
15691WAT     H147315   4.532   7.590   4.905
15691WAT     H247316   4.540   7.430   4.875
15692WAT      O47317   0.692   4.271   7.814
15692WAT     H147318   0.746   4.326   7.877
15692WAT     H247319   0.638   4.204   7.866
15693WAT      O47320   7.136   8.007   6.766
15693WAT     H147321   7.163   7.920   6.808
15693WAT     H247322   7.210   8.073   6.774
15694WAT      O47323   6.645   7.793   2.314
15694WAT     H147324   6.722   7.786   2.250
15694WAT     H247325   6.667   7.860   2.385
15695WAT      O47326   9.859   5.423   2.746
15695WAT     H147327   9.951   5.444   2.712
15695WAT     H247328   9.791   5.461   2.684
15696WAT      O47329   8.130   9.336   0.764
15696WAT     H147330   8.183   9.257   0.733
15696WAT     H247331   8.033   9.314   0.764
15697WAT      O47332   5.242   8.506   7.235
15697WAT     H147333   5.320   8.568   7.223
15697WAT     H247334   5.257   8.449   7.316
15698WAT      O47335   5.315   9.090   7.761
15698WAT     H147336   5.374   9.166   7.787
15698WAT     H247337   5.366   9.026   7.704
15699WAT      O47338   0.484   1.357   1.482
15699WAT     H147339   0.473   1.279   1.544
15699WAT     H247340   0.575   1.353   1.440
15700WAT      O47341   1.886   6.233   3.365
15700WAT     H147342   1.825   6.194   3.434
15700WAT     H247343   1.970   6.264   3.409
15701WAT      O47344   9.789   4.209   7.604
15701WAT     H147345   9.741   4.232   7.689
15701WAT     H247346   9.722   4.202   7.530
15702WAT      O47347   3.302   1.294   6.843
15702WAT     H147348   3.301   1.384   6.799
15702WAT     H247349   3.208   1.265   6.860
15703WAT      O47350   2.150   2.926   5.086
15703WAT     H147351   2.061   2.887   5.111
15703WAT     H247352   2.153   2.940   4.987
15704WAT      O47353   3.304   4.831   4.154
15704WAT     H147354   3.291   4.732   4.154
15704WAT     H247355   3.273   4.869   4.066
15705WAT      O47356   4.814   9.010   8.989
15705WAT     H147357   4.814   9.031   8.891
15705WAT     H247358   4.727   8.967   9.013
15706WAT      O47359   7.973   2.186   5.636
15706WAT     H147360   7.954   2.274   5.592
15706WAT     H247361   7.994   2.118   5.566
15707WAT      O47362   9.381   7.481   2.150
15707WAT     H147363   9.437   7.536   2.212
15707WAT     H247364   9.320   7.422   2.203
15708WAT      O47365   1.365   3.330   6.351
15708WAT     H147366   1.314   3.247   6.372
15708WAT     H247367   1.303   3.408   6.352
15709WAT      O47368   5.016   1.063   3.378
15709WAT     H147369   5.080   0.990   3.403
15709WAT     H247370   5.046   1.149   3.419
15710WAT      O47371   3.034   3.010   7.185
15710WAT     H147372   3.127   2.989   7.215
15710WAT     H247373   3.021   3.109   7.182
15711WAT      O47374   8.405   6.677   4.908
15711WAT     H147375   8.454   6.633   4.833
15711WAT     H247376   8.471   6.708   4.977
15712WAT      O47377   1.656   4.912   0.451
15712WAT     H147378   1.624   4.870   0.536
15712WAT     H247379   1.685   5.006   0.469
15713WAT      O47380   9.216   3.059   5.059
15713WAT     H147381   9.315   3.066   5.048
15713WAT     H247382   9.190   2.963   5.063
15714WAT      O47383   7.407   2.404   4.648
15714WAT     H147384   7.461   2.329   4.609
15714WAT     H247385   7.310   2.383   4.639
15715WAT      O47386   2.965   1.369   9.254
15715WAT     H147387   2.976   1.329   9.345
15715WAT     H247388   3.019   1.452   9.247
15716WAT      O47389   0.447   1.440   8.690
15716WAT     H147390   0.370   1.430   8.753
15716WAT     H247391   0.494   1.527   8.708
15717WAT      O47392   4.020   9.386   8.596
15717WAT     H147393   4.106   9.347   8.565
15717WAT     H247394   4.036   9.447   8.673
15718WAT      O47395   8.415   8.766   2.675
15718WAT     H147396   8.327   8.810   2.691
15718WAT     H247397   8.427   8.691   2.740
15719WAT      O47398   6.589   0.727   5.173
15719WAT     H147399   6.546   0.640   5.146
15719WAT     H247400   6.595   0.732   5.273
15720WAT      O47401   6.578   1.930   6.672
15720WAT     H147402   6.644   1.865   6.709
15720WAT     H247403   6.490   1.884   6.658
15721WAT      O47404   0.247   5.533   5.812
15721WAT     H147405   0.237   5.491   5.902
15721WAT     H247406   0.341   5.566   5.801
15722WAT      O47407   6.118   1.367   7.158
15722WAT     H147408   6.163   1.456   7.148
15722WAT     H247409   6.060   1.368   7.240
15723WAT      O47410   3.282   6.832   3.954
15723WAT     H147411   3.264   6.928   3.975
15723WAT     H247412   3.376   6.810   3.980
15724WAT      O47413   8.731   4.077   1.861
15724WAT     H147414   8.711   4.170   1.890
15724WAT     H247415   8.766   4.024   1.938
15725WAT      O47416   2.209   4.151   5.581
15725WAT     H147417   2.123   4.155   5.632
15725WAT     H247418   2.209   4.069   5.523
15726WAT      O47419   9.077   3.138   3.930
15726WAT     H147420   9.071   3.224   3.879
15726WAT     H247421   9.167   3.096   3.914
15727WAT      O47422   2.906   9.054   7.795
15727WAT     H147423   3.002   9.076   7.776
15727WAT     H247424   2.890   9.060   7.893
15728WAT      O47425   8.009   2.049   7.001
15728WAT     H147426   8.074   2.081   7.070
15728WAT     H247427   7.927   2.106   7.003
15729WAT      O47428   2.566   8.652   8.183
15729WAT     H147429   2.584   8.640   8.085
15729WAT     H247430   2.491   8.592   8.211
15730WAT      O47431   2.324   4.018   3.373
15730WAT     H147432   2.390   4.067   3.430
15730WAT     H247433   2.346   4.034   3.276
15731WAT      O47434   8.508   3.633   8.968
15731WAT     H147435   8.457   3.612   9.052
15731WAT     H247436   8.503   3.555   8.906
15732WAT      O47437   2.019   1.836   6.833
15732WAT     H147438   2.083   1.891   6.888
15732WAT     H247439   2.008   1.746   6.876
15733WAT      O47440   2.646   9.555   9.376
15733WAT     H147441   2.573   9.487   9.377
15733WAT     H247442   2.734   9.510   9.361
15734WAT      O47443   1.208   8.031   1.589
15734WAT     H147444   1.120   8.027   1.541
15734WAT     H247445   1.252   7.941   1.586
15735WAT      O47446   5.641   7.469   2.443
15735WAT     H147447   5.635   7.374   2.472
15735WAT     H247448   5.609   7.529   2.517
15736WAT      O47449   8.620   8.852   4.654
15736WAT     H147450   8.602   8.837   4.752
15736WAT     H247451   8.690   8.788   4.623
15737WAT      O47452   5.258   9.042   8.291
15737WAT     H147453   5.308   8.997   8.217
15737WAT     H247454   5.162   9.015   8.288
15738WAT      O47455   3.487   0.176   4.945
15738WAT     H147456   3.556   0.239   4.983
15738WAT     H247457   3.503   0.165   4.847
15739WAT      O47458   3.045   8.901   5.891
15739WAT     H147459   3.027   8.999   5.894
15739WAT     H247460   2.973   8.855   5.839
15740WAT      O47461   7.891   8.825   0.364
15740WAT     H147462   7.820   8.782   0.420
15740WAT     H247463   7.929   8.758   0.300
15741WAT      O47464   2.379   7.969   4.799
15741WAT     H147465   2.421   7.881   4.820
15741WAT     H247466   2.284   7.955   4.772
15742WAT      O47467   7.076   4.901   4.884
15742WAT     H147468   7.029   4.816   4.909
15742WAT     H247469   7.013   4.978   4.894
15743WAT      O47470   6.787   5.445   1.601
15743WAT     H147471   6.735   5.457   1.516
15743WAT     H247472   6.800   5.534   1.645
15744WAT      O47473   9.401   9.555   4.855
15744WAT     H147474   9.449   9.562   4.943
15744WAT     H247475   9.458   9.597   4.784
15745WAT      O47476   1.934   8.108   9.555
15745WAT     H147477   2.014   8.048   9.544
15745WAT     H247478   1.920   8.127   9.652
15746WAT      O47479   1.696   4.883   5.895
15746WAT     H147480   1.640   4.830   5.830
15746WAT     H247481   1.660   4.869   5.988
15747WAT      O47482   3.980   6.362   0.206
15747WAT     H147483   4.010   6.302   0.280
15747WAT     H247484   4.012   6.326   0.118
15748WAT      O47485   9.630   9.590   6.025
15748WAT     H147486   9.656   9.578   5.929
15748WAT     H247487   9.713   9.594   6.081
15749WAT      O47488   0.421   5.366   7.780
15749WAT     H147489   0.483   5.356   7.858
15749WAT     H247490   0.447   5.301   7.708
15750WAT      O47491   5.088   6.241   1.938
15750WAT     H147492   5.124   6.256   2.030
15750WAT     H247493   5.068   6.144   1.927
15751WAT      O47494   4.446   1.309   2.922
15751WAT     H147495   4.386   1.348   2.852
15751WAT     H247496   4.421   1.346   3.011
15752WAT      O47497   9.703   6.177   0.839
15752WAT     H147498   9.643   6.100   0.818
15752WAT     H247499   9.794   6.143   0.862
15753WAT      O47500   8.461   9.749   2.828
15753WAT     H147501   8.471   9.684   2.904
15753WAT     H247502   8.404   9.707   2.757
15754WAT      O47503   0.354   3.684   8.986
15754WAT     H147504   0.263   3.691   9.028
15754WAT     H247505   0.412   3.625   9.043
15755WAT      O47506   6.349   6.722   0.627
15755WAT     H147507   6.394   6.772   0.700
15755WAT     H247508   6.253   6.707   0.651
15756WAT      O47509   4.011   1.365   3.675
15756WAT     H147510   4.056   1.337   3.760
15756WAT     H247511   3.941   1.433   3.695
15757WAT      O47512   8.594   7.061   2.122
15757WAT     H147513   8.535   7.129   2.163
15757WAT     H247514   8.676   7.049   2.178
15758WAT      O47515   2.217   9.058   7.980
15758WAT     H147516   2.298   9.092   8.029
15758WAT     H247517   2.143   9.043   8.045
15759WAT      O47518   0.764   0.814   8.319
15759WAT     H147519   0.827   0.826   8.395
15759WAT     H247520   0.675   0.855   8.342
15760WAT      O47521   0.838   1.129   4.969
15760WAT     H147522   0.873   1.036   4.958
15760WAT     H247523   0.788   1.136   5.055
15761WAT      O47524   6.984   8.369   2.094
15761WAT     H147525   7.000   8.360   2.192
15761WAT     H247526   6.943   8.284   2.060
15762WAT      O47527   6.145   7.450   3.645
15762WAT     H147528   6.226   7.393   3.630
15762WAT     H247529   6.172   7.546   3.652
15763WAT      O47530   8.894   0.045   9.760
15763WAT     H147531   8.869  -0.014   9.837
15763WAT     H247532   8.972   0.006   9.712
15764WAT      O47533   1.120   9.794   4.356
15764WAT     H147534   1.135   9.842   4.443
15764WAT     H247535   1.200   9.738   4.335
15765WAT      O47536   9.739   9.098   4.568
15765WAT     H147537   9.704   9.019   4.619
15765WAT     H247538   9.663   9.155   4.539
15766WAT      O47539   2.976   0.221   9.421
15766WAT     H147540   3.073   0.239   9.439
15766WAT     H247541   2.938   0.295   9.366
15767WAT      O47542   7.864   6.307   5.311
15767WAT     H147543   7.871   6.230   5.374
15767WAT     H247544   7.953   6.323   5.268
15768WAT      O47545   4.401   2.020   9.384
15768WAT     H147546   4.401   2.027   9.284
15768WAT     H247547   4.475   2.076   9.422
15769WAT      O47548   2.872   6.744   2.785
15769WAT     H147549   2.897   6.659   2.831
15769WAT     H247550   2.884   6.734   2.686
15770WAT      O47551   3.478   0.730   6.467
15770WAT     H147552   3.517   0.680   6.390
15770WAT     H247553   3.530   0.815   6.481
15771WAT      O47554   4.874   0.524   3.034
15771WAT     H147555   4.943   0.552   3.101
15771WAT     H247556   4.783   0.541   3.072
15772WAT      O47557   4.255   4.883   2.132
15772WAT     H147558   4.319   4.957   2.153
15772WAT     H247559   4.171   4.922   2.094
15773WAT      O47560   6.964   8.404   2.455
15773WAT     H147561   6.996   8.473   2.520
15773WAT     H247562   6.871   8.426   2.426
15774WAT      O47563   2.218   5.717   1.373
15774WAT     H147564   2.191   5.810   1.398
15774WAT     H247565   2.307   5.696   1.414
15775WAT      O47566   3.168   8.208   9.785
15775WAT     H147567   3.116   8.225   9.701
15775WAT     H247568   3.253   8.260   9.784
15776WAT      O47569   0.542   8.483   9.041
15776WAT     H147570   0.580   8.527   8.960
15776WAT     H247571   0.498   8.397   9.016
15777WAT      O47572   1.764   7.478   7.959
15777WAT     H147573   1.849   7.432   7.934
15777WAT     H247574   1.698   7.470   7.884
15778WAT      O47575   0.852   6.342   1.440
15778WAT     H147576   0.905   6.266   1.479
15778WAT     H247577   0.869   6.347   1.341
15779WAT      O47578   5.363   5.831   9.362
15779WAT     H147579   5.439   5.776   9.396
15779WAT     H247580   5.346   5.907   9.426
15780WAT      O47581   6.879   6.825   8.905
15780WAT     H147582   6.886   6.734   8.946
15780WAT     H247583   6.795   6.830   8.850
15781WAT      O47584   8.642   8.860   2.552
15781WAT     H147585   8.660   8.814   2.464
15781WAT     H247586   8.566   8.815   2.598
15782WAT      O47587   7.128   1.804   9.624
15782WAT     H147588   7.038   1.788   9.584
15782WAT     H247589   7.199   1.772   9.560
15783WAT      O47590   9.576   4.312   8.274
15783WAT     H147591   9.525   4.266   8.201
15783WAT     H247592   9.626   4.244   8.328
15784WAT      O47593   7.755   6.879   6.448
15784WAT     H147594   7.686   6.845   6.385
15784WAT     H247595   7.723   6.964   6.490
15785WAT      O47596   9.386   8.687   5.760
15785WAT     H147597   9.482   8.704   5.739
15785WAT     H247598   9.374   8.686   5.860
15786WAT      O47599   1.028   1.606   8.432
15786WAT     H147600   0.928   1.599   8.427
15786WAT     H247601   1.060   1.566   8.517
15787WAT      O47602   8.889   2.579   4.000
15787WAT     H147603   8.806   2.583   4.055
15787WAT     H247604   8.884   2.647   3.927
15788WAT      O47605   7.064   9.704   1.342
15788WAT     H147606   7.119   9.782   1.314
15788WAT     H247607   7.048   9.708   1.440
15789WAT      O47608   7.223   4.463   7.295
15789WAT     H147609   7.254   4.458   7.200
15789WAT     H247610   7.288   4.517   7.348
15790WAT      O47611   8.890   4.064   3.158
15790WAT     H147612   8.967   4.024   3.207
15790WAT     H247613   8.907   4.058   3.059
15791WAT      O47614   5.817   6.663   2.302
15791WAT     H147615   5.726   6.622   2.314
15791WAT     H247616   5.818   6.753   2.346
15792WAT      O47617   9.646   4.069   3.293
15792WAT     H147618   9.567   4.128   3.282
15792WAT     H247619   9.657   4.012   3.211
15793WAT      O47620   3.928   9.594   4.946
15793WAT     H147621   3.971   9.590   5.036
15793WAT     H247622   3.948   9.509   4.896
15794WAT      O47623   0.135   6.846   9.306
15794WAT     H147624   0.089   6.757   9.298
15794WAT     H247625   0.170   6.873   9.216
15795WAT      O47626   7.937   0.381   2.483
15795WAT     H147627   7.843   0.393   2.450
15795WAT     H247628   7.954   0.284   2.500
15796WAT      O47629   8.583   9.480   3.657
15796WAT     H147630   8.627   9.402   3.702
15796WAT     H247631   8.593   9.561   3.715
15797WAT      O47632   7.677   5.618   8.122
15797WAT     H147633   7.700   5.712   8.098
15797WAT     H247634   7.738   5.555   8.073
15798WAT      O47635   3.033   3.309   6.852
15798WAT     H147636   3.021   3.399   6.810
15798WAT     H247637   2.995   3.310   6.944
15799WAT      O47638   4.109   5.125   0.533
15799WAT     H147639   4.062   5.118   0.621
15799WAT     H247640   4.043   5.116   0.459
15800WAT      O47641   3.508   6.069   7.059
15800WAT     H147642   3.473   5.989   7.009
15800WAT     H247643   3.436   6.104   7.120
15801WAT      O47644   4.503   4.793   5.764
15801WAT     H147645   4.449   4.712   5.785
15801WAT     H247646   4.465   4.840   5.685
15802WAT      O47647   7.220   8.228   6.944
15802WAT     H147648   7.135   8.277   6.963
15802WAT     H247649   7.290   8.293   6.914
15803WAT      O47650   8.314   3.460   3.113
15803WAT     H147651   8.263   3.449   3.198
15803WAT     H247652   8.303   3.378   3.057
15804WAT      O47653   2.803   4.960   5.571
15804WAT     H147654   2.882   4.899   5.582
15804WAT     H247655   2.743   4.924   5.500
15805WAT      O47656   1.092   5.176   2.959
15805WAT     H147657   1.174   5.218   2.997
15805WAT     H247658   1.014   5.193   3.019
15806WAT      O47659   3.365   2.798   1.305
15806WAT     H147660   3.386   2.855   1.384
15806WAT     H247661   3.300   2.727   1.331
15807WAT      O47662   4.668   6.051   2.699
15807WAT     H147663   4.679   6.005   2.611
15807WAT     H247664   4.642   5.984   2.768
15808WAT      O47665   7.312   4.147   1.148
15808WAT     H147666   7.236   4.159   1.084
15808WAT     H247667   7.290   4.190   1.235
15809WAT      O47668   2.051   8.063   7.266
15809WAT     H147669   2.090   8.007   7.339
15809WAT     H247670   2.122   8.121   7.226
15810WAT      O47671   6.358   7.368   3.245
15810WAT     H147672   6.317   7.457   3.264
15810WAT     H247673   6.457   7.376   3.241
15811WAT      O47674   7.680   9.143   7.688
15811WAT     H147675   7.596   9.191   7.712
15811WAT     H247676   7.664   9.044   7.693
15812WAT      O47677   5.580   8.119   7.246
15812WAT     H147678   5.619   8.189   7.306
15812WAT     H247679   5.547   8.161   7.162
15813WAT      O47680   2.718   7.349   9.426
15813WAT     H147681   2.741   7.252   9.433
15813WAT     H247682   2.802   7.402   9.412
15814WAT      O47683   5.577   6.039   0.982
15814WAT     H147684   5.479   6.037   0.966
15814WAT     H247685   5.620   6.109   0.925
15815WAT      O47686   5.039   7.096   3.406
15815WAT     H147687   5.108   7.081   3.336
15815WAT     H247688   4.948   7.091   3.365
15816WAT      O47689   8.209   1.660   4.916
15816WAT     H147690   8.255   1.742   4.950
15816WAT     H247691   8.253   1.629   4.832
15817WAT      O47692   7.130   1.634   6.346
15817WAT     H147693   7.122   1.543   6.306
15817WAT     H247694   7.064   1.644   6.421
15818WAT      O47695   5.402   3.427   5.503
15818WAT     H147696   5.440   3.520   5.501
15818WAT     H247697   5.464   3.365   5.455
15819WAT      O47698   5.674   1.980   7.712
15819WAT     H147699   5.574   1.980   7.711
15819WAT     H247700   5.707   1.891   7.742
15820WAT      O47701   4.576   8.699   6.317
15820WAT     H147702   4.480   8.670   6.320
15820WAT     H247703   4.616   8.688   6.408
15821WAT      O47704   6.295   8.823   8.243
15821WAT     H147705   6.288   8.839   8.341
15821WAT     H247706   6.345   8.898   8.200
15822WAT      O47707   1.054   7.326   2.548
15822WAT     H147708   1.102   7.343   2.634
15822WAT     H247709   0.955   7.325   2.565
15823WAT      O47710   1.158   1.370   0.696
15823WAT     H147711   1.235   1.319   0.656
15823WAT     H247712   1.086   1.379   0.628
15824WAT      O47713   3.130   2.213   1.639
15824WAT     H147714   3.149   2.233   1.543
15824WAT     H247715   3.106   2.298   1.686
15825WAT      O47716   8.361   0.535   2.103
15825WAT     H147717   8.321   0.453   2.144
15825WAT     H247718   8.461   0.527   2.103
15826WAT      O47719   8.577   8.842   6.029
15826WAT     H147720   8.486   8.803   6.039
15826WAT     H247721   8.606   8.835   5.934
15827WAT      O47722   2.328   9.794   7.874
15827WAT     H147723   2.308   9.891   7.868
15827WAT     H247724   2.310   9.751   7.785
15828WAT      O47725   4.778   2.415   2.536
15828WAT     H147726   4.781   2.514   2.523
15828WAT     H247727   4.755   2.370   2.450
15829WAT      O47728   3.508   0.004   7.572
15829WAT     H147729   3.411   0.026   7.572
15829WAT     H247730   3.523  -0.082   7.621
15830WAT      O47731   6.065   4.678   0.914
15830WAT     H147732   6.002   4.702   0.840
15830WAT     H247733   6.075   4.755   0.977
15831WAT      O47734   8.878   4.720   3.526
15831WAT     H147735   8.827   4.744   3.608
15831WAT     H247736   8.824   4.743   3.445
15832WAT      O47737   6.179   3.405   9.827
15832WAT     H147738   6.249   3.416   9.898
15832WAT     H247739   6.095   3.450   9.856
15833WAT      O47740   1.055   0.792   4.170
15833WAT     H147741   1.033   0.883   4.207
15833WAT     H247742   1.079   0.800   4.074
15834WAT      O47743   3.936   6.606   1.747
15834WAT     H147744   3.975   6.659   1.821
15834WAT     H247745   3.854   6.652   1.713
15835WAT      O47746   2.287   2.371   3.745
15835WAT     H147747   2.269   2.406   3.837
15835WAT     H247748   2.285   2.446   3.680
15836WAT      O47749   2.562   5.070   5.045
15836WAT     H147750   2.602   5.010   4.976
15836WAT     H247751   2.469   5.095   5.017
15837WAT      O47752   7.185   2.475   9.560
15837WAT     H147753   7.165   2.563   9.517
15837WAT     H247754   7.273   2.480   9.607
15838WAT      O47755   9.401   8.605   0.007
15838WAT     H147756   9.375   8.607   0.104
15838WAT     H247757   9.325   8.641  -0.048
15839WAT      O47758   2.070   1.118   9.853
15839WAT     H147759   2.105   1.132   9.760
15839WAT     H247760   2.138   1.070   9.908
15840WAT      O47761   9.557   2.496   3.141
15840WAT     H147762   9.524   2.420   3.086
15840WAT     H247763   9.502   2.502   3.225
15841WAT      O47764   8.618   0.247   5.009
15841WAT     H147765   8.695   0.250   5.072
15841WAT     H247766   8.607   0.335   4.964
15842WAT      O47767   3.253   3.803   3.692
15842WAT     H147768   3.339   3.778   3.737
15842WAT     H247769   3.183   3.735   3.713
15843WAT      O47770   5.087   2.011   0.576
15843WAT     H147771   5.144   2.085   0.612
15843WAT     H247772   5.050   1.957   0.651
15844WAT      O47773   7.339   9.140   2.632
15844WAT     H147774   7.392   9.206   2.685
15844WAT     H247775   7.259   9.184   2.593
15845WAT      O47776   0.011   1.382   0.804
15845WAT     H147777  -0.018   1.429   0.721
15845WAT     H247778   0.062   1.446   0.862
15846WAT      O47779   8.458   7.508   0.555
15846WAT     H147780   8.462   7.581   0.624
15846WAT     H247781   8.524   7.528   0.483
15847WAT      O47782   3.431   1.032   5.602
15847WAT     H147783   3.441   0.941   5.643
15847WAT     H247784   3.479   1.035   5.515
15848WAT      O47785   3.252   7.171   5.418
15848WAT     H147786   3.286   7.212   5.502
15848WAT     H247787   3.152   7.162   5.423
15849WAT      O47788   4.077   8.986   7.217
15849WAT     H147789   4.063   9.041   7.299
15849WAT     H247790   4.175   8.982   7.196
15850WAT      O47791   3.321   7.468   0.675
15850WAT     H147792   3.295   7.545   0.617
15850WAT     H247793   3.339   7.387   0.618
15851WAT      O47794   2.921   2.769   1.913
15851WAT     H147795   2.840   2.827   1.927
15851WAT     H247796   2.896   2.688   1.860
15852WAT      O47797   3.564   9.680   9.171
15852WAT     H147798   3.499   9.704   9.243
15852WAT     H247799   3.514   9.664   9.085
15853WAT      O47800   6.009   3.265   6.399
15853WAT     H147801   6.009   3.348   6.343
15853WAT     H247802   5.966   3.284   6.487
15854WAT      O47803   8.706   4.561   3.076
15854WAT     H147804   8.647   4.568   3.157
15854WAT     H247805   8.743   4.469   3.070
15855WAT      O47806   9.181   3.793   6.949
15855WAT     H147807   9.157   3.877   6.902
15855WAT     H247808   9.153   3.714   6.893
15856WAT      O47809   7.239   3.106   7.894
15856WAT     H147810   7.266   3.140   7.984
15856WAT     H247811   7.155   3.152   7.865
15857WAT      O47812   7.918   4.186   3.932
15857WAT     H147813   7.969   4.100   3.938
15857WAT     H247814   7.892   4.216   4.024
15858WAT      O47815   1.738   4.616   8.277
15858WAT     H147816   1.768   4.532   8.230
15858WAT     H247817   1.639   4.614   8.287
15859WAT      O47818   1.919   0.450   9.523
15859WAT     H147819   1.829   0.491   9.530
15859WAT     H247820   1.988   0.516   9.554
15860WAT      O47821   6.542   6.244   6.346
15860WAT     H147822   6.509   6.160   6.390
15860WAT     H247823   6.465   6.294   6.307
15861WAT      O47824   1.271   4.758   7.893
15861WAT     H147825   1.185   4.707   7.887
15861WAT     H247826   1.276   4.825   7.819
15862WAT      O47827   7.594   5.519   0.659
15862WAT     H147828   7.646   5.601   0.679
15862WAT     H247829   7.651   5.454   0.608
15863WAT      O47830   1.040   8.273   7.223
15863WAT     H147831   1.087   8.335   7.286
15863WAT     H247832   1.006   8.194   7.274
15864WAT      O47833   9.755   4.512   0.102
15864WAT     H147834   9.664   4.515   0.061
15864WAT     H247835   9.818   4.463   0.041
15865WAT      O47836   2.928   3.328   1.747
15865WAT     H147837   2.832   3.342   1.722
15865WAT     H247838   2.934   3.253   1.813
15866WAT      O47839   7.607   5.478   4.059
15866WAT     H147840   7.512   5.510   4.055
15866WAT     H247841   7.632   5.437   3.972
15867WAT      O47842   2.990   6.439   4.429
15867WAT     H147843   3.071   6.428   4.487
15867WAT     H247844   3.017   6.481   4.342
15868WAT      O47845   0.820   5.735   2.881
15868WAT     H147846   0.738   5.679   2.895
15868WAT     H247847   0.822   5.807   2.951
15869WAT      O47848   3.864   7.940   9.334
15869WAT     H147849   3.854   7.855   9.385
15869WAT     H247850   3.814   7.934   9.248
15870WAT      O47851   5.697   4.218   7.023
15870WAT     H147852   5.635   4.276   7.076
15870WAT     H247853   5.746   4.274   6.956
15871WAT      O47854   5.397   0.191   3.165
15871WAT     H147855   5.307   0.235   3.165
15871WAT     H247856   5.422   0.167   3.071
15872WAT      O47857   3.444   9.524   4.227
15872WAT     H147858   3.433   9.589   4.152
15872WAT     H247859   3.450   9.431   4.190
15873WAT      O47860   5.591   9.056   9.576
15873WAT     H147861   5.518   9.114   9.613
15873WAT     H247862   5.677   9.108   9.575
15874WAT      O47863   1.250   9.750   3.345
15874WAT     H147864   1.294   9.661   3.359
15874WAT     H247865   1.275   9.787   3.256
15875WAT      O47866   5.230   1.699   9.130
15875WAT     H147867   5.205   1.684   9.226
15875WAT     H247868   5.276   1.618   9.095
15876WAT      O47869   8.586   4.762   6.819
15876WAT     H147870   8.555   4.742   6.726
15876WAT     H247871   8.662   4.702   6.842
15877WAT      O47872   6.964   2.212   1.486
15877WAT     H147873   6.885   2.200   1.546
15877WAT     H247874   6.942   2.281   1.417
15878WAT      O47875   1.447   5.465   1.054
15878WAT     H147876   1.398   5.378   1.057
15878WAT     H247877   1.397   5.533   1.107
15879WAT      O47878   5.664   4.526   5.131
15879WAT     H147879   5.618   4.602   5.084
15879WAT     H247880   5.687   4.455   5.064
15880WAT      O47881   0.653   6.122   6.118
15880WAT     H147882   0.568   6.070   6.119
15880WAT     H247883   0.648   6.195   6.186
15881WAT      O47884   8.001   7.383   6.092
15881WAT     H147885   8.073   7.320   6.120
15881WAT     H247886   8.038   7.450   6.028
15882WAT      O47887   1.252   6.463   1.877
15882WAT     H147888   1.297   6.538   1.924
15882WAT     H247889   1.202   6.498   1.797
15883WAT      O47890   3.269   0.990   7.633
15883WAT     H147891   3.240   0.929   7.707
15883WAT     H247892   3.296   1.078   7.671
15884WAT      O47893   9.542   5.137   1.039
15884WAT     H147894   9.453   5.157   1.078
15884WAT     H247895   9.555   5.038   1.033
15885WAT      O47896   4.893   8.716   2.604
15885WAT     H147897   4.831   8.638   2.593
15885WAT     H247898   4.845   8.789   2.652
15886WAT      O47899   4.786   0.127   4.873
15886WAT     H147900   4.782   0.028   4.873
15886WAT     H247901   4.878   0.157   4.847
15887WAT      O47902   1.756   3.277   7.469
15887WAT     H147903   1.674   3.324   7.436
15887WAT     H247904   1.743   3.178   7.461
15888WAT      O47905   9.693   2.148   4.706
15888WAT     H147906   9.701   2.052   4.729
15888WAT     H247907   9.783   2.184   4.679
15889WAT      O47908   1.715   2.526   9.164
15889WAT     H147909   1.621   2.525   9.200
15889WAT     H247910   1.755   2.616   9.180
15890WAT      O47911   2.861   9.216   5.122
15890WAT     H147912   2.920   9.184   5.049
15890WAT     H247913   2.917   9.250   5.198
15891WAT      O47914   3.974   5.431   6.134
15891WAT     H147915   3.933   5.457   6.046
15891WAT     H247916   4.058   5.380   6.117
15892WAT      O47917   1.797   6.549   5.052
15892WAT     H147918   1.835   6.490   4.981
15892WAT     H247919   1.698   6.558   5.039
15893WAT      O47920   7.744   5.955   9.545
15893WAT     H147921   7.666   5.973   9.604
15893WAT     H247922   7.806   6.034   9.547
15894WAT      O47923   3.731   6.302   3.744
15894WAT     H147924   3.694   6.253   3.823
15894WAT     H247925   3.830   6.289   3.741
15895WAT      O47926   4.729   5.535   8.205
15895WAT     H147927   4.696   5.610   8.149
15895WAT     H247928   4.655   5.469   8.219
15896WAT      O47929   1.560   3.458   7.397
15896WAT     H147930   1.470   3.458   7.441
15896WAT     H247931   1.590   3.552   7.383
15897WAT      O47932   6.626   4.402   4.910
15897WAT     H147933   6.592   4.424   4.819
15897WAT     H247934   6.565   4.334   4.952
15898WAT      O47935   8.583   1.010   8.281
15898WAT     H147936   8.603   1.024   8.378
15898WAT     H247937   8.501   1.061   8.256
15899WAT      O47938   1.302   5.718   6.207
15899WAT     H147939   1.308   5.619   6.221
15899WAT     H247940   1.305   5.738   6.109
15900WAT      O47941   0.222   9.030   6.554
15900WAT     H147942   0.287   9.099   6.523
15900WAT     H247943   0.129   9.066   6.546
15901WAT      O47944   8.997   2.672   8.248
15901WAT     H147945   8.901   2.699   8.244
15901WAT     H247946   9.010   2.604   8.320
15902WAT      O47947   7.701   9.285   8.429
15902WAT     H147948   7.770   9.345   8.469
15902WAT     H247949   7.746   9.204   8.391
15903WAT      O47950   7.462   2.923   3.235
15903WAT     H147951   7.415   3.010   3.254
15903WAT     H247952   7.397   2.857   3.200
15904WAT      O47953   6.353   3.937   2.607
15904WAT     H147954   6.450   3.916   2.605
15904WAT     H247955   6.339   4.033   2.581
15905WAT      O47956   4.403   6.769   4.744
15905WAT     H147957   4.424   6.685   4.794
15905WAT     H247958   4.447   6.847   4.790
15906WAT      O47959   4.376   0.471   8.441
15906WAT     H147960   4.395   0.383   8.397
15906WAT     H247961   4.292   0.510   8.404
15907WAT      O47962   5.886   1.909   4.435
15907WAT     H147963   5.868   1.943   4.343
15907WAT     H247964   5.800   1.884   4.479
15908WAT      O47965   4.602   3.918   2.035
15908WAT     H147966   4.590   4.013   2.065
15908WAT     H247967   4.687   3.881   2.073
15909WAT      O47968   3.396   6.832   6.525
15909WAT     H147969   3.405   6.734   6.506
15909WAT     H247970   3.413   6.849   6.622
15910WAT      O47971   7.749   3.661   6.339
15910WAT     H147972   7.790   3.603   6.410
15910WAT     H247973   7.676   3.611   6.293
15911WAT      O47974   0.629   1.883   6.658
15911WAT     H147975   0.635   1.788   6.688
15911WAT     H247976   0.709   1.933   6.691
15912WAT      O47977   0.925   5.390   4.199
15912WAT     H147978   1.014   5.349   4.216
15912WAT     H247979   0.865   5.323   4.155
15913WAT      O47980   8.773   2.322   0.311
15913WAT     H147981   8.838   2.380   0.361
15913WAT     H247982   8.814   2.233   0.294
15914WAT      O47983   3.317   8.938   7.611
15914WAT     H147984   3.284   8.985   7.694
15914WAT     H247985   3.250   8.951   7.538
15915WAT      O47986   2.163   8.956   7.299
15915WAT     H147987   2.200   8.988   7.212
15915WAT     H247988   2.217   8.993   7.374
15916WAT      O47989   6.202   5.812   5.742
15916WAT     H147990   6.188   5.907   5.769
15916WAT     H247991   6.295   5.802   5.705
15917WAT      O47992   1.970   9.517   4.221
15917WAT     H147993   1.950   9.454   4.146
15917WAT     H247994   1.893   9.519   4.285
15918WAT      O47995   9.336   6.567   3.130
15918WAT     H147996   9.430   6.558   3.162
15918WAT     H247997   9.280   6.494   3.170
15919WAT      O47998   8.940   4.930   3.332
15919WAT     H147999   8.937   4.841   3.288
15919WAT     H248000   8.879   4.993   3.285
15920WAT      O48001   5.026   7.469   2.653
15920WAT     H148002   5.109   7.511   2.615
15920WAT     H248003   5.003   7.388   2.599
15921WAT      O48004   7.953   1.700   9.062
15921WAT     H148005   8.018   1.625   9.061
15921WAT     H248006   7.972   1.760   9.140
15922WAT      O48007   3.262   1.265   0.494
15922WAT     H148008   3.187   1.271   0.559
15922WAT     H248009   3.227   1.275   0.401
15923WAT      O48010   8.463   8.745   9.084
15923WAT     H148011   8.441   8.809   9.010
15923WAT     H248012   8.401   8.761   9.161
15924WAT      O48013   3.728   9.326   7.645
15924WAT     H148014   3.632   9.312   7.619
15924WAT     H248015   3.777   9.368   7.569
15925WAT      O48016   5.181   4.426   7.545
15925WAT     H148017   5.208   4.415   7.640
15925WAT     H248018   5.215   4.348   7.491
15926WAT      O48019   5.437   6.710   1.653
15926WAT     H148020   5.353   6.733   1.604
15926WAT     H248021   5.506   6.780   1.636
15927WAT      O48022   0.947   3.943   7.450
15927WAT     H148023   0.885   3.868   7.426
15927WAT     H248024   0.985   3.982   7.366
15928WAT      O48025   8.416   3.687   2.793
15928WAT     H148026   8.448   3.622   2.724
15928WAT     H248027   8.317   3.684   2.800
15929WAT      O48028   8.411   7.746   0.685
15929WAT     H148029   8.428   7.815   0.615
15929WAT     H248030   8.323   7.766   0.730
15930WAT      O48031   7.008   4.622   4.930
15930WAT     H148032   7.018   4.601   5.028
15930WAT     H248033   6.996   4.537   4.879
15931WAT      O48034   6.647   4.646   7.801
15931WAT     H148035   6.595   4.722   7.761
15931WAT     H248036   6.705   4.680   7.874
15932WAT      O48037   6.173   6.658   3.219
15932WAT     H148038   6.230   6.590   3.266
15932WAT     H248039   6.228   6.739   3.199
15933WAT      O48040   8.678   7.786   2.242
15933WAT     H148041   8.682   7.837   2.156
15933WAT     H248042   8.680   7.688   2.222
15934WAT      O48043   5.629   3.451   6.812
15934WAT     H148044   5.579   3.536   6.796
15934WAT     H248045   5.666   3.417   6.725
15935WAT      O48046   8.914   3.227   1.796
15935WAT     H148047   8.842   3.219   1.727
15935WAT     H248048   8.897   3.307   1.853
15936WAT      O48049   4.575   7.122   3.341
15936WAT     H148050   4.491   7.175   3.326
15936WAT     H248051   4.552   7.025   3.352
15937WAT      O48052   5.105   0.844   8.471
15937WAT     H148053   5.202   0.861   8.454
15937WAT     H248054   5.058   0.931   8.484
15938WAT      O48055   9.687   7.216   1.911
15938WAT     H148056   9.693   7.164   1.995
15938WAT     H248057   9.673   7.154   1.834
15939WAT      O48058   0.596   5.809   1.479
15939WAT     H148059   0.601   5.783   1.575
15939WAT     H248060   0.659   5.884   1.461
15940WAT      O48061   8.316   0.830   9.697
15940WAT     H148062   8.318   0.839   9.796
15940WAT     H248063   8.371   0.751   9.669
15941WAT      O48064   2.826   0.719   2.936
15941WAT     H148065   2.819   0.801   2.992
15941WAT     H248066   2.780   0.734   2.849
15942WAT      O48067   1.937   5.791   6.694
15942WAT     H148068   1.922   5.721   6.624
15942WAT     H248069   1.897   5.877   6.665
15943WAT      O48070   7.453   0.063   6.302
15943WAT     H148071   7.549   0.076   6.278
15943WAT     H248072   7.398   0.063   6.218
15944WAT      O48073   4.707   4.893   2.603
15944WAT     H148074   4.663   4.974   2.643
15944WAT     H248075   4.658   4.811   2.632
15945WAT      O48076   2.659   0.328   1.548
15945WAT     H148077   2.723   0.301   1.476
15945WAT     H248078   2.702   0.317   1.637
15946WAT      O48079   3.659   6.031   7.282
15946WAT     H148080   3.622   6.025   7.189
15946WAT     H248081   3.645   5.945   7.329
15947WAT      O48082   0.592   8.331   7.960
15947WAT     H148083   0.642   8.245   7.958
15947WAT     H248084   0.496   8.313   7.983
15948WAT      O48085   3.824   5.055   6.094
15948WAT     H148086   3.830   5.020   6.001
15948WAT     H248087   3.827   4.978   6.159
15949WAT      O48088   3.262   6.143   6.629
15949WAT     H148089   3.211   6.112   6.549
15949WAT     H248090   3.212   6.118   6.712
15950WAT      O48091   2.162   0.710   7.265
15950WAT     H148092   2.198   0.617   7.256
15950WAT     H248093   2.107   0.717   7.348
15951WAT      O48094   5.396   7.819   3.985
15951WAT     H148095   5.332   7.841   4.058
15951WAT     H248096   5.429   7.903   3.943
15952WAT      O48097   2.928   2.660   4.008
15952WAT     H148098   2.868   2.737   4.033
15952WAT     H248099   3.011   2.696   3.966
15953WAT      O48100   6.104   5.304   2.291
15953WAT     H148101   6.041   5.374   2.326
15953WAT     H248102   6.188   5.305   2.345
15954WAT      O48103   7.979   4.061   8.544
15954WAT     H148104   8.014   4.079   8.636
15954WAT     H248105   7.944   4.146   8.504
15955WAT      O48106   4.188   2.900   3.173
15955WAT     H148107   4.141   2.984   3.147
15955WAT     H248108   4.222   2.855   3.090
15956WAT      O48109   2.164   4.324   1.690
15956WAT     H148110   2.123   4.351   1.603
15956WAT     H248111   2.092   4.306   1.757
15957WAT      O48112   1.082   0.278   7.171
15957WAT     H148113   1.038   0.245   7.088
15957WAT     H248114   1.158   0.217   7.195
15958WAT      O48115   0.790   0.055   6.838
15958WAT     H148116   0.700   0.090   6.866
15958WAT     H248117   0.829   0.002   6.913
15959WAT      O48118   1.356   3.107   0.719
15959WAT     H148119   1.372   3.089   0.621
15959WAT     H248120   1.348   3.020   0.768
15960WAT      O48121   9.110   7.784   5.769
15960WAT     H148122   9.176   7.827   5.830
15960WAT     H248123   9.112   7.829   5.680
15961WAT      O48124   9.115   2.880   5.798
15961WAT     H148125   9.084   2.786   5.782
15961WAT     H248126   9.190   2.901   5.735
15962WAT      O48127   8.152   6.168   3.842
15962WAT     H148128   8.059   6.172   3.804
15962WAT     H248129   8.186   6.074   3.836
15963WAT      O48130   3.269   2.728   6.746
15963WAT     H148131   3.230   2.679   6.823
15963WAT     H248132   3.201   2.790   6.707
15964WAT      O48133   9.490   0.038   3.457
15964WAT     H148134   9.490   0.082   3.546
15964WAT     H248135   9.585   0.015   3.431
15965WAT      O48136   0.865   5.335   7.876
15965WAT     H148137   0.767   5.322   7.893
15965WAT     H248138   0.905   5.388   7.951
15966WAT      O48139   8.758   5.909   6.863
15966WAT     H148140   8.670   5.890   6.907
15966WAT     H248141   8.756   5.876   6.769
15967WAT      O48142   5.722   2.185   9.185
15967WAT     H148143   5.818   2.156   9.189
15967WAT     H248144   5.706   2.256   9.253
15968WAT      O48145   6.522   6.323   5.419
15968WAT     H148146   6.599   6.261   5.410
15968WAT     H248147   6.437   6.275   5.396
15969WAT      O48148   9.607   3.659   6.106
15969WAT     H148149   9.520   3.637   6.061
15969WAT     H248150   9.610   3.757   6.125
15970WAT      O48151   9.854   1.810   1.565
15970WAT     H148152   9.917   1.733   1.561
15970WAT     H248153   9.872   1.872   1.488
15971WAT      O48154   0.430   0.039   7.362
15971WAT     H148155   0.428  -0.021   7.442
15971WAT     H248156   0.378   0.123   7.382
15972WAT      O48157   9.121   2.822   1.199
15972WAT     H148158   9.105   2.728   1.169
15972WAT     H248159   9.219   2.840   1.203
15973WAT      O48160   2.152   4.867   7.390
15973WAT     H148161   2.219   4.799   7.419
15973WAT     H248162   2.092   4.827   7.320
15974WAT      O48163   7.633   1.143   9.411
15974WAT     H148164   7.575   1.208   9.460
15974WAT     H248165   7.592   1.120   9.323
15975WAT      O48166   8.372   4.925   3.118
15975WAT     H148167   8.371   4.942   3.019
15975WAT     H248168   8.376   5.013   3.167
15976WAT      O48169   6.242   6.097   6.026
15976WAT     H148170   6.249   6.027   6.098
15976WAT     H248171   6.153   6.142   6.033
15977WAT      O48172   7.820   8.438   5.318
15977WAT     H148173   7.854   8.518   5.268
15977WAT     H248174   7.897   8.383   5.350
15978WAT      O48175   9.866   8.083   7.958
15978WAT     H148176   9.820   7.997   7.938
15978WAT     H248177   9.957   8.065   7.997
15979WAT      O48178   7.401   2.783   1.232
15979WAT     H148179   7.332   2.823   1.292
15979WAT     H248180   7.461   2.855   1.197
15980WAT      O48181   2.059   5.817   4.122
15980WAT     H148182   2.155   5.800   4.099
15980WAT     H248183   2.026   5.744   4.181
15981WAT      O48184   9.414   2.508   1.424
15981WAT     H148185   9.492   2.564   1.451
15981WAT     H248186   9.344   2.511   1.496
15982WAT      O48187   1.329   5.396   3.697
15982WAT     H148188   1.242   5.387   3.746
15982WAT     H248189   1.383   5.313   3.711
15983WAT      O48190   5.443   3.042   8.329
15983WAT     H148191   5.416   3.044   8.232
15983WAT     H248192   5.406   2.961   8.372
15984WAT      O48193   4.307   6.294   0.575
15984WAT     H148194   4.236   6.273   0.508
15984WAT     H248195   4.393   6.313   0.528
15985WAT      O48196   5.402   6.730   8.880
15985WAT     H148197   5.367   6.642   8.910
15985WAT     H248198   5.347   6.762   8.802
15986WAT      O48199   9.106   0.991   9.610
15986WAT     H148200   9.049   0.945   9.678
15986WAT     H248201   9.116   0.932   9.530
15987WAT      O48202   5.471   4.808   3.693
15987WAT     H148203   5.386   4.779   3.737
15987WAT     H248204   5.547   4.794   3.755
15988WAT      O48205   5.228   7.897   0.762
15988WAT     H148206   5.266   7.985   0.733
15988WAT     H248207   5.271   7.823   0.710
15989WAT      O48208   4.430   4.545   0.441
15989WAT     H148209   4.419   4.453   0.477
15989WAT     H248210   4.517   4.583   0.471
15990WAT      O48211   1.726   6.514   3.468
15990WAT     H148212   1.825   6.507   3.455
15990WAT     H248213   1.700   6.472   3.555
15991WAT      O48214   7.394   0.403   0.770
15991WAT     H148215   7.441   0.387   0.856
15991WAT     H248216   7.297   0.381   0.780
15992WAT      O48217   0.610   9.810   4.774
15992WAT     H148218   0.635   9.857   4.859
15992WAT     H248219   0.512   9.792   4.773
15993WAT      O48220   9.637   8.432   1.727
15993WAT     H148221   9.690   8.349   1.713
15993WAT     H248222   9.699   8.510   1.740
15994WAT      O48223   4.726   6.469   9.288
15994WAT     H148224   4.667   6.460   9.368
15994WAT     H248225   4.792   6.542   9.303
15995WAT      O48226   1.786   4.657   3.944
15995WAT     H148227   1.813   4.584   3.880
15995WAT     H248228   1.699   4.633   3.986
15996WAT      O48229   5.152   4.148   3.049
15996WAT     H148230   5.220   4.123   2.981
15996WAT     H248231   5.085   4.075   3.058
15997WAT      O48232   4.981   4.774   2.545
15997WAT     H148233   4.901   4.769   2.605
15997WAT     H248234   5.030   4.859   2.563
15998WAT      O48235   8.389   9.538   6.518
15998WAT     H148236   8.368   9.617   6.576
15998WAT     H248237   8.441   9.471   6.571
15999WAT      O48238   7.930   0.114   4.865
15999WAT     H148239   7.990   0.112   4.944
15999WAT     H248240   7.836   0.092   4.893
16000WAT      O48241   2.683   4.820   2.054
16000WAT     H148242   2.697   4.800   1.957
16000WAT     H248243   2.707   4.740   2.109
16001WAT      O48244   5.255   2.201   9.830
16001WAT     H148245   5.294   2.265   9.897
16001WAT     H248246   5.279   2.108   9.856
16002WAT      O48247   1.576   5.643   8.314
16002WAT     H148248   1.578   5.553   8.358
16002WAT     H248249   1.643   5.645   8.240
16003WAT      O48250   9.679   0.787   3.199
16003WAT     H148251   9.778   0.801   3.188
16003WAT     H248252   9.661   0.754   3.292
16004WAT      O48253   6.046   2.031   0.277
16004WAT     H148254   6.024   2.111   0.332
16004WAT     H248255   6.059   1.952   0.336
16005WAT      O48256   5.947   8.321   8.207
16005WAT     H148257   5.948   8.325   8.307
16005WAT     H248258   6.033   8.283   8.174
16006WAT      O48259   9.264   3.657   6.508
16006WAT     H148260   9.285   3.614   6.596
16006WAT     H248261   9.165   3.667   6.500
16007WAT      O48262   9.151   5.816   4.142
16007WAT     H148263   9.228   5.839   4.202
16007WAT     H248264   9.173   5.734   4.090
16008WAT      O48265   1.133   8.875   7.182
16008WAT     H148266   1.126   8.919   7.271
16008WAT     H248267   1.170   8.940   7.116
16009WAT      O48268   4.125   7.470   2.844
16009WAT     H148269   4.157   7.526   2.768
16009WAT     H248270   4.135   7.521   2.929
16010WAT      O48271   5.709   4.893   3.504
16010WAT     H148272   5.742   4.801   3.487
16010WAT     H248273   5.625   4.889   3.559
16011WAT      O48274   0.053   7.284   5.815
16011WAT     H148275  -0.045   7.281   5.835
16011WAT     H248276   0.074   7.370   5.769
16012WAT      O48277   2.220   8.206   5.068
16012WAT     H148278   2.253   8.168   5.155
16012WAT     H248279   2.120   8.195   5.064
16013WAT      O48280   2.547   1.309   4.113
16013WAT     H148281   2.463   1.344   4.155
16013WAT     H248282   2.524   1.241   4.043
16014WAT      O48283   1.242   4.983   7.742
16014WAT     H148284   1.175   5.051   7.772
16014WAT     H248285   1.327   5.029   7.717
16015WAT      O48286   6.363   4.844   3.924
16015WAT     H148287   6.359   4.919   3.990
16015WAT     H248288   6.315   4.765   3.960
16016WAT      O48289   6.009   7.676   9.162
16016WAT     H148290   5.991   7.633   9.074
16016WAT     H248291   6.092   7.638   9.202
16017WAT      O48292   5.144   7.431   7.193
16017WAT     H148293   5.045   7.424   7.180
16017WAT     H248294   5.177   7.517   7.155
16018WAT      O48295   8.268   2.911   1.237
16018WAT     H148296   8.201   2.896   1.310
16018WAT     H248297   8.345   2.963   1.273
16019WAT      O48298   9.691   5.452   9.490
16019WAT     H148299   9.611   5.428   9.435
16019WAT     H248300   9.721   5.372   9.543
16020WAT      O48301   0.579   5.238   6.904
16020WAT     H148302   0.570   5.189   6.817
16020WAT     H248303   0.604   5.333   6.886
16021WAT      O48304   5.169   2.385   2.357
16021WAT     H148305   5.151   2.379   2.259
16021WAT     H248306   5.105   2.327   2.406
16022WAT      O48307   9.268   5.855   0.504
16022WAT     H148308   9.346   5.916   0.517
16022WAT     H248309   9.284   5.769   0.552
16023WAT      O48310   1.741   6.082   6.988
16023WAT     H148311   1.828   6.061   6.942
16023WAT     H248312   1.719   6.008   7.051
16024WAT      O48313   5.491   0.987   6.589
16024WAT     H148314   5.402   0.996   6.633
16024WAT     H248315   5.545   1.069   6.606
16025WAT      O48316   1.622   9.060   0.127
16025WAT     H148317   1.591   9.153   0.147
16025WAT     H248318   1.619   9.005   0.211
16026WAT      O48319   5.439   3.665   0.091
16026WAT     H148320   5.375   3.740   0.103
16026WAT     H248321   5.444   3.610   0.174
16027WAT      O48322   8.311   4.227   9.019
16027WAT     H148323   8.374   4.204   9.093
16027WAT     H248324   8.251   4.150   9.000
16028WAT      O48325   9.202   9.548   0.013
16028WAT     H148326   9.220   9.547  -0.085
16028WAT     H248327   9.240   9.465   0.055
16029WAT      O48328   6.620   7.408   0.481
16029WAT     H148329   6.540   7.362   0.441
16029WAT     H248330   6.591   7.464   0.558
16030WAT      O48331   0.987   3.133   4.630
16030WAT     H148332   1.045   3.070   4.579
16030WAT     H248333   0.972   3.097   4.723
16031WAT      O48334   2.510   1.164   3.228
16031WAT     H148335   2.512   1.163   3.328
16031WAT     H248336   2.482   1.074   3.195
16032WAT      O48337   5.273   3.993   5.136
16032WAT     H148338   5.362   3.995   5.182
16032WAT     H248339   5.201   3.985   5.204
16033WAT      O48340   3.180   0.439   1.852
16033WAT     H148341   3.084   0.452   1.829
16033WAT     H248342   3.221   0.527   1.874
16034WAT      O48343   6.077   9.621   5.914
16034WAT     H148344   6.090   9.523   5.932
16034WAT     H248345   6.101   9.673   5.996
16035WAT      O48346   6.429   1.880   3.866
16035WAT     H148347   6.371   1.799   3.880
16035WAT     H248348   6.525   1.851   3.867
16036WAT      O48349   5.813   0.715   6.334
16036WAT     H148350   5.791   0.777   6.259
16036WAT     H248351   5.729   0.693   6.385
16037WAT      O48352   3.220   3.857   9.613
16037WAT     H148353   3.286   3.909   9.557
16037WAT     H248354   3.223   3.890   9.707
16038WAT      O48355   0.272   4.514   3.140
16038WAT     H148356   0.202   4.515   3.068
16038WAT     H248357   0.235   4.466   3.220
16039WAT      O48358   8.984   3.358   7.477
16039WAT     H148359   8.888   3.333   7.468
16039WAT     H248360   9.041   3.277   7.459
16040WAT      O48361   2.670   1.858   3.656
16040WAT     H148362   2.712   1.785   3.710
16040WAT     H248363   2.583   1.826   3.619
16041WAT      O48364   6.407   6.805   5.322
16041WAT     H148365   6.327   6.862   5.301
16041WAT     H248366   6.484   6.833   5.265
16042WAT      O48367   3.982   6.584   0.381
16042WAT     H148368   4.008   6.522   0.307
16042WAT     H248369   3.970   6.676   0.345
16043WAT      O48370   0.609   0.307   0.765
16043WAT     H148371   0.638   0.216   0.736
16043WAT     H248372   0.681   0.373   0.745
16044WAT      O48373   9.589   0.432   1.272
16044WAT     H148374   9.584   0.363   1.344
16044WAT     H248375   9.680   0.473   1.272
16045WAT      O48376   1.449   6.198   8.426
16045WAT     H148377   1.520   6.228   8.362
16045WAT     H248378   1.456   6.252   8.510
16046WAT      O48379   3.503   4.683   2.496
16046WAT     H148380   3.560   4.697   2.415
16046WAT     H248381   3.409   4.712   2.476
16047WAT      O48382   5.048   8.630   7.082
16047WAT     H148383   4.952   8.643   7.107
16047WAT     H248384   5.097   8.584   7.157
16048WAT      O48385   8.034   3.553   0.295
16048WAT     H148386   8.108   3.608   0.335
16048WAT     H248387   8.052   3.539   0.197
16049WAT      O48388   8.365   5.594   1.913
16049WAT     H148389   8.314   5.515   1.877
16049WAT     H248390   8.463   5.575   1.905
16050WAT      O48391   7.655   8.593   3.924
16050WAT     H148392   7.729   8.536   3.889
16050WAT     H248393   7.573   8.537   3.937
16051WAT      O48394   3.545   5.245   2.028
16051WAT     H148395   3.516   5.197   1.946
16051WAT     H248396   3.524   5.190   2.109
16052WAT      O48397   0.348   6.367   6.092
16052WAT     H148398   0.439   6.382   6.133
16052WAT     H248399   0.323   6.446   6.036
16053WAT      O48400   8.110   7.285   5.189
16053WAT     H148401   8.087   7.367   5.242
16053WAT     H248402   8.060   7.206   5.227
16054WAT      O48403   9.268   4.568   7.919
16054WAT     H148404   9.273   4.532   8.012
16054WAT     H248405   9.350   4.542   7.868
16055WAT      O48406   4.431   7.784   5.317
16055WAT     H148407   4.529   7.792   5.295
16055WAT     H248408   4.416   7.811   5.412
16056WAT      O48409   7.764   5.539   5.600
16056WAT     H148410   7.776   5.531   5.501
16056WAT     H248411   7.676   5.500   5.626
16057WAT      O48412   7.659   9.015   1.534
16057WAT     H148413   7.749   9.057   1.523
16057WAT     H248414   7.668   8.931   1.588
16058WAT      O48415   5.506   2.489   4.914
16058WAT     H148416   5.520   2.565   4.978
16058WAT     H248417   5.521   2.402   4.962
16059WAT      O48418   2.686   2.261   4.495
16059WAT     H148419   2.676   2.344   4.550
16059WAT     H248420   2.654   2.278   4.402
16060WAT      O48421   9.632   9.146   8.899
16060WAT     H148422   9.642   9.055   8.939
16060WAT     H248423   9.641   9.140   8.800
16061WAT      O48424   2.262   1.463   8.295
16061WAT     H148425   2.266   1.468   8.395
16061WAT     H248426   2.168   1.474   8.265
16062WAT      O48427   4.824   9.284   2.415
16062WAT     H148428   4.877   9.219   2.469
16062WAT     H248429   4.758   9.234   2.358
16063WAT      O48430   2.080   2.194   1.015
16063WAT     H148431   2.073   2.123   0.945
16063WAT     H248432   2.027   2.274   0.986
16064WAT      O48433   9.263   1.435   1.666
16064WAT     H148434   9.247   1.513   1.727
16064WAT     H248435   9.320   1.464   1.589
16065WAT      O48436   1.050   7.090   5.207
16065WAT     H148437   1.090   7.088   5.299
16065WAT     H248438   1.062   7.181   5.168
16066WAT      O48439   8.570   7.870   5.490
16066WAT     H148440   8.541   7.867   5.394
16066WAT     H248441   8.528   7.949   5.535
16067WAT      O48442   6.005   2.950   0.797
16067WAT     H148443   6.090   2.992   0.828
16067WAT     H248444   6.025   2.880   0.729
16068WAT      O48445   5.078   0.127   6.887
16068WAT     H148446   5.046   0.212   6.929
16068WAT     H248447   5.005   0.087   6.831
16069WAT      O48448   4.450   5.322   7.979
16069WAT     H148449   4.414   5.390   7.915
16069WAT     H248450   4.399   5.237   7.969
16070WAT      O48451   0.875   2.301   6.307
16070WAT     H148452   0.808   2.375   6.296
16070WAT     H248453   0.918   2.282   6.218
16071WAT      O48454   7.474   3.199   0.025
16071WAT     H148455   7.476   3.107  -0.015
16071WAT     H248456   7.448   3.193   0.121
16072WAT      O48457   1.085   2.875   1.885
16072WAT     H148458   1.058   2.964   1.847
16072WAT     H248459   1.055   2.803   1.822
16073WAT      O48460   3.613   7.113   1.127
16073WAT     H148461   3.629   7.144   1.033
16073WAT     H248462   3.542   7.169   1.169
16074WAT      O48463   4.657   0.043   5.654
16074WAT     H148464   4.622   0.046   5.560
16074WAT     H248465   4.741   0.097   5.660
16075WAT      O48466   1.824   0.073   3.040
16075WAT     H148467   1.824   0.063   2.941
16075WAT     H248468   1.821  -0.018   3.083
16076WAT      O48469   0.847   0.652   6.826
16076WAT     H148470   0.887   0.560   6.819
16076WAT     H248471   0.914   0.713   6.868
16077WAT      O48472   5.692   9.765   8.471
16077WAT     H148473   5.649   9.772   8.381
16077WAT     H248474   5.792   9.764   8.461
16078WAT      O48475   0.331   9.515   3.778
16078WAT     H148476   0.401   9.549   3.715
16078WAT     H248477   0.257   9.582   3.784
16079WAT      O48478   7.031   2.675   8.432
16079WAT     H148479   7.037   2.581   8.465
16079WAT     H248480   6.987   2.677   8.343
16080WAT      O48481   9.016   9.721   5.854
16080WAT     H148482   9.003   9.781   5.775
16080WAT     H248483   8.970   9.761   5.933
16081WAT      O48484   8.746   4.607   9.191
16081WAT     H148485   8.830   4.657   9.172
16081WAT     H248486   8.669   4.654   9.147
16082WAT      O48487   8.040   4.807   0.213
16082WAT     H148488   8.033   4.849   0.123
16082WAT     H248489   8.013   4.874   0.283
16083WAT      O48490   1.117   0.815   6.541
16083WAT     H148491   1.098   0.893   6.600
16083WAT     H248492   1.200   0.769   6.573
16084WAT      O48493   2.024   6.256   0.082
16084WAT     H148494   2.036   6.200   0.000
16084WAT     H248495   1.995   6.198   0.159
16085WAT      O48496   1.913   4.333   1.826
16085WAT     H148497   1.857   4.363   1.749
16085WAT     H248498   1.942   4.412   1.880
16086WAT      O48499   1.527   0.370   3.809
16086WAT     H148500   1.548   0.288   3.757
16086WAT     H248501   1.479   0.346   3.894
16087WAT      O48502   8.427   4.328   8.800
16087WAT     H148503   8.392   4.306   8.890
16087WAT     H248504   8.395   4.259   8.734
16088WAT      O48505   5.078   6.283   3.028
16088WAT     H148506   5.085   6.204   2.967
16088WAT     H248507   4.985   6.319   3.025
16089WAT      O48508   3.257   4.893   8.196
16089WAT     H148509   3.254   4.870   8.099
16089WAT     H248510   3.179   4.851   8.243
16090WAT      O48511   6.501   0.980   9.383
16090WAT     H148512   6.551   0.899   9.351
16090WAT     H248513   6.567   1.053   9.405
16091WAT      O48514   6.596   2.746   1.086
16091WAT     H148515   6.680   2.780   1.044
16091WAT     H248516   6.543   2.694   1.019
16092WAT      O48517   7.709   8.453   1.634
16092WAT     H148518   7.661   8.494   1.556
16092WAT     H248519   7.676   8.496   1.719
16093WAT      O48520   6.981   9.840   1.635
16093WAT     H148521   7.040   9.920   1.627
16093WAT     H248522   7.007   9.788   1.717
16094WAT      O48523   4.571   7.053   4.632
16094WAT     H148524   4.543   7.148   4.644
16094WAT     H248525   4.536   6.998   4.708
16095WAT      O48526   4.976   4.980   7.711
16095WAT     H148527   4.911   4.909   7.684
16095WAT     H248528   5.015   4.957   7.800
16096WAT      O48529   6.727   7.418   9.315
16096WAT     H148530   6.784   7.411   9.233
16096WAT     H248531   6.687   7.329   9.335
16097WAT      O48532   2.575   9.673   7.986
16097WAT     H148533   2.495   9.705   7.935
16097WAT     H248534   2.626   9.752   8.021
16098WAT      O48535   2.780   8.802   2.504
16098WAT     H148536   2.798   8.714   2.549
16098WAT     H248537   2.758   8.786   2.408
16099WAT      O48538   3.705   6.525   0.480
16099WAT     H148539   3.786   6.554   0.428
16099WAT     H248540   3.727   6.525   0.578
16100WAT      O48541   1.483   8.866   9.319
16100WAT     H148542   1.441   8.895   9.404
16100WAT     H248543   1.568   8.917   9.305
16101WAT      O48544   5.239   2.101   4.994
16101WAT     H148545   5.159   2.114   4.935
16101WAT     H248546   5.225   2.147   5.081
16102WAT      O48547   1.847   3.187   4.103
16102WAT     H148548   1.827   3.256   4.172
16102WAT     H248549   1.772   3.121   4.099
16103WAT      O48550   8.929   3.012   8.264
16103WAT     H148551   8.978   2.981   8.183
16103WAT     H248552   8.989   3.070   8.319
16104WAT      O48553   2.746   6.315   5.803
16104WAT     H148554   2.818   6.379   5.777
16104WAT     H248555   2.738   6.244   5.733
16105WAT      O48556   4.087   3.768   7.423
16105WAT     H148557   4.184   3.756   7.403
16105WAT     H248558   4.051   3.684   7.463
16106WAT      O48559   8.598   3.523   0.181
16106WAT     H148560   8.693   3.548   0.163
16106WAT     H248561   8.589   3.493   0.276
16107WAT      O48562   0.888   0.281   3.894
16107WAT     H148563   0.804   0.293   3.946
16107WAT     H248564   0.891   0.189   3.855
16108WAT      O48565   6.229   5.943   8.290
16108WAT     H148566   6.200   6.039   8.291
16108WAT     H248567   6.321   5.936   8.253
16109WAT      O48568   7.501   5.462   5.654
16109WAT     H148569   7.428   5.506   5.602
16109WAT     H248570   7.465   5.433   5.743
16110WAT      O48571   5.843   9.263   2.765
16110WAT     H148572   5.917   9.330   2.757
16110WAT     H248573   5.777   9.279   2.692
16111WAT      O48574   6.764   6.281   0.758
16111WAT     H148575   6.861   6.271   0.739
16111WAT     H248576   6.711   6.243   0.683
16112WAT      O48577   7.416   6.078   1.747
16112WAT     H148578   7.321   6.103   1.768
16112WAT     H248579   7.467   6.067   1.832
16113WAT      O48580   0.704   9.471   5.005
16113WAT     H148581   0.785   9.441   4.955
16113WAT     H248582   0.623   9.457   4.947
16114WAT      O48583   0.451   6.549   3.614
16114WAT     H148584   0.378   6.579   3.676
16114WAT     H248585   0.415   6.540   3.522
16115WAT      O48586   6.503   1.532   7.147
16115WAT     H148587   6.535   1.607   7.204
16115WAT     H248588   6.463   1.461   7.205
16116WAT      O48589   0.928   2.367   0.004
16116WAT     H148590   0.979   2.451  -0.019
16116WAT     H248591   0.977   2.288  -0.032
16117WAT      O48592   8.099   5.472   0.576
16117WAT     H148593   8.041   5.445   0.499
16117WAT     H248594   8.192   5.437   0.561
16118WAT      O48595   2.041   2.283   0.406
16118WAT     H148596   2.116   2.272   0.340
16118WAT     H248597   2.018   2.380   0.413
16119WAT      O48598   7.582   8.085   0.618
16119WAT     H148599   7.497   8.040   0.645
16119WAT     H248600   7.660   8.029   0.646
16120WAT      O48601   0.381   8.159   0.495
16120WAT     H148602   0.477   8.182   0.482
16120WAT     H248603   0.333   8.236   0.537
16121WAT      O48604   8.550   2.394   2.031
16121WAT     H148605   8.573   2.338   1.951
16121WAT     H248606   8.602   2.480   2.027
16122WAT      O48607   7.647   1.342   2.157
16122WAT     H148608   7.722   1.351   2.222
16122WAT     H248609   7.662   1.403   2.079
16123WAT      O48610   5.342   4.749   1.479
16123WAT     H148611   5.416   4.705   1.428
16123WAT     H248612   5.339   4.713   1.572
16124WAT      O48613   5.683   5.150   1.262
16124WAT     H148614   5.676   5.197   1.174
16124WAT     H248615   5.638   5.205   1.333
16125WAT      O48616   6.799   1.278   1.854
16125WAT     H148617   6.871   1.255   1.919
16125WAT     H248618   6.781   1.199   1.795
16126WAT      O48619   5.822   0.734   8.420
16126WAT     H148620   5.891   0.787   8.370
16126WAT     H248621   5.863   0.695   8.502
16127WAT      O48622   2.725   4.468   0.866
16127WAT     H148623   2.682   4.390   0.821
16127WAT     H248624   2.698   4.470   0.962
16128WAT      O48625   6.038   0.251   0.091
16128WAT     H148626   6.120   0.194   0.091
16128WAT     H248627   6.026   0.293   0.002
16129WAT      O48628   4.367   4.308   1.194
16129WAT     H148629   4.317   4.393   1.211
16129WAT     H248630   4.451   4.307   1.248
16130WAT      O48631   1.775   0.820   0.889
16130WAT     H148632   1.723   0.888   0.837
16130WAT     H248633   1.782   0.735   0.836
16131WAT      O48634   9.133   7.998   0.193
16131WAT     H148635   9.209   7.994   0.128
16131WAT     H248636   9.130   8.088   0.236
16132WAT      O48637   2.845   1.674   8.077
16132WAT     H148638   2.819   1.765   8.045
16132WAT     H248639   2.845   1.673   8.177
16133WAT      O48640   9.744   5.209   6.595
16133WAT     H148641   9.830   5.182   6.551
16133WAT     H248642   9.718   5.301   6.565
16134WAT      O48643   8.792   4.392   4.330
16134WAT     H148644   8.877   4.444   4.318
16134WAT     H248645   8.727   4.447   4.383
16135WAT      O48646   0.800   9.363   2.381
16135WAT     H148647   0.710   9.382   2.420
16135WAT     H248648   0.793   9.355   2.282
16136WAT      O48649   8.300   1.958   4.123
16136WAT     H148650   8.334   1.951   4.029
16136WAT     H248651   8.313   1.871   4.170
16137WAT      O48652   3.880   5.531   0.946
16137WAT     H148653   3.975   5.502   0.951
16137WAT     H248654   3.869   5.619   0.993
16138WAT      O48655   0.133   6.681   5.459
16138WAT     H148656   0.229   6.711   5.456
16138WAT     H248657   0.083   6.736   5.526
16139WAT      O48658   2.040   8.157   4.505
16139WAT     H148659   2.083   8.190   4.589
16139WAT     H248660   2.008   8.063   4.519
16140WAT      O48661   5.064   1.875   1.335
16140WAT     H148662   5.026   1.824   1.258
16140WAT     H248663   5.092   1.812   1.407
16141WAT      O48664   0.888   7.575   9.868
16141WAT     H148665   0.826   7.640   9.824
16141WAT     H248666   0.958   7.548   9.803
16142WAT      O48667   5.830   8.331   5.906
16142WAT     H148668   5.895   8.311   5.833
16142WAT     H248669   5.794   8.423   5.894
16143WAT      O48670   3.784   8.114   0.012
16143WAT     H148671   3.814   8.160   0.095
16143WAT     H248672   3.778   8.180  -0.063
16144WAT      O48673   2.083   0.498   3.518
16144WAT     H148674   2.181   0.510   3.509
16144WAT     H248675   2.038   0.587   3.524
16145WAT      O48676   6.949   8.170   6.847
16145WAT     H148677   6.937   8.251   6.790
16145WAT     H248678   7.030   8.119   6.816
16146WAT      O48679   6.340   3.451   2.174
16146WAT     H148680   6.331   3.354   2.197
16146WAT     H248681   6.408   3.492   2.234
16147WAT      O48682   8.789   5.249   1.265
16147WAT     H148683   8.717   5.302   1.220
16147WAT     H248684   8.776   5.253   1.364
16148WAT      O48685   2.934   9.138   4.523
16148WAT     H148686   2.937   9.048   4.479
16148WAT     H248687   2.852   9.144   4.579
16149WAT      O48688   9.067   5.266   3.111
16149WAT     H148689   9.086   5.299   3.204
16149WAT     H248690   9.007   5.332   3.065
16150WAT      O48691   0.185   7.192   9.342
16150WAT     H148692   0.199   7.141   9.427
16150WAT     H248693   0.109   7.256   9.354
16151WAT      O48694   0.496   4.370   3.355
16151WAT     H148695   0.433   4.388   3.279
16151WAT     H248696   0.444   4.364   3.440
16152WAT      O48697   6.665   8.647   2.644
16152WAT     H148698   6.600   8.579   2.612
16152WAT     H248699   6.696   8.703   2.567
16153WAT      O48700   3.021   0.001   1.707
16153WAT     H148701   2.928  -0.036   1.711
16153WAT     H248702   3.021   0.085   1.652
16154WAT      O48703   7.210   2.791   0.381
16154WAT     H148704   7.175   2.834   0.298
16154WAT     H248705   7.137   2.784   0.449
16155WAT      O48706   7.763   5.217   1.947
16155WAT     H148707   7.815   5.301   1.932
16155WAT     H248708   7.825   5.144   1.977
16156WAT      O48709   6.831   6.414   4.683
16156WAT     H148710   6.828   6.512   4.663
16156WAT     H248711   6.890   6.368   4.616
16157WAT      O48712   5.746   9.518   5.789
16157WAT     H148713   5.724   9.486   5.881
16157WAT     H248714   5.686   9.473   5.723
16158WAT      O48715   2.417   3.675   4.135
16158WAT     H148716   2.409   3.645   4.040
16158WAT     H248717   2.331   3.719   4.163
16159WAT      O48718   3.509   4.175   6.969
16159WAT     H148719   3.482   4.265   6.937
16159WAT     H248720   3.564   4.184   7.052
16160WAT      O48721   1.872   7.069   3.693
16160WAT     H148722   1.810   7.087   3.616
16160WAT     H248723   1.901   6.974   3.691
16161WAT      O48724   8.351   3.253   4.893
16161WAT     H148725   8.418   3.327   4.883
16161WAT     H248726   8.269   3.288   4.938
16162WAT      O48727   7.399   0.316   3.840
16162WAT     H148728   7.427   0.353   3.752
16162WAT     H248729   7.410   0.217   3.840
16163WAT      O48730   1.557   2.556   3.029
16163WAT     H148731   1.566   2.523   3.123
16163WAT     H248732   1.461   2.553   3.002
16164WAT      O48733   7.591   8.905   6.510
16164WAT     H148734   7.545   8.915   6.422
16164WAT     H248735   7.551   8.828   6.560
16165WAT      O48736   8.084   5.174   0.308
16165WAT     H148737   8.145   5.105   0.270
16165WAT     H248738   8.072   5.248   0.241
16166WAT      O48739   6.110   4.894   1.066
16166WAT     H148740   6.155   4.929   1.149
16166WAT     H248741   6.154   4.934   0.986
16167WAT      O48742   0.365   5.512   1.622
16167WAT     H148743   0.289   5.469   1.671
16167WAT     H248744   0.389   5.598   1.668
16168WAT      O48745   0.205   8.316   7.107
16168WAT     H148746   0.176   8.398   7.058
16168WAT     H248747   0.254   8.342   7.190
16169WAT      O48748   4.247   9.818   2.483
16169WAT     H148749   4.172   9.873   2.519
16169WAT     H248750   4.279   9.755   2.554
16170WAT      O48751   5.871   1.747   3.098
16170WAT     H148752   5.962   1.782   3.120
16170WAT     H248753   5.867   1.725   3.000
16171WAT      O48754   3.979   0.275   7.447
16171WAT     H148755   3.919   0.246   7.372
16171WAT     H248756   4.037   0.350   7.416
16172WAT      O48757   8.719   1.154   0.911
16172WAT     H148758   8.736   1.252   0.924
16172WAT     H248759   8.805   1.104   0.916
16173WAT      O48760   3.835   8.164   0.703
16173WAT     H148761   3.794   8.074   0.690
16173WAT     H248762   3.765   8.230   0.729
16174WAT      O48763   2.318   0.289   2.422
16174WAT     H148764   2.265   0.231   2.483
16174WAT     H248765   2.264   0.370   2.397
16175WAT      O48766   4.711   7.281   0.603
16175WAT     H148767   4.688   7.352   0.669
16175WAT     H248768   4.633   7.221   0.590
16176WAT      O48769   2.707   1.312   6.199
16176WAT     H148770   2.710   1.222   6.155
16176WAT     H248771   2.620   1.356   6.179
16177WAT      O48772   6.083   0.216   3.800
16177WAT     H148773   6.160   0.248   3.744
16177WAT     H248774   6.005   0.197   3.741
16178WAT      O48775   9.721   8.747   0.425
16178WAT     H148776   9.660   8.682   0.378
16178WAT     H248777   9.795   8.698   0.468
16179WAT      O48778   7.709   5.089   9.681
16179WAT     H148779   7.770   5.091   9.602
16179WAT     H248780   7.646   5.166   9.677
16180WAT      O48781   3.644   4.219   2.384
16180WAT     H148782   3.655   4.125   2.353
16180WAT     H248783   3.690   4.230   2.472
16181WAT      O48784   2.852   7.053   8.769
16181WAT     H148785   2.843   7.051   8.869
16181WAT     H248786   2.949   7.045   8.744
16182WAT      O48787   3.393   3.365   2.131
16182WAT     H148788   3.350   3.384   2.043
16182WAT     H248789   3.488   3.338   2.116
16183WAT      O48790   8.632   6.600   9.310
16183WAT     H148791   8.575   6.542   9.367
16183WAT     H248792   8.728   6.572   9.318
16184WAT      O48793   7.198   8.232   6.176
16184WAT     H148794   7.124   8.280   6.129
16184WAT     H248795   7.245   8.171   6.112
16185WAT      O48796   5.697   6.638   3.575
16185WAT     H148797   5.693   6.565   3.507
16185WAT     H248798   5.785   6.686   3.568
16186WAT      O48799   8.463   9.635   3.081
16186WAT     H148800   8.536   9.608   3.144
16186WAT     H248801   8.375   9.629   3.127
16187WAT      O48802   4.445   4.417   6.143
16187WAT     H148803   4.479   4.328   6.112
16187WAT     H248804   4.498   4.490   6.099
16188WAT      O48805   6.939   0.685   2.667
16188WAT     H148806   6.849   0.651   2.696
16188WAT     H248807   6.927   0.755   2.597
16189WAT      O48808   8.569   2.563   2.331
16189WAT     H148809   8.507   2.633   2.295
16189WAT     H248810   8.523   2.474   2.327
16190WAT      O48811   6.752   1.793   2.219
16190WAT     H148812   6.766   1.743   2.134
16190WAT     H248813   6.727   1.729   2.292
16191WAT      O48814   6.018   8.908   4.295
16191WAT     H148815   6.101   8.864   4.328
16191WAT     H248816   5.970   8.952   4.371
16192WAT      O48817   1.297   0.663   0.476
16192WAT     H148818   1.265   0.630   0.565
16192WAT     H248819   1.386   0.707   0.486
16193WAT      O48820   1.330   8.789   1.630
16193WAT     H148821   1.317   8.870   1.572
16193WAT     H248822   1.252   8.727   1.618
16194WAT      O48823   2.008   6.764   2.722
16194WAT     H148824   2.043   6.684   2.771
16194WAT     H248825   1.909   6.768   2.732
16195WAT      O48826   6.501   2.561   8.521
16195WAT     H148827   6.573   2.554   8.452
16195WAT     H248828   6.467   2.470   8.543
16196WAT      O48829   4.913   3.686   0.089
16196WAT     H148830   4.968   3.745   0.148
16196WAT     H248831   4.820   3.722   0.083
16197WAT      O48832   9.870   1.969   0.615
16197WAT     H148833   9.907   2.005   0.701
16197WAT     H248834   9.930   1.994   0.540
16198WAT      O48835   9.013   8.755   1.135
16198WAT     H148836   9.067   8.767   1.218
16198WAT     H248837   9.057   8.802   1.059
16199WAT      O48838   3.873   7.925   9.744
16199WAT     H148839   3.912   7.852   9.799
16199WAT     H248840   3.821   7.987   9.804
16200WAT      O48841   6.693   1.495   1.169
16200WAT     H148842   6.594   1.485   1.159
16200WAT     H248843   6.721   1.468   1.261
16201WAT      O48844   1.224   6.355   1.189
16201WAT     H148845   1.146   6.394   1.139
16201WAT     H248846   1.299   6.337   1.125
16202WAT      O48847   7.299   1.770   3.363
16202WAT     H148848   7.368   1.836   3.333
16202WAT     H248849   7.236   1.751   3.288
16203WAT      O48850   8.589   3.094   9.637
16203WAT     H148851   8.586   3.005   9.681
16203WAT     H248852   8.664   3.148   9.675
16204WAT      O48853   2.994   6.181   0.902
16204WAT     H148854   3.059   6.256   0.899
16204WAT     H248855   2.960   6.170   0.996
16205WAT      O48856   7.823   7.513   2.560
16205WAT     H148857   7.794   7.474   2.647
16205WAT     H248858   7.917   7.485   2.540
16206WAT      O48859   0.709   6.150   1.816
16206WAT     H148860   0.726   6.236   1.865
16206WAT     H248861   0.644   6.166   1.742
16207WAT      O48862   3.784   2.525   2.751
16207WAT     H148863   3.702   2.581   2.765
16207WAT     H248864   3.857   2.583   2.712
16208WAT      O48865   6.748   3.307   4.291
16208WAT     H148866   6.722   3.353   4.375
16208WAT     H248867   6.684   3.232   4.272
16209WAT      O48868   6.316   7.168   0.147
16209WAT     H148869   6.217   7.169   0.160
16209WAT     H248870   6.338   7.204   0.057
16210WAT      O48871   1.120   7.477   6.007
16210WAT     H148872   1.101   7.492   5.910
16210WAT     H248873   1.214   7.506   6.028
16211WAT      O48874   0.120   0.090   9.285
16211WAT     H148875   0.169   0.033   9.220
16211WAT     H248876   0.022   0.088   9.264
16212WAT      O48877   7.521   1.390   4.943
16212WAT     H148878   7.545   1.484   4.964
16212WAT     H248879   7.444   1.361   4.999
16213WAT      O48880   4.485   4.871   8.045
16213WAT     H148881   4.426   4.801   8.006
16213WAT     H248882   4.558   4.893   7.980
16214WAT      O48883   3.469   0.876   8.757
16214WAT     H148884   3.553   0.866   8.810
16214WAT     H248885   3.463   0.969   8.720
16215WAT      O48886   6.913   5.839   3.054
16215WAT     H148887   6.859   5.840   2.970
16215WAT     H248888   7.010   5.842   3.032
16216WAT      O48889   9.872   1.279   0.236
16216WAT     H148890   9.857   1.377   0.221
16216WAT     H248891   9.806   1.245   0.302
16217WAT      O48892   2.384   2.045   2.906
16217WAT     H148893   2.405   1.947   2.904
16217WAT     H248894   2.335   2.067   2.990
16218WAT      O48895   4.966   8.365   8.522
16218WAT     H148896   4.997   8.299   8.453
16218WAT     H248897   5.020   8.449   8.515
16219WAT      O48898   8.547   3.257   2.248
16219WAT     H148899   8.612   3.181   2.251
16219WAT     H248900   8.503   3.267   2.338
16220WAT      O48901   2.619   3.165   3.949
16220WAT     H148902   2.526   3.181   3.918
16220WAT     H248903   2.683   3.191   3.877
16221WAT      O48904   4.073   5.688   8.277
16221WAT     H148905   4.091   5.591   8.288
16221WAT     H248906   4.145   5.741   8.323
16222WAT      O48907   7.356   6.800   3.169
16222WAT     H148908   7.291   6.875   3.181
16222WAT     H248909   7.311   6.724   3.122
16223WAT      O48910   2.056   8.546   6.259
16223WAT     H148911   1.985   8.492   6.213
16223WAT     H248912   2.114   8.590   6.191
16224WAT      O48913   6.721   5.345   7.432
16224WAT     H148914   6.685   5.436   7.408
16224WAT     H248915   6.652   5.276   7.411
16225WAT      O48916   9.160   7.100   1.368
16225WAT     H148917   9.185   7.031   1.300
16225WAT     H248918   9.081   7.153   1.335
16226WAT      O48919   9.139   6.982   2.615
16226WAT     H148920   9.072   6.921   2.574
16226WAT     H248921   9.096   7.033   2.690
16227WAT      O48922   0.384   8.655   2.203
16227WAT     H148923   0.342   8.575   2.244
16227WAT     H248924   0.456   8.690   2.263
16228WAT      O48925   4.350   9.074   2.758
16228WAT     H148926   4.327   8.988   2.712
16228WAT     H248927   4.409   9.055   2.836
16229WAT      O48928   2.567   4.975   6.501
16229WAT     H148929   2.530   4.893   6.547
16229WAT     H248930   2.588   5.044   6.570
16230WAT      O48931   1.525   9.134   6.882
16230WAT     H148932   1.593   9.115   6.953
16230WAT     H248933   1.534   9.067   6.808
16231WAT      O48934   2.042   0.134   6.167
16231WAT     H148935   2.051   0.140   6.067
16231WAT     H248936   1.958   0.179   6.195
16232WAT      O48937   4.331   8.709   7.520
16232WAT     H148938   4.356   8.615   7.543
16232WAT     H248939   4.231   8.717   7.520
16233WAT      O48940   1.162   0.340   8.648
16233WAT     H148941   1.258   0.365   8.659
16233WAT     H248942   1.130   0.290   8.728
16234WAT      O48943   5.950   9.599   9.492
16234WAT     H148944   5.939   9.673   9.558
16234WAT     H248945   6.036   9.551   9.510
16235WAT      O48946   0.921   7.178   9.772
16235WAT     H148947   0.830   7.217   9.792
16235WAT     H248948   0.960   7.223   9.692
16236WAT      O48949   6.477   4.146   7.163
16236WAT     H148950   6.550   4.212   7.183
16236WAT     H248951   6.453   4.151   7.066
16237WAT      O48952   8.066   3.222   0.166
16237WAT     H148953   8.134   3.162   0.124
16237WAT     H248954   7.990   3.167   0.200
16238WAT      O48955   5.749   8.281   4.933
16238WAT     H148956   5.753   8.182   4.944
16238WAT     H248957   5.775   8.306   4.840
16239WAT      O48958   2.662   3.632   4.226
16239WAT     H148959   2.668   3.534   4.205
16239WAT     H248960   2.569   3.664   4.208
16240WAT      O48961   7.441   2.233   9.638
16240WAT     H148962   7.358   2.182   9.616
16240WAT     H248963   7.500   2.237   9.558
16241WAT      O48964   6.587   3.076   6.171
16241WAT     H148965   6.677   3.036   6.151
16241WAT     H248966   6.582   3.099   6.268
16242WAT      O48967   1.950   3.183   1.950
16242WAT     H148968   2.001   3.256   1.906
16242WAT     H248969   1.852   3.199   1.937
16243WAT      O48970   3.795   1.891   9.275
16243WAT     H148971   3.882   1.915   9.319
16243WAT     H248972   3.813   1.854   9.184
16244WAT      O48973   0.645   1.976   1.803
16244WAT     H148974   0.713   2.001   1.734
16244WAT     H248975   0.668   2.020   1.890
16245WAT      O48976   6.201   2.588   3.630
16245WAT     H148977   6.154   2.665   3.586
16245WAT     H248978   6.298   2.592   3.607
16246WAT      O48979   1.168   0.567   6.148
16246WAT     H148980   1.154   0.661   6.118
16246WAT     H248981   1.212   0.566   6.238
16247WAT      O48982   1.817   6.239   1.553
16247WAT     H148983   1.815   6.277   1.646
16247WAT     H248984   1.745   6.283   1.498
16248WAT      O48985   0.218   3.140   3.313
16248WAT     H148986   0.131   3.145   3.264
16248WAT     H248987   0.277   3.072   3.270
16249WAT      O48988   0.977   3.131   1.834
16249WAT     H148989   0.882   3.117   1.808
16249WAT     H248990   0.984   3.138   1.934
16250WAT      O48991   0.041   3.097   7.365
16250WAT     H148992   0.006   3.175   7.416
16250WAT     H248993  -0.026   3.070   7.296
16251WAT      O48994   6.055   4.559   5.496
16251WAT     H148995   6.063   4.595   5.589
16251WAT     H248996   6.017   4.629   5.436
16252WAT      O48997   7.419   2.280   8.947
16252WAT     H148998   7.323   2.274   8.974
16252WAT     H248999   7.451   2.374   8.960
16253WAT      O49000   9.852   4.943   7.689
16253WAT     H149001   9.783   5.014   7.700
16253WAT     H249002   9.943   4.981   7.708
16254WAT      O49003   5.167   3.694   6.911
16254WAT     H149004   5.186   3.783   6.951
16254WAT     H249005   5.212   3.686   6.822
16255WAT      O49006   6.455   5.746   3.176
16255WAT     H149007   6.415   5.823   3.226
16255WAT     H249008   6.403   5.663   3.196
16256WAT      O49009   4.745   1.956   0.131
16256WAT     H149010   4.650   1.954   0.100
16256WAT     H249011   4.775   2.051   0.141
16257WAT      O49012   6.965   2.867   8.628
16257WAT     H149013   6.985   2.793   8.564
16257WAT     H249014   6.866   2.870   8.646
16258WAT      O49015   2.986   1.878   0.749
16258WAT     H149016   2.996   1.782   0.720
16258WAT     H249017   2.892   1.894   0.779
16259WAT      O49018   0.019   9.561   0.697
16259WAT     H149019  -0.014   9.648   0.734
16259WAT     H249020   0.086   9.521   0.760
16260WAT      O49021   3.094   1.915   1.115
16260WAT     H149022   3.138   1.840   1.066
16260WAT     H249023   3.081   1.992   1.054
16261WAT      O49024   2.275   1.007   0.101
16261WAT     H149025   2.362   1.025   0.145
16261WAT     H249026   2.260   0.908   0.096
16262WAT      O49027   9.771   1.360   6.579
16262WAT     H149028   9.737   1.342   6.487
16262WAT     H249029   9.839   1.290   6.603
16263WAT      O49030   3.937   4.336   1.883
16263WAT     H149031   3.839   4.347   1.902
16263WAT     H249032   3.990   4.388   1.950
16264WAT      O49033   3.582   0.047   5.419
16264WAT     H149034   3.642  -0.031   5.436
16264WAT     H249035   3.488   0.022   5.442
16265WAT      O49036   6.829   2.415   0.178
16265WAT     H149037   6.909   2.449   0.129
16265WAT     H249038   6.843   2.426   0.276
16266WAT      O49039   5.761   0.791   3.549
16266WAT     H149040   5.799   0.812   3.459
16266WAT     H249041   5.702   0.866   3.579
16267WAT      O49042   8.629   5.737   2.445
16267WAT     H149043   8.672   5.785   2.369
16267WAT     H249044   8.607   5.802   2.518
16268WAT      O49045   9.497   5.567   5.074
16268WAT     H149046   9.543   5.515   5.002
16268WAT     H249047   9.496   5.664   5.049
16269WAT      O49048   4.737   9.792   7.890
16269WAT     H149049   4.820   9.738   7.901
16269WAT     H249050   4.659   9.743   7.928
16270WAT      O49051   6.543   5.835   7.276
16270WAT     H149052   6.470   5.859   7.340
16270WAT     H249053   6.587   5.919   7.244
16271WAT      O49054   9.256   8.655   8.513
16271WAT     H149055   9.162   8.677   8.490
16271WAT     H249056   9.318   8.716   8.463
16272WAT      O49057   7.087   5.260   6.068
16272WAT     H149058   7.053   5.209   5.989
16272WAT     H249059   7.027   5.244   6.147
16273WAT      O49060   6.205   6.478   1.054
16273WAT     H149061   6.120   6.495   1.105
16273WAT     H249062   6.283   6.486   1.116
16274WAT      O49063   6.283   6.753   0.372
16274WAT     H149064   6.315   6.722   0.462
16274WAT     H249065   6.195   6.712   0.351
16275WAT      O49066   9.379   4.876   6.211
16275WAT     H149067   9.393   4.916   6.120
16275WAT     H249068   9.321   4.795   6.203
16276WAT      O49069   2.851   9.641   4.554
16276WAT     H149070   2.863   9.564   4.491
16276WAT     H249071   2.760   9.636   4.596
16277WAT      O49072   5.504   8.216   4.603
16277WAT     H149073   5.474   8.137   4.550
16277WAT     H249074   5.591   8.249   4.569
16278WAT      O49075   6.805   1.076   1.661
16278WAT     H149076   6.757   1.007   1.715
16278WAT     H249077   6.883   1.034   1.616
16279WAT      O49078   8.141   1.187   1.080
16279WAT     H149079   8.059   1.223   1.037
16279WAT     H249080   8.191   1.262   1.125
16280WAT      O49081   7.325   8.442   5.163
16280WAT     H149082   7.284   8.532   5.151
16280WAT     H249083   7.383   8.441   5.244
16281WAT      O49084   7.357   3.896   0.748
16281WAT     H149085   7.417   3.886   0.669
16281WAT     H249086   7.384   3.832   0.820
16282WAT      O49087   4.702   1.413   7.713
16282WAT     H149088   4.691   1.500   7.666
16282WAT     H249089   4.796   1.405   7.747
16283WAT      O49090   1.637   1.962   3.454
16283WAT     H149091   1.661   1.865   3.463
16283WAT     H249092   1.719   2.018   3.456
16284WAT      O49093   2.908   3.681   0.470
16284WAT     H149094   2.994   3.631   0.465
16284WAT     H249095   2.838   3.624   0.513
16285WAT      O49096   3.643   1.830   2.201
16285WAT     H149097   3.571   1.810   2.268
16285WAT     H249098   3.601   1.853   2.113
16286WAT      O49099   8.119   9.613   0.750
16286WAT     H149100   8.110   9.515   0.767
16286WAT     H249101   8.031   9.658   0.766
16287WAT      O49102   4.303   2.742   4.369
16287WAT     H149103   4.380   2.751   4.433
16287WAT     H249104   4.263   2.650   4.378
16288WAT      O49105   4.433   5.575   6.964
16288WAT     H149106   4.484   5.492   6.985
16288WAT     H249107   4.366   5.592   7.037
16289WAT      O49108   4.608   3.519   3.454
16289WAT     H149109   4.538   3.538   3.385
16289WAT     H249110   4.564   3.510   3.543
16290WAT      O49111   3.249   3.158   3.946
16290WAT     H149112   3.342   3.124   3.941
16290WAT     H249113   3.205   3.121   4.028
16291WAT      O49114   5.015   7.231   3.013
16291WAT     H149115   5.070   7.313   3.025
16291WAT     H249116   5.051   7.157   3.070
16292WAT      O49117   8.374   7.926   3.387
16292WAT     H149118   8.366   7.871   3.470
16292WAT     H249119   8.471   7.941   3.366
16293WAT      O49120   1.286   3.899   9.338
16293WAT     H149121   1.286   3.870   9.243
16293WAT     H249122   1.193   3.921   9.367
16294WAT      O49123   0.335   1.684   2.641
16294WAT     H149124   0.377   1.747   2.707
16294WAT     H249125   0.325   1.594   2.683
16295WAT      O49126   3.927   6.760   9.735
16295WAT     H149127   3.970   6.678   9.696
16295WAT     H249128   3.869   6.803   9.667
16296WAT      O49129   6.528   1.369   1.872
16296WAT     H149130   6.628   1.364   1.871
16296WAT     H249131   6.490   1.278   1.887
16297WAT      O49132   4.565   5.351   7.487
16297WAT     H149133   4.513   5.392   7.412
16297WAT     H249134   4.636   5.415   7.517
16298WAT      O49135   8.304   6.409   7.445
16298WAT     H149136   8.276   6.484   7.505
16298WAT     H249137   8.402   6.416   7.427
16299WAT      O49138   2.998   0.316   3.562
16299WAT     H149139   2.961   0.363   3.642
16299WAT     H249140   3.008   0.382   3.487
16300WAT      O49141   8.045   1.112   2.320
16300WAT     H149142   7.995   1.032   2.287
16300WAT     H249143   8.005   1.143   2.406
16301WAT      O49144   9.842   9.654   5.394
16301WAT     H149145   9.862   9.742   5.352
16301WAT     H249146   9.891   9.647   5.481
16302WAT      O49147   2.403   0.744   8.288
16302WAT     H149148   2.325   0.774   8.344
16302WAT     H249149   2.383   0.655   8.247
16303WAT      O49150   7.820   1.007   9.554
16303WAT     H149151   7.756   1.069   9.508
16303WAT     H249152   7.825   1.030   9.651
16304WAT      O49153   7.556   1.016   6.121
16304WAT     H149154   7.514   0.966   6.045
16304WAT     H249155   7.538   1.114   6.109
16305WAT      O49156   4.769   1.048   9.037
16305WAT     H149157   4.752   1.098   9.122
16305WAT     H249158   4.756   0.950   9.053
16306WAT      O49159   6.480   8.967   4.360
16306WAT     H149160   6.442   9.027   4.290
16306WAT     H249161   6.522   9.022   4.432
16307WAT      O49162   6.682   8.738   9.786
16307WAT     H149163   6.747   8.811   9.766
16307WAT     H249164   6.679   8.721   9.884
16308WAT      O49165   7.144   9.434   9.043
16308WAT     H149166   7.206   9.383   8.984
16308WAT     H249167   7.053   9.437   9.001
16309WAT      O49168   3.367   0.497   5.895
16309WAT     H149169   3.367   0.432   5.971
16309WAT     H249170   3.395   0.587   5.928
16310WAT      O49171   4.825   1.104   6.055
16310WAT     H149172   4.907   1.048   6.066
16310WAT     H249173   4.829   1.152   5.967
16311WAT      O49174   9.858   4.025   1.779
16311WAT     H149175   9.814   3.935   1.785
16311WAT     H249176   9.955   4.015   1.804
16312WAT      O49177   8.523   3.231   2.545
16312WAT     H149178   8.448   3.172   2.573
16312WAT     H249179   8.607   3.177   2.536
16313WAT      O49180   9.586   4.588   6.050
16313WAT     H149181   9.511   4.571   5.986
16313WAT     H249182   9.550   4.599   6.142
16314WAT      O49183   8.716   3.534   7.724
16314WAT     H149184   8.680   3.457   7.776
16314WAT     H249185   8.710   3.515   7.627
16315WAT      O49186   5.942   1.674   7.806
16315WAT     H149187   5.991   1.759   7.784
16315WAT     H249188   6.006   1.598   7.810
16316WAT      O49189   6.194   2.690   0.977
16316WAT     H149190   6.114   2.631   0.973
16316WAT     H249191   6.223   2.702   1.072
16317WAT      O49192   6.454   4.170   5.631
16317WAT     H149193   6.440   4.106   5.555
16317WAT     H249194   6.466   4.263   5.595
16318WAT      O49195   7.750   8.448   8.926
16318WAT     H149196   7.834   8.413   8.884
16318WAT     H249197   7.769   8.473   9.021
16319WAT      O49198   6.517   2.348   0.652
16319WAT     H149199   6.453   2.344   0.575
16319WAT     H249200   6.583   2.421   0.636
16320WAT      O49201   8.326   4.127   0.300
16320WAT     H149202   8.227   4.139   0.299
16320WAT     H249203   8.355   4.080   0.216
16321WAT      O49204   5.750   4.242   5.269
16321WAT     H149205   5.816   4.182   5.315
16321WAT     H249206   5.747   4.330   5.316
16322WAT      O49207   9.498   4.680   2.862
16322WAT     H149208   9.450   4.673   2.774
16322WAT     H249209   9.467   4.762   2.911
16323WAT      O49210   6.201   4.460   9.507
16323WAT     H149211   6.287   4.419   9.539
16323WAT     H249212   6.130   4.390   9.503
16324WAT      O49213   7.056   5.690   5.133
16324WAT     H149214   7.140   5.642   5.108
16324WAT     H249215   6.977   5.636   5.105
16325WAT      O49216   8.310   4.146   1.005
16325WAT     H149217   8.345   4.223   1.058
16325WAT     H249218   8.221   4.118   1.041
16326WAT      O49219   2.962   7.515   9.280
16326WAT     H149220   2.977   7.533   9.182
16326WAT     H249221   3.044   7.472   9.318
16327WAT      O49222   9.066   0.568   8.839
16327WAT     H149223   9.160   0.536   8.852
16327WAT     H249224   9.064   0.642   8.773
16328WAT      O49225   6.929   1.637   4.794
16328WAT     H149226   6.931   1.705   4.719
16328WAT     H249227   6.862   1.567   4.773
16329WAT      O49228   4.918   8.538   9.352
16329WAT     H149229   4.988   8.484   9.306
16329WAT     H249230   4.961   8.607   9.410
16330WAT      O49231   8.687   8.317   9.116
16330WAT     H149232   8.673   8.222   9.143
16330WAT     H249233   8.736   8.320   9.028
16331WAT      O49234   7.736   4.373   6.229
16331WAT     H149235   7.782   4.415   6.308
16331WAT     H249236   7.727   4.440   6.156
16332WAT      O49237   6.448   2.684   8.276
16332WAT     H149238   6.372   2.619   8.268
16332WAT     H249239   6.484   2.681   8.369
16333WAT      O49240   8.410   3.906   4.856
16333WAT     H149241   8.418   3.892   4.757
16333WAT     H249242   8.490   3.866   4.901
16334WAT      O49243   5.983   6.853   2.102
16334WAT     H149244   5.946   6.930   2.050
16334WAT     H249245   5.910   6.810   2.155
16335WAT      O49246   4.249   5.827   8.422
16335WAT     H149247   4.243   5.836   8.522
16335WAT     H249248   4.277   5.915   8.383
16336WAT      O49249   4.738   8.700   2.327
16336WAT     H149250   4.772   8.776   2.274
16336WAT     H249251   4.675   8.734   2.397
16337WAT      O49252   1.043   5.047   5.516
16337WAT     H149253   1.020   4.987   5.593
16337WAT     H249254   0.959   5.086   5.478
16338WAT      O49255   9.362   3.241   4.781
16338WAT     H149256   9.275   3.288   4.791
16338WAT     H249257   9.351   3.144   4.806
16339WAT      O49258   8.806   0.559   4.489
16339WAT     H149259   8.716   0.599   4.470
16339WAT     H249260   8.872   0.590   4.420
16340WAT      O49261   8.569   9.368   4.375
16340WAT     H149262   8.574   9.283   4.428
16340WAT     H249263   8.488   9.419   4.402
16341WAT      O49264   9.677   5.537   1.124
16341WAT     H149265   9.632   5.495   1.045
16341WAT     H249266   9.753   5.594   1.093
16342WAT      O49267   7.495   9.125   9.392
16342WAT     H149268   7.432   9.178   9.336
16342WAT     H249269   7.444   9.077   9.464
16343WAT      O49270   1.812   1.045   4.617
16343WAT     H149271   1.871   0.979   4.571
16343WAT     H249272   1.835   1.137   4.586
16344WAT      O49273   2.349   5.107   2.581
16344WAT     H149274   2.435   5.145   2.614
16344WAT     H249275   2.310   5.167   2.511
16345WAT      O49276   5.970   8.403   3.854
16345WAT     H149277   5.929   8.482   3.807
16345WAT     H249278   5.977   8.327   3.790
16346WAT      O49279   3.357   3.499   6.794
16346WAT     H149280   3.319   3.502   6.886
16346WAT     H249281   3.372   3.403   6.768
16347WAT      O49282   5.553   6.629   8.384
16347WAT     H149283   5.557   6.565   8.461
16347WAT     H249284   5.559   6.578   8.298
16348WAT      O49285   9.042   6.152   7.621
16348WAT     H149286   9.040   6.220   7.547
16348WAT     H249287   8.949   6.120   7.638
16349WAT      O49288   9.076   7.739   3.403
16349WAT     H149289   8.992   7.707   3.359
16349WAT     H249290   9.108   7.821   3.357
16350WAT      O49291   8.669   6.675   6.258
16350WAT     H149292   8.582   6.718   6.282
16350WAT     H249293   8.702   6.621   6.335
16351WAT      O49294   5.568   6.660   7.299
16351WAT     H149295   5.572   6.747   7.250
16351WAT     H249296   5.474   6.642   7.329
16352WAT      O49297   5.856   6.596   5.341
16352WAT     H149298   5.918   6.672   5.323
16352WAT     H249299   5.888   6.514   5.295
16353WAT      O49300   2.746   7.566   0.210
16353WAT     H149301   2.743   7.550   0.309
16353WAT     H249302   2.653   7.585   0.177
16354WAT      O49303   1.595   6.262   1.412
16354WAT     H149304   1.639   6.222   1.332
16354WAT     H249305   1.540   6.193   1.459
16355WAT      O49306   3.219   1.199   5.623
16355WAT     H149307   3.265   1.284   5.600
16355WAT     H249308   3.287   1.127   5.636
16356WAT      O49309   1.258   6.584   3.319
16356WAT     H149310   1.243   6.556   3.414
16356WAT     H249311   1.294   6.677   3.317
16357WAT      O49312   5.077   8.257   8.048
16357WAT     H149313   5.017   8.325   8.089
16357WAT     H249314   5.087   8.276   7.950
16358WAT      O49315   9.864   2.938   2.213
16358WAT     H149316   9.894   3.029   2.182
16358WAT     H249317   9.860   2.876   2.135
16359WAT      O49318   8.752   6.222   0.004
16359WAT     H149319   8.806   6.139   0.017
16359WAT     H249320   8.800   6.283  -0.058
16360WAT      O49321   6.608   0.319   6.524
16360WAT     H149322   6.535   0.254   6.542
16360WAT     H249323   6.599   0.397   6.585
16361WAT      O49324   1.573   8.986   0.715
16361WAT     H149325   1.672   8.977   0.702
16361WAT     H249326   1.552   9.079   0.747
16362WAT      O49327   3.609   7.604   8.692
16362WAT     H149328   3.612   7.566   8.784
16362WAT     H249329   3.636   7.700   8.694
16363WAT      O49330   2.811   5.262   6.963
16363WAT     H149331   2.765   5.173   6.956
16363WAT     H249332   2.743   5.333   6.983
16364WAT      O49333   8.299   0.243   3.149
16364WAT     H149334   8.348   0.197   3.223
16364WAT     H249335   8.259   0.175   3.088
16365WAT      O49336   7.239   4.546   4.557
16365WAT     H149337   7.181   4.485   4.611
16365WAT     H249338   7.239   4.516   4.462
16366WAT      O49339   2.229   1.145   3.568
16366WAT     H149340   2.210   1.060   3.520
16366WAT     H249341   2.181   1.220   3.523
16367WAT      O49342   1.575   1.699   8.518
16367WAT     H149343   1.554   1.637   8.442
16367WAT     H249344   1.495   1.757   8.536
16368WAT      O49345   1.465   3.677   4.050
16368WAT     H149346   1.373   3.642   4.066
16368WAT     H249347   1.497   3.727   4.130
16369WAT      O49348   0.961   8.331   2.688
16369WAT     H149349   1.049   8.299   2.725
16369WAT     H249350   0.929   8.409   2.742
16370WAT      O49351   7.660   9.196   2.603
16370WAT     H149352   7.609   9.167   2.684
16370WAT     H249353   7.699   9.116   2.558
16371WAT      O49354   6.633   5.828   4.728
16371WAT     H149355   6.534   5.818   4.738
16371WAT     H249356   6.669   5.752   4.675
16372WAT      O49357   3.415   8.497   3.885
16372WAT     H149358   3.393   8.594   3.897
16372WAT     H249359   3.341   8.451   3.837
16373WAT      O49360   8.595   3.907   0.078
16373WAT     H149361   8.650   3.990   0.082
16373WAT     H249362   8.647   3.834   0.035
16374WAT      O49363   5.160   2.674   7.474
16374WAT     H149364   5.158   2.577   7.498
16374WAT     H249365   5.239   2.692   7.415
16375WAT      O49366   4.926   0.620   0.904
16375WAT     H149367   4.972   0.589   0.821
16375WAT     H249368   4.984   0.688   0.951
16376WAT      O49369   6.704   6.754   1.027
16376WAT     H149370   6.646   6.679   1.058
16376WAT     H249371   6.756   6.726   0.947
16377WAT      O49372   5.904   1.764   9.692
16377WAT     H149373   6.002   1.772   9.711
16377WAT     H249374   5.876   1.837   9.630
16378WAT      O49375   1.719   0.059   9.107
16378WAT     H149376   1.681   0.126   9.170
16378WAT     H249377   1.647   0.026   9.045
16379WAT      O49378   6.659   3.664   9.282
16379WAT     H149379   6.567   3.694   9.305
16379WAT     H249380   6.712   3.649   9.366
16380WAT      O49381   8.603   9.600   3.992
16380WAT     H149382   8.505   9.610   4.007
16380WAT     H249383   8.629   9.505   4.009
16381WAT      O49384   7.302   9.639   5.707
16381WAT     H149385   7.397   9.626   5.733
16381WAT     H249386   7.255   9.550   5.707
16382WAT      O49387   8.156   4.334   0.022
16382WAT     H149388   8.138   4.427  -0.011
16382WAT     H249389   8.240   4.300  -0.021
16383WAT      O49390   1.970   4.427   4.224
16383WAT     H149391   1.978   4.349   4.163
16383WAT     H249392   1.915   4.402   4.304
16384WAT      O49393   5.006   5.524   6.364
16384WAT     H149394   4.979   5.586   6.437
16384WAT     H249395   5.096   5.486   6.383
16385WAT      O49396   2.979   1.329   9.563
16385WAT     H149397   3.062   1.273   9.559
16385WAT     H249398   2.993   1.406   9.626
16386WAT      O49399   0.308   6.436   6.696
16386WAT     H149400   0.214   6.460   6.674
16386WAT     H249401   0.371   6.489   6.640
16387WAT      O49402   2.879   8.630   3.968
16387WAT     H149403   2.969   8.672   3.963
16387WAT     H249404   2.836   8.630   3.878
16388WAT      O49405   5.147   9.005   5.622
16388WAT     H149406   5.063   8.985   5.674
16388WAT     H249407   5.131   8.985   5.526
16389WAT      O49408   8.535   0.696   7.976
16389WAT     H149409   8.610   0.751   8.011
16389WAT     H249410   8.449   0.747   7.986
16390WAT      O49411   4.475   0.529   0.943
16390WAT     H149412   4.561   0.484   0.918
16390WAT     H249413   4.492   0.593   1.018
16391WAT      O49414   5.910   4.178   5.495
16391WAT     H149415   5.905   4.082   5.520
16391WAT     H249416   5.896   4.235   5.576
16392WAT      O49417   1.786   3.625   9.811
16392WAT     H149418   1.729   3.544   9.798
16392WAT     H249419   1.810   3.633   9.908
16393WAT      O49420   3.179   7.172   6.439
16393WAT     H149421   3.243   7.239   6.404
16393WAT     H249422   3.119   7.215   6.507
16394WAT      O49423   7.525   7.411   7.041
16394WAT     H149424   7.497   7.480   6.974
16394WAT     H249425   7.548   7.326   6.993
16395WAT      O49426   6.790   7.601   5.903
16395WAT     H149427   6.801   7.638   5.811
16395WAT     H249428   6.693   7.592   5.925
16396WAT      O49429   5.922   5.058   3.620
16396WAT     H149430   5.846   5.009   3.577
16396WAT     H249431   5.914   5.052   3.719
16397WAT      O49432   8.160   4.015   3.037
16397WAT     H149433   8.195   4.108   3.033
16397WAT     H249434   8.235   3.951   3.049
16398WAT      O49435   3.014   3.961   5.223
16398WAT     H149436   3.080   3.987   5.152
16398WAT     H249437   2.963   4.042   5.253
16399WAT      O49438   1.199   6.527   0.487
16399WAT     H149439   1.113   6.537   0.538
16399WAT     H249440   1.217   6.611   0.435
16400WAT      O49441   8.670   1.828   6.796
16400WAT     H149442   8.606   1.872   6.734
16400WAT     H249443   8.720   1.757   6.748
16401WAT      O49444   3.963   9.171   6.533
16401WAT     H149445   3.954   9.187   6.632
16401WAT     H249446   3.896   9.227   6.484
16402WAT      O49447   6.540   0.438   5.409
16402WAT     H149448   6.507   0.406   5.497
16402WAT     H249449   6.512   0.533   5.395
16403WAT      O49450   8.693   2.856   6.312
16403WAT     H149451   8.662   2.926   6.247
16403WAT     H249452   8.642   2.772   6.297
16404WAT      O49453   5.213   8.093   2.034
16404WAT     H149454   5.157   8.123   2.111
16404WAT     H249455   5.304   8.135   2.040
16405WAT      O49456   6.096   6.534   6.450
16405WAT     H149457   6.114   6.449   6.499
16405WAT     H249458   6.183   6.571   6.416
16406WAT      O49459   0.641   3.089   9.271
16406WAT     H149460   0.642   3.173   9.326
16406WAT     H249461   0.733   3.050   9.267
16407WAT      O49462   8.402   1.982   8.857
16407WAT     H149463   8.303   1.991   8.855
16407WAT     H249464   8.436   2.006   8.948
16408WAT      O49465   6.274   3.984   0.745
16408WAT     H149466   6.331   4.060   0.775
16408WAT     H249467   6.324   3.929   0.678
16409WAT      O49468   1.785   1.202   6.122
16409WAT     H149469   1.867   1.259   6.122
16409WAT     H249470   1.707   1.254   6.155
16410WAT      O49471   9.666   0.482   8.241
16410WAT     H149472   9.749   0.433   8.216
16410WAT     H249473   9.630   0.444   8.326
16411WAT      O49474   8.057   5.564   6.293
16411WAT     H149475   8.093   5.600   6.206
16411WAT     H249476   8.064   5.636   6.362
16412WAT      O49477   7.570   8.811   8.139
16412WAT     H149478   7.591   8.894   8.191
16412WAT     H249479   7.511   8.835   8.062
16413WAT      O49480   9.765   7.341   0.579
16413WAT     H149481   9.733   7.362   0.671
16413WAT     H249482   9.756   7.422   0.521
16414WAT      O49483   0.882   9.377   7.040
16414WAT     H149484   0.915   9.285   7.023
16414WAT     H249485   0.959   9.436   7.066
16415WAT      O49486   7.614   8.185   2.770
16415WAT     H149487   7.524   8.178   2.812
16415WAT     H249488   7.618   8.127   2.689
16416WAT      O49489   3.144   7.400   9.467
16416WAT     H149490   3.139   7.395   9.566
16416WAT     H249491   3.113   7.313   9.428
16417WAT      O49492   1.503   5.455   2.842
16417WAT     H149493   1.546   5.542   2.819
16417WAT     H249494   1.564   5.402   2.900
16418WAT      O49495   0.020   4.962   7.102
16418WAT     H149496   0.033   4.863   7.090
16418WAT     H249497   0.025   5.007   7.013
16419WAT      O49498   3.340   0.413   0.880
16419WAT     H149499   3.399   0.405   0.800
16419WAT     H249500   3.388   0.465   0.951
16420WAT      O49501   9.173   6.996   4.724
16420WAT     H149502   9.189   6.967   4.630
16420WAT     H249503   9.090   7.053   4.727
16421WAT      O49504   7.307   7.397   2.999
16421WAT     H149505   7.224   7.384   2.946
16421WAT     H249506   7.323   7.317   3.057
16422WAT      O49507   6.660   4.674   9.651
16422WAT     H149508   6.709   4.608   9.594
16422WAT     H249509   6.641   4.757   9.598
16423WAT      O49510   5.690   9.447   6.048
16423WAT     H149511   5.748   9.397   6.113
16423WAT     H249512   5.686   9.544   6.075
16424WAT      O49513   7.991   9.464   9.654
16424WAT     H149514   8.066   9.475   9.589
16424WAT     H249515   7.999   9.375   9.699
16425WAT      O49516   0.320   1.253   2.100
16425WAT     H149517   0.414   1.220   2.096
16425WAT     H249518   0.294   1.269   2.196
16426WAT      O49519   0.656   4.488   9.216
16426WAT     H149520   0.752   4.462   9.229
16426WAT     H249521   0.609   4.486   9.305
16427WAT      O49522   3.578   3.316   4.449
16427WAT     H149523   3.571   3.359   4.539
16427WAT     H249524   3.554   3.219   4.457
16428WAT      O49525   7.514   8.269   7.285
16428WAT     H149526   7.429   8.315   7.259
16428WAT     H249527   7.581   8.338   7.314
16429WAT      O49528   7.211   5.638   8.157
16429WAT     H149529   7.250   5.588   8.079
16429WAT     H249530   7.232   5.590   8.242
16430WAT      O49531   6.041   0.725   8.194
16430WAT     H149532   6.047   0.786   8.273
16430WAT     H249533   6.030   0.779   8.111
16431WAT      O49534   1.442   8.568   4.284
16431WAT     H149535   1.486   8.570   4.374
16431WAT     H249536   1.427   8.662   4.253
16432WAT      O49537   8.948   0.092   4.338
16432WAT     H149538   9.040   0.118   4.310
16432WAT     H249539   8.912   0.160   4.403
16433WAT      O49540   7.086   3.942   9.604
16433WAT     H149541   7.039   4.008   9.664
16433WAT     H249542   7.034   3.856   9.604
16434WAT      O49543   1.796   4.784   2.327
16434WAT     H149544   1.783   4.692   2.292
16434WAT     H249545   1.718   4.841   2.301
16435WAT      O49546   8.308   3.098   2.657
16435WAT     H149547   8.255   3.159   2.717
16435WAT     H249548   8.344   3.022   2.711
16436WAT      O49549   8.624   5.526   1.875
16436WAT     H149550   8.702   5.497   1.931
16436WAT     H249551   8.649   5.606   1.822
16437WAT      O49552   7.617   7.820   2.397
16437WAT     H149553   7.703   7.819   2.448
16437WAT     H249554   7.585   7.726   2.382
16438WAT      O49555   6.658   5.518   9.175
16438WAT     H149556   6.721   5.595   9.157
16438WAT     H249557   6.638   5.513   9.272
16439WAT      O49558   7.846   9.344   4.706
16439WAT     H149559   7.853   9.432   4.751
16439WAT     H249560   7.928   9.327   4.651
16440WAT      O49561   8.528   2.545   7.344
16440WAT     H149562   8.599   2.541   7.415
16440WAT     H249563   8.570   2.529   7.254
16441WAT      O49564   2.889   0.724   7.984
16441WAT     H149565   2.915   0.628   7.992
16441WAT     H249566   2.799   0.730   7.939
16442WAT      O49567   3.922   5.762   0.690
16442WAT     H149568   3.920   5.859   0.713
16442WAT     H249569   3.984   5.714   0.752
16443WAT      O49570   6.394   8.884   0.460
16443WAT     H149571   6.474   8.858   0.514
16443WAT     H249572   6.414   8.969   0.411
16444WAT      O49573   0.264   3.745   3.485
16444WAT     H149574   0.322   3.705   3.414
16444WAT     H249575   0.298   3.717   3.575
16445WAT      O49576   2.174   3.371   3.926
16445WAT     H149577   2.087   3.421   3.928
16445WAT     H249578   2.181   3.314   4.008
16446WAT      O49579   0.286   0.747   3.035
16446WAT     H149580   0.309   0.731   2.939
16446WAT     H249581   0.316   0.838   3.062
16447WAT      O49582   8.052   3.605   3.062
16447WAT     H149583   8.054   3.667   3.141
16447WAT     H249584   8.140   3.608   3.015
16448WAT      O49585   5.788   0.786   1.533
16448WAT     H149586   5.799   0.749   1.441
16448WAT     H249587   5.825   0.722   1.600
16449WAT      O49588   4.822   2.931   3.338
16449WAT     H149589   4.844   2.848   3.286
16449WAT     H249590   4.886   3.004   3.312
16450WAT      O49591   9.362   9.793   6.823
16450WAT     H149592   9.433   9.830   6.883
16450WAT     H249593   9.307   9.868   6.786
16451WAT      O49594   9.747   5.194   9.611
16451WAT     H149595   9.742   5.189   9.711
16451WAT     H249596   9.817   5.130   9.578
16452WAT      O49597   0.442   5.253   1.727
16452WAT     H149598   0.439   5.337   1.674
16452WAT     H249599   0.531   5.210   1.717
16453WAT      O49600   8.458   2.133   6.109
16453WAT     H149601   8.483   2.044   6.146
16453WAT     H249602   8.504   2.205   6.162
16454WAT      O49603   3.551   0.898   5.186
16454WAT     H149604   3.582   0.853   5.102
16454WAT     H249605   3.605   0.864   5.263
16455WAT      O49606   0.106   1.871   4.866
16455WAT     H149607   0.197   1.858   4.827
16455WAT     H249608   0.112   1.933   4.944
16456WAT      O49609   3.743   3.800   7.471
16456WAT     H149610   3.748   3.712   7.424
16456WAT     H249611   3.807   3.864   7.428
16457WAT      O49612   3.572   0.701   6.886
16457WAT     H149613   3.498   0.759   6.921
16457WAT     H249614   3.654   0.757   6.873
16458WAT      O49615   5.807   3.468   4.516
16458WAT     H149616   5.718   3.509   4.534
16458WAT     H249617   5.807   3.372   4.545
16459WAT      O49618   1.632   5.713   4.293
16459WAT     H149619   1.561   5.680   4.355
16459WAT     H249620   1.683   5.787   4.338
16460WAT      O49621   7.468   1.011   9.775
16460WAT     H149622   7.546   0.957   9.806
16460WAT     H249623   7.458   1.003   9.676
16461WAT      O49624   2.849   9.218   6.342
16461WAT     H149625   2.903   9.252   6.419
16461WAT     H249626   2.902   9.228   6.257
16462WAT      O49627   1.097   5.142   8.585
16462WAT     H149628   1.025   5.073   8.573
16462WAT     H249629   1.103   5.198   8.502
16463WAT      O49630   4.624   0.415   0.624
16463WAT     H149631   4.684   0.335   0.618
16463WAT     H249632   4.680   0.496   0.641
16464WAT      O49633   4.567   3.044   3.331
16464WAT     H149634   4.663   3.022   3.317
16464WAT     H249635   4.545   3.131   3.288
16465WAT      O49636   6.969   4.850   3.214
16465WAT     H149637   6.968   4.751   3.205
16465WAT     H249638   6.954   4.875   3.310
16466WAT      O49639   9.046   0.571   1.545
16466WAT     H149640   9.068   0.657   1.590
16466WAT     H249641   8.991   0.589   1.463
16467WAT      O49642   8.158   7.057   8.566
16467WAT     H149643   8.169   7.088   8.472
16467WAT     H249644   8.194   6.964   8.575
16468WAT      O49645   2.699   2.011   3.944
16468WAT     H149646   2.734   2.058   3.863
16468WAT     H249647   2.744   1.922   3.952
16469WAT      O49648   4.266   1.293   3.859
16469WAT     H149649   4.177   1.319   3.896
16469WAT     H249650   4.324   1.258   3.933
16470WAT      O49651   1.656   3.850   8.374
16470WAT     H149652   1.708   3.789   8.435
16470WAT     H249653   1.574   3.802   8.342
16471WAT      O49654   5.221   1.880   3.407
16471WAT     H149655   5.253   1.961   3.359
16471WAT     H249656   5.193   1.904   3.500
16472WAT      O49657   5.766   6.368   1.508
16472WAT     H149658   5.845   6.380   1.448
16472WAT     H249659   5.787   6.404   1.599
16473WAT      O49660   7.500   2.074   5.170
16473WAT     H149661   7.444   2.149   5.203
16473WAT     H249662   7.456   2.029   5.093
16474WAT      O49663   9.784   0.445   3.514
16474WAT     H149664   9.829   0.522   3.559
16474WAT     H249665   9.688   0.469   3.497
16475WAT      O49666   0.044   8.723   4.168
16475WAT     H149667   0.140   8.709   4.193
16475WAT     H249668  -0.006   8.757   4.248
16476WAT      O49669   0.080   0.602   6.135
16476WAT     H149670   0.112   0.696   6.125
16476WAT     H249671  -0.015   0.603   6.166
16477WAT      O49672   5.563   8.717   3.957
16477WAT     H149673   5.482   8.666   3.984
16477WAT     H249674   5.643   8.681   4.004
16478WAT      O49675   9.744   9.417   1.844
16478WAT     H149676   9.746   9.479   1.765
16478WAT     H249677   9.663   9.435   1.899
16479WAT      O49678   5.808   6.020   6.986
16479WAT     H149679   5.883   5.968   7.025
16479WAT     H249680   5.774   6.086   7.053
16480WAT      O49681   7.045   6.884   0.240
16480WAT     H149682   7.030   6.943   0.160
16480WAT     H249683   7.047   6.941   0.322
16481WAT      O49684   8.189   6.689   8.472
16481WAT     H149685   8.103   6.722   8.433
16481WAT     H249686   8.264   6.711   8.409
16482WAT      O49687   1.391   9.245   7.167
16482WAT     H149688   1.387   9.266   7.264
16482WAT     H249689   1.433   9.321   7.118
16483WAT      O49690   1.398   7.143   1.366
16483WAT     H149691   1.322   7.163   1.427
16483WAT     H249692   1.403   7.045   1.349
16484WAT      O49693   7.557   6.517   2.182
16484WAT     H149694   7.479   6.512   2.244
16484WAT     H249695   7.526   6.503   2.088
16485WAT      O49696   6.269   3.403   6.416
16485WAT     H149697   6.239   3.313   6.449
16485WAT     H249698   6.199   3.441   6.355
16486WAT      O49699   9.231   1.266   3.964
16486WAT     H149700   9.219   1.284   3.867
16486WAT     H249701   9.145   1.233   4.003
16487WAT      O49702   7.042   9.059   1.603
16487WAT     H149703   7.120   9.091   1.658
16487WAT     H249704   7.008   9.134   1.546
16488WAT      O49705   2.538   5.283   6.301
16488WAT     H149706   2.582   5.373   6.291
16488WAT     H249707   2.597   5.223   6.354
16489WAT      O49708   3.934   5.622   6.540
16489WAT     H149709   3.920   5.537   6.488
16489WAT     H249710   4.000   5.680   6.491
16490WAT      O49711   2.752   5.669   3.269
16490WAT     H149712   2.683   5.599   3.286
16490WAT     H249713   2.784   5.706   3.357
16491WAT      O49714   9.480   3.031   4.139
16491WAT     H149715   9.405   2.987   4.188
16491WAT     H249716   9.501   2.980   4.056
16492WAT      O49717   1.277   1.549   6.522
16492WAT     H149718   1.268   1.609   6.443
16492WAT     H249719   1.374   1.529   6.538
16493WAT      O49720   6.378   4.481   1.321
16493WAT     H149721   6.301   4.422   1.295
16493WAT     H249722   6.464   4.431   1.312
16494WAT      O49723   5.489   1.056   2.720
16494WAT     H149724   5.505   1.119   2.644
16494WAT     H249725   5.391   1.049   2.738
16495WAT      O49726   8.762   8.598   2.816
16495WAT     H149727   8.854   8.605   2.856
16495WAT     H249728   8.769   8.607   2.716
16496WAT      O49729   2.158   3.146   2.487
16496WAT     H149730   2.071   3.195   2.476
16496WAT     H249731   2.199   3.170   2.574
16497WAT      O49732   3.467   4.619   9.484
16497WAT     H149733   3.406   4.653   9.555
16497WAT     H249734   3.419   4.552   9.427
16498WAT      O49735   8.729   3.941   7.559
16498WAT     H149736   8.644   3.974   7.517
16498WAT     H249737   8.762   4.008   7.626
16499WAT      O49738   6.094   8.193   2.744
16499WAT     H149739   6.074   8.118   2.682
16499WAT     H249740   6.036   8.271   2.722
16500WAT      O49741   9.887   7.488   3.823
16500WAT     H149742   9.860   7.480   3.727
16500WAT     H249743   9.832   7.559   3.867
16501WAT      O49744   4.339   0.154   7.263
16501WAT     H149745   4.373   0.236   7.309
16501WAT     H249746   4.416   0.102   7.227
16502WAT      O49747   2.855   2.913   4.057
16502WAT     H149748   2.866   2.958   3.968
16502WAT     H249749   2.918   2.954   4.123
16503WAT      O49750   6.642   5.583   2.048
16503WAT     H149751   6.732   5.602   2.086
16503WAT     H249752   6.649   5.505   1.985
16504WAT      O49753   5.635   1.689   2.706
16504WAT     H149754   5.594   1.766   2.754
16504WAT     H249755   5.668   1.720   2.616
16505WAT      O49756   6.197   7.698   5.007
16505WAT     H149757   6.117   7.697   4.946
16505WAT     H249758   6.255   7.619   4.986
16506WAT      O49759   3.542   1.321   3.814
16506WAT     H149760   3.566   1.228   3.786
16506WAT     H249761   3.526   1.324   3.912
16507WAT      O49762   4.708   1.056   3.402
16507WAT     H149763   4.692   0.975   3.347
16507WAT     H249764   4.799   1.093   3.381
16508WAT      O49765   4.444   9.433   9.107
16508WAT     H149766   4.477   9.339   9.111
16508WAT     H249767   4.518   9.493   9.077
16509WAT      O49768   1.210   1.945   1.992
16509WAT     H149769   1.111   1.935   1.987
16509WAT     H249770   1.254   1.859   1.965
16510WAT      O49771   7.476   5.945   2.156
16510WAT     H149772   7.475   5.975   2.251
16510WAT     H249773   7.509   6.019   2.098
16511WAT      O49774   0.687   6.121   0.311
16511WAT     H149775   0.778   6.090   0.337
16511WAT     H249776   0.624   6.108   0.388
16512WAT      O49777   7.527   2.704   6.342
16512WAT     H149778   7.613   2.662   6.314
16512WAT     H249779   7.540   2.802   6.357
16513WAT      O49780   8.477   2.606   1.619
16513WAT     H149781   8.531   2.522   1.628
16513WAT     H249782   8.478   2.656   1.705
16514WAT      O49783   7.407   0.180   6.733
16514WAT     H149784   7.482   0.210   6.792
16514WAT     H249785   7.441   0.113   6.667
16515WAT      O49786   9.139   5.353   5.914
16515WAT     H149787   9.080   5.397   5.981
16515WAT     H249788   9.095   5.271   5.878
16516WAT      O49789   3.419   9.340   7.110
16516WAT     H149790   3.501   9.283   7.121
16516WAT     H249791   3.427   9.421   7.168
16517WAT      O49792   8.835   2.897   1.617
16517WAT     H149793   8.773   2.847   1.557
16517WAT     H249794   8.853   2.988   1.579
16518WAT      O49795   3.591   1.795   5.443
16518WAT     H149796   3.655   1.842   5.381
16518WAT     H249797   3.514   1.855   5.463
16519WAT      O49798   6.007   5.116   4.514
16519WAT     H149799   6.023   5.189   4.448
16519WAT     H249800   5.965   5.154   4.596
16520WAT      O49801   6.938   3.503   3.723
16520WAT     H149802   6.866   3.514   3.654
16520WAT     H249803   7.003   3.578   3.716
16521WAT      O49804   0.970   8.116   2.452
16521WAT     H149805   0.904   8.110   2.377
16521WAT     H249806   0.932   8.171   2.526
16522WAT      O49807   4.388   8.035   8.858
16522WAT     H149808   4.328   8.115   8.867
16522WAT     H249809   4.475   8.054   8.903
16523WAT      O49810   8.004   7.666   7.261
16523WAT     H149811   8.084   7.671   7.201
16523WAT     H249812   7.978   7.758   7.289
16524WAT      O49813   7.963   0.249   6.054
16524WAT     H149814   7.886   0.307   6.025
16524WAT     H249815   8.010   0.292   6.130
16525WAT      O49816   4.311   9.532   0.405
16525WAT     H149817   4.271   9.513   0.315
16525WAT     H249818   4.325   9.630   0.414
16526WAT      O49819   7.866   4.636   8.964
16526WAT     H149820   7.966   4.642   8.969
16526WAT     H249821   7.828   4.727   8.952
16527WAT      O49822   4.448   7.984   2.277
16527WAT     H149823   4.483   8.054   2.216
16527WAT     H249824   4.519   7.957   2.341
16528WAT      O49825   3.239   5.959   9.099
16528WAT     H149826   3.218   5.961   9.001
16528WAT     H249827   3.160   5.923   9.149
16529WAT      O49828   0.506   8.479   2.859
16529WAT     H149829   0.526   8.577   2.848
16529WAT     H249830   0.469   8.463   2.950
16530WAT      O49831   4.482   1.040   3.588
16530WAT     H149832   4.453   0.973   3.657
16530WAT     H249833   4.562   1.005   3.539
16531WAT      O49834   8.808   9.781   0.784
16531WAT     H149835   8.797   9.870   0.826
16531WAT     H249836   8.762   9.711   0.839
16532WAT      O49837   0.625   1.022   7.009
16532WAT     H149838   0.682   0.949   7.045
16532WAT     H249839   0.632   1.024   6.910
16533WAT      O49840   3.471   0.339   8.143
16533WAT     H149841   3.527   0.364   8.222
16533WAT     H249842   3.498   0.248   8.110
16534WAT      O49843   3.095   5.696   9.425
16534WAT     H149844   3.007   5.702   9.379
16534WAT     H249845   3.091   5.626   9.496
16535WAT      O49846   8.632   0.658   7.115
16535WAT     H149847   8.533   0.665   7.104
16535WAT     H249848   8.676   0.739   7.077
16536WAT      O49849   0.024   8.062   5.145
16536WAT     H149850   0.047   7.995   5.216
16536WAT     H249851   0.052   8.153   5.175
16537WAT      O49852   7.743   1.825   8.684
16537WAT     H149853   7.752   1.924   8.697
16537WAT     H249854   7.652   1.805   8.646
16538WAT      O49855   0.268   0.740   8.526
16538WAT     H149856   0.247   0.758   8.622
16538WAT     H249857   0.271   0.826   8.476
16539WAT      O49858   5.576   1.811   3.010
16539WAT     H149859   5.662   1.787   3.055
16539WAT     H249860   5.509   1.738   3.023
16540WAT      O49861   8.552   5.693   7.952
16540WAT     H149862   8.609   5.657   7.877
16540WAT     H249863   8.530   5.789   7.934
16541WAT      O49864   2.628   9.795   9.255
16541WAT     H149865   2.631   9.701   9.288
16541WAT     H249866   2.557   9.803   9.185
16542WAT      O49867   1.194   5.791   8.566
16542WAT     H149868   1.243   5.870   8.604
16542WAT     H249869   1.096   5.808   8.569
16543WAT      O49870   3.679   1.023   1.511
16543WAT     H149871   3.754   0.961   1.488
16543WAT     H249872   3.596   0.995   1.463
16544WAT      O49873   5.182   2.525   1.245
16544WAT     H149874   5.087   2.525   1.216
16544WAT     H249875   5.214   2.620   1.256
16545WAT      O49876   1.136   3.932   4.129
16545WAT     H149877   1.215   3.969   4.177
16545WAT     H249878   1.126   3.979   4.041
16546WAT      O49879   0.451   9.560   1.194
16546WAT     H149880   0.393   9.499   1.249
16546WAT     H249881   0.414   9.566   1.102
16547WAT      O49882   8.307   1.034   6.588
16547WAT     H149883   8.268   1.094   6.657
16547WAT     H249884   8.325   0.944   6.629
16548WAT      O49885   8.978   4.082   3.474
16548WAT     H149886   9.024   4.171   3.469
16548WAT     H249887   8.879   4.096   3.470
16549WAT      O49888   0.391   1.499   9.560
16549WAT     H149889   0.379   1.568   9.631
16549WAT     H249890   0.462   1.434   9.587
16550WAT      O49891   2.063   3.158   3.648
16550WAT     H149892   1.999   3.115   3.584
16550WAT     H249893   2.028   3.149   3.741
16551WAT      O49894   3.642   0.993   0.526
16551WAT     H149895   3.701   0.969   0.449
16551WAT     H249896   3.562   0.934   0.526
16552WAT      O49897   6.344   6.632   4.708
16552WAT     H149898   6.370   6.639   4.804
16552WAT     H249899   6.262   6.575   4.699
16553WAT      O49900   4.002   3.416   0.510
16553WAT     H149901   4.055   3.332   0.501
16553WAT     H249902   3.985   3.434   0.607
16554WAT      O49903   1.370   0.328   1.988
16554WAT     H149904   1.354   0.288   1.898
16554WAT     H249905   1.327   0.271   2.058
16555WAT      O49906   9.509   7.265   5.488
16555WAT     H149907   9.477   7.228   5.401
16555WAT     H249908   9.541   7.190   5.546
16556WAT      O49909   7.503   7.840   2.684
16556WAT     H149910   7.486   7.837   2.782
16556WAT     H249911   7.600   7.821   2.666
16557WAT      O49912   4.872   1.454   7.132
16557WAT     H149913   4.956   1.492   7.092
16557WAT     H249914   4.868   1.480   7.229
16558WAT      O49915   1.081   8.030   9.636
16558WAT     H149916   1.148   8.058   9.567
16558WAT     H249917   1.072   7.931   9.635
16559WAT      O49918   4.241   6.846   6.523
16559WAT     H149919   4.148   6.881   6.535
16559WAT     H249920   4.292   6.905   6.461
16560WAT      O49921   7.671   0.481   9.068
16560WAT     H149922   7.730   0.454   8.992
16560WAT     H249923   7.713   0.454   9.154
16561WAT      O49924   1.877   5.709   4.642
16561WAT     H149925   1.951   5.708   4.710
16561WAT     H249926   1.827   5.795   4.648
16562WAT      O49927   8.609   8.416   8.741
16562WAT     H149928   8.703   8.395   8.770
16562WAT     H249929   8.552   8.429   8.822
16563WAT      O49930   0.364   0.911   3.886
16563WAT     H149931   0.314   0.973   3.825
16563WAT     H249932   0.299   0.862   3.945
16564WAT      O49933   5.807   3.488   9.063
16564WAT     H149934   5.741   3.538   9.120
16564WAT     H249935   5.792   3.510   8.967
16565WAT      O49936   7.389   1.757   5.845
16565WAT     H149937   7.332   1.676   5.864
16565WAT     H249938   7.375   1.786   5.751
16566WAT      O49939   8.968   0.652   2.816
16566WAT     H149940   9.065   0.630   2.825
16566WAT     H249941   8.957   0.751   2.802
16567WAT      O49942   7.111   2.313   0.725
16567WAT     H149943   7.074   2.371   0.797
16567WAT     H249944   7.036   2.266   0.678
16568WAT      O49945   5.203   3.308   2.336
16568WAT     H149946   5.222   3.367   2.257
16568WAT     H249947   5.105   3.290   2.341
16569WAT      O49948   6.342   9.677   1.848
16569WAT     H149949   6.249   9.679   1.885
16569WAT     H249950   6.343   9.625   1.763
16570WAT      O49951   6.959   5.952   7.862
16570WAT     H149952   7.013   5.873   7.833
16570WAT     H249953   6.863   5.937   7.841
16571WAT      O49954   2.598   9.520   4.563
16571WAT     H149955   2.569   9.533   4.468
16571WAT     H249956   2.549   9.442   4.602
16572WAT      O49957   4.087   8.777   9.117
16572WAT     H149958   4.037   8.850   9.071
16572WAT     H249959   4.185   8.785   9.097
16573WAT      O49960   4.499   5.029   2.154
16573WAT     H149961   4.530   5.122   2.170
16573WAT     H249962   4.548   4.966   2.215
16574WAT      O49963   9.434   0.489   1.935
16574WAT     H149964   9.473   0.429   2.005
16574WAT     H249965   9.336   0.500   1.951
16575WAT      O49966   9.346   2.042   2.343
16575WAT     H149967   9.423   2.105   2.336
16575WAT     H249968   9.264   2.091   2.371
16576WAT      O49969   0.388   4.889   7.276
16576WAT     H149970   0.479   4.902   7.238
16576WAT     H249971   0.343   4.978   7.286
16577WAT      O49972   0.026   8.604   1.593
16577WAT     H149973   0.058   8.699   1.598
16577WAT     H249974  -0.035   8.594   1.514
16578WAT      O49975   7.054   2.769   2.855
16578WAT     H149976   7.028   2.778   2.952
16578WAT     H249977   6.990   2.823   2.800
16579WAT      O49978   7.801   8.340   4.128
16579WAT     H149979   7.717   8.287   4.135
16579WAT     H249980   7.816   8.365   4.032
16580WAT      O49981   0.619   4.540   4.045
16580WAT     H149982   0.631   4.587   4.133
16580WAT     H249983   0.569   4.599   3.982
16581WAT      O49984   3.755   0.318   3.034
16581WAT     H149985   3.668   0.276   3.011
16581WAT     H249986   3.746   0.417   3.032
16582WAT      O49987   9.620   6.135   2.571
16582WAT     H149988   9.706   6.184   2.563
16582WAT     H249989   9.637   6.037   2.568
16583WAT      O49990   2.695   8.244   4.314
16583WAT     H149991   2.668   8.179   4.244
16583WAT     H249992   2.615   8.268   4.369
16584WAT      O49993   1.340   5.443   7.130
16584WAT     H149994   1.411   5.493   7.079
16584WAT     H249995   1.381   5.400   7.210
16585WAT      O49996   1.753   6.625   9.764
16585WAT     H149997   1.808   6.677   9.698
16585WAT     H249998   1.813   6.587   9.834
16586WAT      O49999   0.583   2.470   8.045
16586WAT     H150000   0.483   2.463   8.042
16586WAT     H250001   0.612   2.498   8.136
16587WAT      O50002   8.137   5.998   6.121
16587WAT     H150003   8.196   5.920   6.143
16587WAT     H250004   8.176   6.081   6.161
16588WAT      O50005   1.374   7.703   7.306
16588WAT     H150006   1.364   7.771   7.378
16588WAT     H250007   1.299   7.637   7.311
16589WAT      O50008   8.730   5.870   2.248
16589WAT     H150009   8.690   5.864   2.157
16589WAT     H250010   8.755   5.965   2.268
16590WAT      O50011   0.159   7.229   6.056
16590WAT     H150012   0.107   7.229   5.971
16590WAT     H250013   0.235   7.294   6.048
16591WAT      O50014   6.986   4.424   1.328
16591WAT     H150015   7.074   4.377   1.335
16591WAT     H250016   6.915   4.358   1.304
16592WAT      O50017   7.034   9.135   2.121
16592WAT     H150018   7.087   9.219   2.131
16592WAT     H250019   6.971   9.145   2.044
16593WAT      O50020   2.756   5.365   9.510
16593WAT     H150021   2.849   5.381   9.542
16593WAT     H250022   2.711   5.452   9.493
16594WAT      O50023   5.872   3.702   2.935
16594WAT     H150024   5.916   3.727   3.022
16594WAT     H250025   5.843   3.786   2.888
16595WAT      O50026   5.564   1.319   7.897
16595WAT     H150027   5.617   1.291   7.816
16595WAT     H250028   5.511   1.401   7.875
16596WAT      O50029   1.869   2.088   3.412
16596WAT     H150030   1.831   2.152   3.345
16596WAT     H250031   1.938   2.135   3.467
16597WAT      O50032   7.742   1.183   1.640
16597WAT     H150033   7.792   1.159   1.557
16597WAT     H250034   7.807   1.206   1.712
16598WAT      O50035   4.019   3.136   8.431
16598WAT     H150036   3.995   3.136   8.528
16598WAT     H250037   4.006   3.044   8.393
16599WAT      O50038   8.422   3.529   9.202
16599WAT     H150039   8.333   3.507   9.243
16599WAT     H250040   8.487   3.456   9.222
16600WAT      O50041   6.462   0.750   2.847
16600WAT     H150042   6.443   0.696   2.765
16600WAT     H250043   6.552   0.793   2.839
16601WAT      O50044   9.199   1.673   0.319
16601WAT     H150045   9.173   1.581   0.349
16601WAT     H250046   9.196   1.736   0.397
16602WAT      O50047   2.303   5.955   0.829
16602WAT     H150048   2.308   5.877   0.767
16602WAT     H250049   2.394   5.973   0.866
16603WAT      O50050   5.663   6.081   9.525
16603WAT     H150051   5.646   6.002   9.584
16603WAT     H250052   5.746   6.129   9.556
16604WAT      O50053   1.559   7.386   4.631
16604WAT     H150054   1.624   7.450   4.591
16604WAT     H250055   1.500   7.350   4.559
16605WAT      O50056   4.592   5.829   3.327
16605WAT     H150057   4.603   5.860   3.233
16605WAT     H250058   4.495   5.834   3.353
16606WAT      O50059   6.101   1.870   3.177
16606WAT     H150060   6.121   1.966   3.195
16606WAT     H250061   6.185   1.816   3.188
16607WAT      O50062   6.856   7.854   3.134
16607WAT     H150063   6.891   7.915   3.063
16607WAT     H250064   6.907   7.768   3.132
16608WAT      O50065   5.228   1.301   9.111
16608WAT     H150066   5.263   1.365   9.042
16608WAT     H250067   5.131   1.320   9.128
16609WAT      O50068   9.795   8.754   3.471
16609WAT     H150069   9.830   8.752   3.564
16609WAT     H250070   9.695   8.749   3.471
16610WAT      O50071   6.696   3.243   5.027
16610WAT     H150072   6.662   3.306   4.958
16610WAT     H250073   6.699   3.290   5.116
16611WAT      O50074   8.887   5.330   6.668
16611WAT     H150075   8.809   5.388   6.693
16611WAT     H250076   8.882   5.244   6.718
16612WAT      O50077   2.174   5.537   1.187
16612WAT     H150078   2.186   5.600   1.264
16612WAT     H250079   2.077   5.511   1.180
16613WAT      O50080   9.879   6.773   0.719
16613WAT     H150081   9.830   6.695   0.756
16613WAT     H250082   9.930   6.819   0.792
16614WAT      O50083   5.783   1.257   7.144
16614WAT     H150084   5.866   1.265   7.200
16614WAT     H250085   5.748   1.164   7.149
16615WAT      O50086   2.058   3.966   2.604
16615WAT     H150087   2.008   4.047   2.636
16615WAT     H250088   2.057   3.964   2.504
16616WAT      O50089   0.040   8.082   9.889
16616WAT     H150090   0.007   8.165   9.933
16616WAT     H250091   0.093   8.106   9.807
16617WAT      O50092   7.389   8.035   6.318
16617WAT     H150093   7.335   8.053   6.236
16617WAT     H250094   7.381   7.938   6.342
16618WAT      O50095   1.079   9.581   7.123
16618WAT     H150096   1.158   9.621   7.076
16618WAT     H250097   1.110   9.537   7.208
16619WAT      O50098   7.022   9.675   7.052
16619WAT     H150099   7.023   9.677   7.152
16619WAT     H250100   6.942   9.726   7.018
16620WAT      O50101   2.187   1.492   7.021
16620WAT     H150102   2.236   1.457   6.941
16620WAT     H250103   2.096   1.521   6.992
16621WAT      O50104   3.855   5.497   3.884
16621WAT     H150105   3.952   5.505   3.860
16621WAT     H250106   3.846   5.454   3.973
16622WAT      O50107   9.439   0.771   2.995
16622WAT     H150108   9.471   0.860   3.027
16622WAT     H250109   9.505   0.733   2.931
16623WAT      O50110   8.471   5.692   2.751
16623WAT     H150111   8.538   5.650   2.812
16623WAT     H250112   8.401   5.625   2.726
16624WAT      O50113   3.021   7.677   9.526
16624WAT     H150114   3.011   7.594   9.472
16624WAT     H250115   2.943   7.687   9.587
16625WAT      O50116   8.829   8.544   3.999
16625WAT     H150117   8.843   8.553   3.900
16625WAT     H250118   8.893   8.477   4.036
16626WAT      O50119   0.187   4.628   4.509
16626WAT     H150120   0.112   4.578   4.467
16626WAT     H250121   0.163   4.725   4.516
16627WAT      O50122   8.333   0.545   4.781
16627WAT     H150123   8.256   0.597   4.818
16627WAT     H250124   8.352   0.573   4.687
16628WAT      O50125   9.445   1.012   8.638
16628WAT     H150126   9.482   1.062   8.716
16628WAT     H250127   9.407   1.078   8.572
16629WAT      O50128   8.996   2.797   9.166
16629WAT     H150129   9.024   2.850   9.246
16629WAT     H250130   8.921   2.843   9.120
16630WAT      O50131   1.854   8.064   8.183
16630WAT     H150132   1.861   8.163   8.195
16630WAT     H250133   1.778   8.043   8.122
16631WAT      O50134   7.240   6.155   2.317
16631WAT     H150135   7.236   6.205   2.230
16631WAT     H250136   7.336   6.138   2.341
16632WAT      O50137   1.822   4.455   3.407
16632WAT     H150138   1.733   4.419   3.381
16632WAT     H250139   1.843   4.536   3.351
16633WAT      O50140   4.136   3.104   4.317
16633WAT     H150141   4.216   3.159   4.296
16633WAT     H250142   4.103   3.126   4.409
16634WAT      O50143   5.331   5.500   6.960
16634WAT     H150144   5.391   5.509   6.881
16634WAT     H250145   5.239   5.476   6.929
16635WAT      O50146   4.758   5.054   8.046
16635WAT     H150147   4.765   4.982   8.115
16635WAT     H250148   4.749   5.012   7.955
16636WAT      O50149   2.550   1.923   0.239
16636WAT     H150150   2.531   1.963   0.329
16636WAT     H250151   2.480   1.854   0.218
16637WAT      O50152   1.882   9.671   5.875
16637WAT     H150153   1.788   9.699   5.854
16637WAT     H250154   1.888   9.571   5.876
16638WAT      O50155   1.883   6.285   8.429
16638WAT     H150156   1.815   6.247   8.365
16638WAT     H250157   1.894   6.223   8.507
16639WAT      O50158   7.197   5.271   9.610
16639WAT     H150159   7.168   5.191   9.558
16639WAT     H250160   7.276   5.247   9.666
16640WAT      O50161   8.909   7.282   7.619
16640WAT     H150162   8.830   7.288   7.558
16640WAT     H250163   8.990   7.256   7.567
16641WAT      O50164   0.069   7.708   7.554
16641WAT     H150165  -0.024   7.673   7.539
16641WAT     H250166   0.073   7.753   7.644
16642WAT      O50167   5.380   3.742   0.982
16642WAT     H150168   5.331   3.821   0.946
16642WAT     H250169   5.364   3.735   1.081
16643WAT      O50170   3.808   5.189   7.386
16643WAT     H150171   3.900   5.209   7.418
16643WAT     H250172   3.811   5.121   7.313
16644WAT      O50173   5.301   8.851   4.085
16644WAT     H150174   5.306   8.751   4.072
16644WAT     H250175   5.207   8.876   4.106
16645WAT      O50176   9.332   9.277   6.163
16645WAT     H150177   9.381   9.344   6.219
16645WAT     H250178   9.386   9.192   6.158
16646WAT      O50179   3.586   4.554   9.200
16646WAT     H150180   3.520   4.503   9.255
16646WAT     H250181   3.583   4.521   9.106
16647WAT      O50182   8.374   9.722   8.580
16647WAT     H150183   8.358   9.816   8.608
16647WAT     H250184   8.464   9.715   8.537
16648WAT      O50185   0.266   3.861   9.652
16648WAT     H150186   0.225   3.934   9.598
16648WAT     H250187   0.363   3.853   9.630
16649WAT      O50188   6.092   0.263   1.534
16649WAT     H150189   6.053   0.187   1.483
16649WAT     H250190   6.114   0.337   1.472
16650WAT      O50191   3.130   6.512   8.833
16650WAT     H150192   3.071   6.435   8.858
16650WAT     H250193   3.078   6.578   8.779
16651WAT      O50194   2.272   5.516   6.030
16651WAT     H150195   2.219   5.577   5.971
16651WAT     H250196   2.364   5.553   6.042
16652WAT      O50197   4.353   3.098   3.603
16652WAT     H150198   4.283   3.090   3.532
16652WAT     H250199   4.310   3.126   3.689
16653WAT      O50200   8.704   0.825   2.081
16653WAT     H150201   8.623   0.804   2.135
16653WAT     H250202   8.680   0.829   1.984
16654WAT      O50203   2.029   9.467   0.095
16654WAT     H150204   2.017   9.527   0.016
16654WAT     H250205   2.017   9.520   0.179
16655WAT      O50206   2.396   1.560   4.484
16655WAT     H150207   2.475   1.607   4.444
16655WAT     H250208   2.356   1.617   4.556
16656WAT      O50209   9.667   3.538   3.073
16656WAT     H150210   9.761   3.523   3.042
16656WAT     H250211   9.604   3.522   2.998
16657WAT      O50212   2.596   7.749   5.549
16657WAT     H150213   2.627   7.714   5.638
16657WAT     H250214   2.649   7.706   5.476
16658WAT      O50215   6.271   6.434   3.372
16658WAT     H150216   6.290   6.342   3.338
16658WAT     H250217   6.180   6.436   3.413
16659WAT      O50218   0.551   8.984   4.973
16659WAT     H150219   0.452   8.969   4.965
16659WAT     H250220   0.569   9.067   5.025
16660WAT      O50221   7.731   4.815   5.965
16660WAT     H150222   7.666   4.855   5.902
16660WAT     H250223   7.812   4.873   5.972
16661WAT      O50224   1.518   5.711   8.812
16661WAT     H150225   1.594   5.656   8.847
16661WAT     H250226   1.494   5.782   8.878
16662WAT      O50227   6.279   2.138   5.221
16662WAT     H150228   6.296   2.232   5.191
16662WAT     H250229   6.192   2.107   5.183
16663WAT      O50230   5.654   5.707   2.089
16663WAT     H150231   5.580   5.736   2.028
16663WAT     H250232   5.642   5.611   2.113
16664WAT      O50233   6.492   4.920   3.057
16664WAT     H150234   6.579   4.878   3.034
16664WAT     H250235   6.455   4.967   2.976
16665WAT      O50236   6.135   7.521   2.506
16665WAT     H150237   6.043   7.496   2.475
16665WAT     H250238   6.174   7.445   2.559
16666WAT      O50239   3.403   8.883   6.864
16666WAT     H150240   3.456   8.853   6.943
16666WAT     H250241   3.459   8.941   6.805
16667WAT      O50242   4.867   9.158   7.328
16667WAT     H150243   4.869   9.246   7.281
16667WAT     H250244   4.858   9.084   7.262
16668WAT      O50245   0.608   0.672   7.033
16668WAT     H150246   0.694   0.703   6.993
16668WAT     H250247   0.557   0.620   6.964
16669WAT      O50248   2.641   1.945   6.779
16669WAT     H150249   2.616   2.028   6.728
16669WAT     H250250   2.629   1.865   6.721
16670WAT      O50251   9.198   5.047   7.855
16670WAT     H150252   9.293   5.016   7.863
16670WAT     H250253   9.195   5.133   7.803
16671WAT      O50254   6.789   1.122   3.408
16671WAT     H150255   6.817   1.195   3.346
16671WAT     H250256   6.724   1.159   3.475
16672WAT      O50257   0.250   7.614   1.222
16672WAT     H150258   0.335   7.665   1.211
16672WAT     H250259   0.186   7.666   1.278
16673WAT      O50260   5.572   0.548   0.434
16673WAT     H150261   5.644   0.605   0.474
16673WAT     H250262   5.483   0.582   0.464
16674WAT      O50263   0.047   7.082   4.156
16674WAT     H150264   0.137   7.120   4.179
16674WAT     H250265  -0.016   7.156   4.137
16675WAT      O50266   8.964   6.132   3.124
16675WAT     H150267   8.938   6.171   3.212
16675WAT     H250268   9.001   6.040   3.138
16676WAT      O50269   3.490   7.760   5.041
16676WAT     H150270   3.410   7.778   4.984
16676WAT     H250271   3.527   7.847   5.075
16677WAT      O50272   7.038   4.151   5.409
16677WAT     H150273   7.090   4.204   5.342
16677WAT     H250274   7.030   4.056   5.377
16678WAT      O50275   7.977   2.176   8.871
16678WAT     H150276   8.022   2.088   8.863
16678WAT     H250277   8.041   2.244   8.908
16679WAT      O50278   3.634   1.384   6.511
16679WAT     H150279   3.643   1.358   6.608
16679WAT     H250280   3.610   1.303   6.458
16680WAT      O50281   9.342   3.765   0.033
16680WAT     H150282   9.284   3.807   0.103
16680WAT     H250283   9.291   3.691  -0.011
16681WAT      O50284   6.344   0.902   8.281
16681WAT     H150285   6.408   0.828   8.259
16681WAT     H250286   6.307   0.940   8.196
16682WAT      O50287   3.682   4.795   1.028
16682WAT     H150288   3.667   4.892   1.049
16682WAT     H250289   3.593   4.749   1.019
16683WAT      O50290   4.800   5.249   2.348
16683WAT     H150291   4.824   5.154   2.368
16683WAT     H250292   4.734   5.281   2.416
16684WAT      O50293   9.109   9.801   0.080
16684WAT     H150294   9.163   9.717   0.088
16684WAT     H250295   9.013   9.777   0.067
16685WAT      O50296   6.572   3.406   3.150
16685WAT     H150297   6.523   3.392   3.064
16685WAT     H250298   6.546   3.495   3.189
16686WAT      O50299   5.029   7.655   8.347
16686WAT     H150300   4.934   7.653   8.376
16686WAT     H250301   5.079   7.725   8.399
16687WAT      O50302   7.792   7.921   0.696
16687WAT     H150303   7.728   7.851   0.728
16687WAT     H250304   7.802   7.991   0.767
16688WAT      O50305   0.947   3.202   1.557
16688WAT     H150306   0.857   3.229   1.522
16688WAT     H250307   0.966   3.107   1.531
16689WAT      O50308   6.064   8.542   5.950
16689WAT     H150309   6.011   8.579   6.026
16689WAT     H250310   6.075   8.443   5.963
16690WAT      O50311   2.538   7.121   0.941
16690WAT     H150312   2.603   7.166   1.001
16690WAT     H250313   2.478   7.061   0.994
16691WAT      O50314   8.768   9.582   3.245
16691WAT     H150315   8.726   9.494   3.225
16691WAT     H250316   8.840   9.601   3.178
16692WAT      O50317   7.916   6.963   7.722
16692WAT     H150318   7.981   7.014   7.666
16692WAT     H250319   7.831   7.014   7.729
16693WAT      O50320   3.087   2.934   8.418
16693WAT     H150321   3.049   2.878   8.492
16693WAT     H250322   3.180   2.962   8.441
16694WAT      O50323   9.228   9.708   8.231
16694WAT     H150324   9.200   9.787   8.286
16694WAT     H250325   9.321   9.681   8.255
16695WAT      O50326   2.860   8.036   4.051
16695WAT     H150327   2.908   8.115   4.090
16695WAT     H250328   2.923   7.985   3.992
16696WAT      O50329   8.726   4.866   5.844
16696WAT     H150330   8.721   4.862   5.744
16696WAT     H250331   8.646   4.915   5.880
16697WAT      O50332   7.712   2.200   4.167
16697WAT     H150333   7.776   2.123   4.163
16697WAT     H250334   7.734   2.258   4.245
16698WAT      O50335   2.896   9.715   2.720
16698WAT     H150336   2.831   9.787   2.745
16698WAT     H250337   2.890   9.641   2.787
16699WAT      O50338   1.768   4.435   1.635
16699WAT     H150339   1.671   4.457   1.620
16699WAT     H250340   1.822   4.469   1.559
16700WAT      O50341   3.211   4.710   0.635
16700WAT     H150342   3.141   4.720   0.706
16700WAT     H250343   3.258   4.797   0.622
16701WAT      O50344   6.939   6.746   0.546
16701WAT     H150345   6.876   6.818   0.518
16701WAT     H250346   7.028   6.786   0.568
16702WAT      O50347   9.205   6.226   1.806
16702WAT     H150348   9.290   6.207   1.755
16702WAT     H250349   9.180   6.146   1.859
16703WAT      O50350   0.530   4.709   9.825
16703WAT     H150351   0.502   4.797   9.863
16703WAT     H250352   0.559   4.648   9.898
16704WAT      O50353   5.501   6.833   5.720
16704WAT     H150354   5.491   6.747   5.670
16704WAT     H250355   5.470   6.909   5.663
16705WAT      O50356   6.267   6.436   8.908
16705WAT     H150357   6.355   6.391   8.890
16705WAT     H250358   6.244   6.495   8.831
16706WAT      O50359   7.008   6.141   8.663
16706WAT     H150360   7.075   6.068   8.649
16706WAT     H250361   7.057   6.225   8.686
16707WAT      O50362   4.712   1.711   7.667
16707WAT     H150363   4.703   1.765   7.751
16707WAT     H250364   4.622   1.686   7.634
16708WAT      O50365   0.992   9.292   6.443
16708WAT     H150366   0.995   9.362   6.371
16708WAT     H250367   0.905   9.298   6.492
16709WAT      O50368   8.682   7.590   5.795
16709WAT     H150369   8.701   7.563   5.890
16709WAT     H250370   8.736   7.532   5.733
16710WAT      O50371   8.261   7.294   4.001
16710WAT     H150372   8.195   7.240   3.949
16710WAT     H250373   8.354   7.271   3.972
16711WAT      O50374   6.708   3.989   9.569
16711WAT     H150375   6.769   3.935   9.511
16711WAT     H250376   6.712   4.085   9.541
16712WAT      O50377   3.928   2.396   8.144
16712WAT     H150378   3.961   2.375   8.053
16712WAT     H250379   3.891   2.489   8.146
16713WAT      O50380   8.812   0.041   2.971
16713WAT     H150381   8.851   0.043   2.879
16713WAT     H250382   8.716   0.068   2.967
16714WAT      O50383   9.187   4.647   3.122
16714WAT     H150384   9.090   4.651   3.146
16714WAT     H250385   9.214   4.732   3.077
16715WAT      O50386   8.602   3.869   8.642
16715WAT     H150387   8.701   3.879   8.631
16715WAT     H250388   8.578   3.772   8.632
16716WAT      O50389   4.839   8.835   3.039
16716WAT     H150390   4.811   8.795   3.127
16716WAT     H250391   4.773   8.809   2.969
16717WAT      O50392   3.962   0.428   6.868
16717WAT     H150393   3.933   0.450   6.961
16717WAT     H250394   4.048   0.475   6.848
16718WAT      O50395   3.051   3.041   0.390
16718WAT     H150396   3.050   3.064   0.293
16718WAT     H250397   3.002   2.955   0.405
16719WAT      O50398   2.318   5.763   4.014
16719WAT     H150399   2.341   5.685   3.955
16719WAT     H250400   2.383   5.837   3.999
16720WAT      O50401   3.741   8.219   7.242
16720WAT     H150402   3.728   8.126   7.207
16720WAT     H250403   3.664   8.243   7.302
16721WAT      O50404   5.425   4.946   1.318
16721WAT     H150405   5.407   4.882   1.393
16721WAT     H250406   5.523   4.949   1.300
16722WAT      O50407   4.326   5.655   3.135
16722WAT     H150408   4.305   5.723   3.205
16722WAT     H250409   4.403   5.599   3.164
16723WAT      O50410   0.927   5.284   0.087
16723WAT     H150411   0.999   5.247   0.028
16723WAT     H250412   0.876   5.209   0.129
16724WAT      O50413   9.811   6.667   3.819
16724WAT     H150414   9.769   6.669   3.728
16724WAT     H250415   9.872   6.746   3.829
16725WAT      O50416   9.032   8.230   3.118
16725WAT     H150417   9.014   8.253   3.022
16725WAT     H250418   9.131   8.226   3.133
16726WAT      O50419   2.895   7.434   1.677
16726WAT     H150420   2.902   7.409   1.773
16726WAT     H250421   2.828   7.507   1.666
16727WAT      O50422   2.659   4.737   0.827
16727WAT     H150423   2.624   4.765   0.917
16727WAT     H250424   2.703   4.647   0.835
16728WAT      O50425   4.295   7.615   8.606
16728WAT     H150426   4.219   7.557   8.577
16728WAT     H250427   4.288   7.704   8.560
16729WAT      O50428   6.685   5.552   4.349
16729WAT     H150429   6.700   5.510   4.260
16729WAT     H250430   6.605   5.611   4.345
16730WAT      O50431   8.070   0.958   1.478
16730WAT     H150432   8.029   1.043   1.445
16730WAT     H250433   8.023   0.928   1.561
16731WAT      O50434   3.393   7.256   3.392
16731WAT     H150435   3.447   7.172   3.384
16731WAT     H250436   3.408   7.313   3.311
16732WAT      O50437   1.408   3.143   4.679
16732WAT     H150438   1.470   3.221   4.668
16732WAT     H250439   1.432   3.072   4.612
16733WAT      O50440   3.728   0.676   9.261
16733WAT     H150441   3.777   0.599   9.220
16733WAT     H250442   3.794   0.743   9.297
16734WAT      O50443   3.331   3.095   5.990
16734WAT     H150444   3.259   3.058   6.048
16734WAT     H250445   3.386   3.020   5.953
16735WAT      O50446   2.877   2.255   3.254
16735WAT     H150447   2.849   2.339   3.301
16735WAT     H250448   2.904   2.186   3.322
16736WAT      O50449   5.542   5.255   6.608
16736WAT     H150450   5.562   5.197   6.530
16736WAT     H250451   5.612   5.243   6.678
16737WAT      O50452   6.458   0.198   3.938
16737WAT     H150453   6.470   0.213   3.840
16737WAT     H250454   6.416   0.278   3.980
16738WAT      O50455   7.812   8.573   5.825
16738WAT     H150456   7.863   8.593   5.742
16738WAT     H250457   7.762   8.654   5.855
16739WAT      O50458   3.251   8.691   0.347
16739WAT     H150459   3.219   8.605   0.307
16739WAT     H250460   3.175   8.756   0.350
16740WAT      O50461   1.613   1.402   9.627
16740WAT     H150462   1.584   1.457   9.548
16740WAT     H250463   1.602   1.456   9.711
16741WAT      O50464   2.947   3.970   8.188
16741WAT     H150465   3.012   3.894   8.197
16741WAT     H250466   2.985   4.052   8.230
16742WAT      O50467   2.325   5.337   3.721
16742WAT     H150468   2.245   5.346   3.662
16742WAT     H250469   2.346   5.240   3.735
16743WAT      O50470   4.765   1.582   2.638
16743WAT     H150471   4.675   1.541   2.621
16743WAT     H250472   4.808   1.535   2.715
16744WAT      O50473   5.510   4.503   7.002
16744WAT     H150474   5.516   4.476   7.098
16744WAT     H250475   5.422   4.548   6.986
16745WAT      O50476   6.935   1.327   0.809
16745WAT     H150477   6.989   1.380   0.744
16745WAT     H250478   6.968   1.345   0.902
16746WAT      O50479   8.082   2.823   4.884
16746WAT     H150480   8.079   2.880   4.802
16746WAT     H250481   8.136   2.870   4.955
16747WAT      O50482   7.901   4.979   7.020
16747WAT     H150483   7.979   4.916   7.015
16747WAT     H250484   7.856   4.967   7.108
16748WAT      O50485   2.837   2.912   5.044
16748WAT     H150486   2.745   2.872   5.046
16748WAT     H250487   2.871   2.919   5.138
16749WAT      O50488   2.928   5.870   9.805
16749WAT     H150489   2.943   5.962   9.768
16749WAT     H250490   2.862   5.874   9.879
16750WAT      O50491   7.391   5.727   2.750
16750WAT     H150492   7.440   5.804   2.710
16750WAT     H250493   7.388   5.651   2.685
16751WAT      O50494   1.627   6.065   6.470
16751WAT     H150495   1.647   5.980   6.421
16751WAT     H250496   1.536   6.060   6.510
16752WAT      O50497   0.414   5.885   9.097
16752WAT     H150498   0.357   5.940   9.036
16752WAT     H250499   0.417   5.791   9.064
16753WAT      O50500   9.023   6.925   3.793
16753WAT     H150501   8.926   6.951   3.793
16753WAT     H250502   9.035   6.840   3.741
16754WAT      O50503   7.510   6.924   5.521
16754WAT     H150504   7.550   6.832   5.523
16754WAT     H250505   7.444   6.934   5.596
16755WAT      O50506   6.568   3.315   1.486
16755WAT     H150507   6.579   3.372   1.405
16755WAT     H250508   6.496   3.352   1.544
16756WAT      O50509   5.910   8.985   6.856
16756WAT     H150510   5.926   9.024   6.947
16756WAT     H250511   5.994   8.941   6.824
16757WAT      O50512   2.905   8.832   8.830
16757WAT     H150513   2.939   8.877   8.748
16757WAT     H250514   2.951   8.870   8.910
16758WAT      O50515   0.720   5.534   4.854
16758WAT     H150516   0.701   5.550   4.757
16758WAT     H250517   0.808   5.489   4.864
16759WAT      O50518   9.741   7.050   6.638
16759WAT     H150519   9.737   7.061   6.738
16759WAT     H250520   9.651   7.022   6.605
16760WAT      O50521   5.144   0.386   6.105
16760WAT     H150522   5.086   0.361   6.027
16760WAT     H250523   5.167   0.483   6.099
16761WAT      O50524   6.553   8.527   3.637
16761WAT     H150525   6.652   8.519   3.647
16761WAT     H250526   6.511   8.438   3.651
16762WAT      O50527   2.515   8.424   9.533
16762WAT     H150528   2.421   8.448   9.512
16762WAT     H250529   2.577   8.474   9.472
16763WAT      O50530   4.468   7.738   6.137
16763WAT     H150531   4.521   7.729   6.221
16763WAT     H250532   4.404   7.815   6.146
16764WAT      O50533   0.573   9.338   0.990
16764WAT     H150534   0.551   9.271   0.920
16764WAT     H250535   0.541   9.307   1.079
16765WAT      O50536   0.760   4.156   8.530
16765WAT     H150537   0.754   4.256   8.534
16765WAT     H250538   0.681   4.116   8.575
16766WAT      O50539   1.609   3.735   7.441
16766WAT     H150540   1.586   3.752   7.536
16766WAT     H250541   1.708   3.745   7.428
16767WAT      O50542   1.521   1.358   8.002
16767WAT     H150543   1.428   1.358   7.963
16767WAT     H250544   1.577   1.290   7.954
16768WAT      O50545   2.748   6.314   8.810
16768WAT     H150546   2.745   6.344   8.906
16768WAT     H250547   2.843   6.308   8.780
16769WAT      O50548   7.788   8.420   7.637
16769WAT     H150549   7.750   8.379   7.720
16769WAT     H250550   7.888   8.428   7.647
16770WAT      O50551   1.006   5.881   1.311
16770WAT     H150552   0.914   5.888   1.350
16770WAT     H250553   1.061   5.820   1.368
16771WAT      O50554   6.079   5.202   5.776
16771WAT     H150555   6.089   5.128   5.709
16771WAT     H250556   6.165   5.252   5.783
16772WAT      O50557   0.240   7.094   5.038
16772WAT     H150558   0.169   7.165   5.043
16772WAT     H250559   0.273   7.087   4.944
16773WAT      O50560   8.833   0.941   4.282
16773WAT     H150561   8.787   0.925   4.194
16773WAT     H250562   8.900   0.869   4.298
16774WAT      O50563   3.156   5.854   2.254
16774WAT     H150564   3.241   5.849   2.306
16774WAT     H250565   3.079   5.870   2.316
16775WAT      O50566   0.022   6.935   0.939
16775WAT     H150567   0.085   7.012   0.951
16775WAT     H250568  -0.070   6.970   0.924
16776WAT      O50569   5.045   7.348   3.841
16776WAT     H150570   5.025   7.280   3.770
16776WAT     H250571   5.136   7.330   3.878
16777WAT      O50572   8.931   0.355   8.302
16777WAT     H150573   9.006   0.339   8.238
16777WAT     H250574   8.957   0.321   8.393
16778WAT      O50575   6.451   1.328   5.684
16778WAT     H150576   6.351   1.321   5.678
16778WAT     H250577   6.476   1.372   5.771
16779WAT      O50578   0.941   7.693   8.854
16779WAT     H150579   1.033   7.703   8.815
16779WAT     H250580   0.877   7.668   8.782
16780WAT      O50581   9.397   4.397   4.113
16780WAT     H150582   9.462   4.346   4.056
16780WAT     H250583   9.306   4.358   4.102
16781WAT      O50584   3.607   3.603   4.395
16781WAT     H150585   3.601   3.507   4.421
16781WAT     H250586   3.548   3.658   4.454
16782WAT      O50587   8.774   2.072   6.869
16782WAT     H150588   8.867   2.063   6.834
16782WAT     H250589   8.722   1.988   6.849
16783WAT      O50590   1.067   5.119   8.142
16783WAT     H150591   1.083   5.191   8.209
16783WAT     H250592   1.026   5.040   8.188
16784WAT      O50593   9.465   5.625   0.468
16784WAT     H150594   9.522   5.542   0.468
16784WAT     H250595   9.379   5.606   0.422
16785WAT      O50596   1.393   4.406   0.619
16785WAT     H150597   1.441   4.439   0.700
16785WAT     H250598   1.302   4.374   0.645
16786WAT      O50599   9.046   8.016   6.985
16786WAT     H150600   9.029   8.021   6.887
16786WAT     H250601   9.144   8.005   7.002
16787WAT      O50602   1.932  -0.003   8.041
16787WAT     H150603   1.883   0.085   8.038
16787WAT     H250604   1.958  -0.030   7.949
16788WAT      O50605   0.624   5.929   7.777
16788WAT     H150606   0.557   5.999   7.801
16788WAT     H250607   0.708   5.972   7.747
16789WAT      O50608   3.381   5.829   2.406
16789WAT     H150609   3.439   5.899   2.449
16789WAT     H250610   3.440   5.758   2.367
16790WAT      O50611   7.684   3.979   5.302
16790WAT     H150612   7.656   3.905   5.363
16790WAT     H250613   7.755   4.034   5.346
16791WAT      O50614   5.938   2.888   9.013
16791WAT     H150615   5.945   2.795   8.976
16791WAT     H250616   6.029   2.919   9.040
16792WAT      O50617   0.613   2.087   4.349
16792WAT     H150618   0.540   2.127   4.404
16792WAT     H250619   0.616   1.989   4.364
16793WAT      O50620   8.321   3.886   6.875
16793WAT     H150621   8.396   3.873   6.810
16793WAT     H250622   8.234   3.861   6.832
16794WAT      O50623   5.662   6.678   6.289
16794WAT     H150624   5.742   6.678   6.229
16794WAT     H250625   5.623   6.770   6.294
16795WAT      O50626   5.029   3.471   6.963
16795WAT     H150627   5.091   3.395   6.944
16795WAT     H250628   5.076   3.558   6.945
16796WAT      O50629   1.733   5.548   2.377
16796WAT     H150630   1.662   5.550   2.447
16796WAT     H250631   1.722   5.626   2.316
16797WAT      O50632   0.742   2.963   2.484
16797WAT     H150633   0.794   3.043   2.455
16797WAT     H250634   0.721   2.970   2.582
16798WAT      O50635   6.978   1.240   7.664
16798WAT     H150636   7.009   1.335   7.669
16798WAT     H250637   6.881   1.235   7.690
16799WAT      O50638   5.005   8.188   0.804
16799WAT     H150639   4.935   8.193   0.875
16799WAT     H250640   4.987   8.258   0.734
16800WAT      O50641   4.211   3.507   0.060
16800WAT     H150642   4.235   3.486  -0.035
16800WAT     H250643   4.196   3.422   0.110
16801WAT      O50644   9.222   5.662   6.005
16801WAT     H150645   9.200   5.758   5.991
16801WAT     H250646   9.237   5.618   5.916
16802WAT      O50647   6.484   3.535   6.447
16802WAT     H150648   6.400   3.481   6.438
16802WAT     H250649   6.563   3.476   6.431
16803WAT      O50650   1.392   1.042   7.709
16803WAT     H150651   1.417   1.111   7.641
16803WAT     H250652   1.474   1.008   7.754
16804WAT      O50653   4.765   6.123   0.997
16804WAT     H150654   4.844   6.184   1.003
16804WAT     H250655   4.719   6.136   0.910
16805WAT      O50656   7.468   2.881   5.559
16805WAT     H150657   7.433   2.919   5.644
16805WAT     H250658   7.564   2.857   5.570
16806WAT      O50659   3.706   6.365   0.145
16806WAT     H150660   3.802   6.359   0.172
16806WAT     H250661   3.674   6.459   0.157
16807WAT      O50662   3.559   1.271   5.026
16807WAT     H150663   3.610   1.337   4.972
16807WAT     H250664   3.585   1.279   5.123
16808WAT      O50665   0.420   2.403   3.298
16808WAT     H150666   0.396   2.386   3.394
16808WAT     H250667   0.363   2.477   3.262
16809WAT      O50668   1.231   6.770   0.330
16809WAT     H150669   1.309   6.819   0.290
16809WAT     H250670   1.151   6.784   0.271
16810WAT      O50671   2.140   4.558   5.747
16810WAT     H150672   2.179   4.475   5.787
16810WAT     H250673   2.046   4.541   5.717
16811WAT      O50674   6.321   2.770   2.518
16811WAT     H150675   6.236   2.798   2.562
16811WAT     H250676   6.302   2.746   2.422
16812WAT      O50677   4.612   0.918   1.153
16812WAT     H150678   4.700   0.962   1.167
16812WAT     H250679   4.572   0.949   1.067
16813WAT      O50680   4.765   6.506   8.594
16813WAT     H150681   4.816   6.541   8.516
16813WAT     H250682   4.747   6.581   8.658
16814WAT      O50683   9.836   2.481   0.034
16814WAT     H150684   9.821   2.382   0.042
16814WAT     H250685   9.911   2.497  -0.030
16815WAT      O50686   8.845   9.466   0.182
16815WAT     H150687   8.821   9.398   0.112
16815WAT     H250688   8.899   9.423   0.254
16816WAT      O50689   9.047   0.187   7.723
16816WAT     H150690   8.998   0.132   7.791
16816WAT     H250691   9.005   0.277   7.714
16817WAT      O50692   4.632   5.702   7.570
16817WAT     H150693   4.586   5.674   7.655
16817WAT     H250694   4.662   5.621   7.520
16818WAT      O50695   7.307   1.338   3.842
16818WAT     H150696   7.377   1.318   3.911
16818WAT     H250697   7.229   1.277   3.855
16819WAT      O50698   5.225   9.135   9.806
16819WAT     H150699   5.174   9.094   9.730
16819WAT     H250700   5.302   9.187   9.770
16820WAT      O50701   0.914   9.458   1.855
16820WAT     H150702   0.987   9.431   1.793
16820WAT     H250703   0.826   9.459   1.806
16821WAT      O50704   9.248   4.656   6.144
16821WAT     H150705   9.268   4.674   6.048
16821WAT     H250706   9.308   4.583   6.178
16822WAT      O50707   1.808   5.450   1.806
16822WAT     H150708   1.905   5.474   1.801
16822WAT     H250709   1.776   5.459   1.900
16823WAT      O50710   5.748   6.401   2.899
16823WAT     H150711   5.817   6.383   2.969
16823WAT     H250712   5.761   6.337   2.823
16824WAT      O50713   9.883   1.449   8.438
16824WAT     H150714   9.963   1.508   8.447
16824WAT     H250715   9.833   1.448   8.524
16825WAT      O50716   7.874   2.211   7.830
16825WAT     H150717   7.839   2.119   7.816
16825WAT     H250718   7.938   2.234   7.756
16826WAT      O50719   8.088   7.280   2.941
16826WAT     H150720   8.134   7.335   3.011
16826WAT     H250721   8.157   7.233   2.886
16827WAT      O50722   7.093   6.778   6.388
16827WAT     H150723   7.153   6.738   6.458
16827WAT     H250724   7.080   6.875   6.407
16828WAT      O50725   8.729   5.050   0.031
16828WAT     H150726   8.715   4.957  -0.003
16828WAT     H250727   8.664   5.112  -0.013
16829WAT      O50728   2.125   2.799   7.951
16829WAT     H150729   2.124   2.777   7.853
16829WAT     H250730   2.123   2.898   7.963
16830WAT      O50731   1.194   6.682   9.033
16830WAT     H150732   1.190   6.751   9.105
16830WAT     H250733   1.106   6.636   9.026
16831WAT      O50734   9.501   8.977   9.466
16831WAT     H150735   9.455   9.037   9.400
16831WAT     H250736   9.482   8.882   9.443
16832WAT      O50737   0.380   0.984   5.471
16832WAT     H150738   0.422   1.060   5.422
16832WAT     H250739   0.313   1.019   5.536
16833WAT      O50740   1.038   0.564   8.554
16833WAT     H150741   0.938   0.566   8.560
16833WAT     H250742   1.071   0.471   8.569
16834WAT      O50743   7.536   5.224   6.100
16834WAT     H150744   7.617   5.195   6.151
16834WAT     H250745   7.462   5.243   6.164
16835WAT      O50746   4.210   5.869   8.693
16835WAT     H150747   4.220   5.777   8.731
16835WAT     H250748   4.167   5.929   8.761
16836WAT      O50749   7.960   3.802   3.679
16836WAT     H150750   8.052   3.812   3.717
16836WAT     H250751   7.934   3.887   3.634
16837WAT      O50752   6.610   9.775   8.545
16837WAT     H150753   6.695   9.811   8.506
16837WAT     H250754   6.545   9.755   8.472
16838WAT      O50755   6.042   5.542   3.356
16838WAT     H150756   5.969   5.481   3.324
16838WAT     H250757   6.011   5.593   3.436
16839WAT      O50758   0.125   2.205   0.193
16839WAT     H150759   0.038   2.190   0.147
16839WAT     H250760   0.117   2.285   0.253
16840WAT      O50761   8.439   9.324   5.388
16840WAT     H150762   8.347   9.285   5.398
16840WAT     H250763   8.503   9.274   5.447
16841WAT      O50764   8.518   4.417   3.725
16841WAT     H150765   8.602   4.399   3.776
16841WAT     H250766   8.459   4.336   3.728
16842WAT      O50767   1.984   1.680   3.916
16842WAT     H150768   1.960   1.721   3.828
16842WAT     H250769   1.956   1.742   3.990
16843WAT      O50770   3.720   0.899   3.217
16843WAT     H150771   3.697   0.975   3.278
16843WAT     H250772   3.814   0.910   3.184
16844WAT      O50773   3.200   5.169   7.835
16844WAT     H150774   3.209   5.266   7.861
16844WAT     H250775   3.151   5.162   7.748
16845WAT      O50776   0.807   1.291   8.366
16845WAT     H150777   0.735   1.343   8.411
16845WAT     H250778   0.825   1.329   8.275
16846WAT      O50779   5.810   3.998   4.590
16846WAT     H150780   5.813   3.923   4.656
16846WAT     H250781   5.877   3.981   4.518
16847WAT      O50782   6.515   6.707   4.244
16847WAT     H150783   6.536   6.609   4.248
16847WAT     H250784   6.600   6.760   4.244
16848WAT      O50785   7.495   6.086   8.308
16848WAT     H150786   7.403   6.074   8.345
16848WAT     H250787   7.495   6.065   8.210
16849WAT      O50788   9.027   4.985   7.211
16849WAT     H150789   8.992   5.005   7.303
16849WAT     H250790   9.013   4.888   7.190
16850WAT      O50791   0.456   0.123   6.213
16850WAT     H150792   0.522   0.174   6.268
16850WAT     H250793   0.489   0.030   6.197
16851WAT      O50794   8.229   6.137   1.400
16851WAT     H150795   8.298   6.087   1.348
16851WAT     H250796   8.166   6.182   1.336
16852WAT      O50797   7.098   8.773   6.864
16852WAT     H150798   7.169   8.703   6.866
16852WAT     H250799   7.064   8.783   6.770
16853WAT      O50800   4.203   4.223   4.845
16853WAT     H150801   4.292   4.237   4.802
16853WAT     H250802   4.205   4.139   4.899
16854WAT      O50803   2.846   6.821   9.395
16854WAT     H150804   2.907   6.742   9.390
16854WAT     H250805   2.756   6.792   9.427
16855WAT      O50806   4.476   0.336   1.857
16855WAT     H150807   4.550   0.342   1.790
16855WAT     H250808   4.511   0.359   1.948
16856WAT      O50809   8.630   1.364   6.396
16856WAT     H150810   8.592   1.389   6.308
16856WAT     H250811   8.600   1.271   6.421
16857WAT      O50812   4.980   6.515   8.889
16857WAT     H150813   4.931   6.602   8.879
16857WAT     H250814   4.917   6.439   8.873
16858WAT      O50815   3.708   5.514   8.362
16858WAT     H150816   3.680   5.455   8.286
16858WAT     H250817   3.650   5.596   8.363
16859WAT      O50818   8.714   6.662   7.109
16859WAT     H150819   8.742   6.745   7.061
16859WAT     H250820   8.659   6.605   7.048
16860WAT      O50821   1.816   0.182   9.847
16860WAT     H150822   1.753   0.238   9.793
16860WAT     H250823   1.777   0.165   9.937
16861WAT      O50824   0.918   6.799   3.781
16861WAT     H150825   0.994   6.826   3.722
16861WAT     H250826   0.901   6.872   3.848
16862WAT      O50827   5.770   3.898   5.001
16862WAT     H150828   5.845   3.937   4.947
16862WAT     H250829   5.753   3.804   4.970
16863WAT      O50830   5.813   2.019   9.574
16863WAT     H150831   5.904   2.037   9.537
16863WAT     H250832   5.810   2.046   9.670
16864WAT      O50833   1.518   5.840   0.908
16864WAT     H150834   1.455   5.775   0.951
16864WAT     H250835   1.597   5.854   0.966
16865WAT      O50836   5.929   1.376   8.462
16865WAT     H150837   5.868   1.416   8.393
16865WAT     H250838   6.016   1.424   8.461
16866WAT      O50839   4.525   1.684   1.737
16866WAT     H150840   4.548   1.711   1.830
16866WAT     H250841   4.520   1.584   1.731
16867WAT      O50842   7.298   6.320   8.449
16867WAT     H150843   7.226   6.370   8.497
16867WAT     H250844   7.258   6.246   8.395
16868WAT      O50845   5.425   8.481   9.416
16868WAT     H150846   5.488   8.404   9.419
16868WAT     H250847   5.463   8.554   9.360
16869WAT      O50848   1.317   0.846   3.761
16869WAT     H150849   1.368   0.776   3.811
16869WAT     H250850   1.362   0.865   3.674
16870WAT      O50851   9.870   8.783   7.697
16870WAT     H150852   9.802   8.838   7.745
16870WAT     H250853   9.960   8.825   7.706
16871WAT      O50854   0.063   1.845   8.496
16871WAT     H150855   0.037   1.791   8.577
16871WAT     H250856   0.047   1.791   8.414
16872WAT      O50857   5.265   7.472   5.187
16872WAT     H150858   5.297   7.388   5.231
16872WAT     H250859   5.318   7.487   5.103
16873WAT      O50860   0.885   7.232   8.407
16873WAT     H150861   0.864   7.163   8.338
16873WAT     H250862   0.859   7.199   8.498
16874WAT      O50863   1.089   6.277   2.283
16874WAT     H150864   1.012   6.229   2.242
16874WAT     H250865   1.072   6.292   2.380
16875WAT      O50866   4.163   9.656   5.999
16875WAT     H150867   4.079   9.619   6.037
16875WAT     H250868   4.237   9.589   6.008
16876WAT      O50869   4.650   7.809   6.367
16876WAT     H150870   4.574   7.864   6.401
16876WAT     H250871   4.643   7.716   6.402
16877WAT      O50872   8.880   7.858   0.673
16877WAT     H150873   8.925   7.920   0.737
16877WAT     H250874   8.813   7.909   0.619
16878WAT      O50875   3.553   3.871   7.958
16878WAT     H150876   3.459   3.841   7.973
16878WAT     H250877   3.586   3.834   7.872
16879WAT      O50878   2.205   5.814   6.652
16879WAT     H150879   2.232   5.905   6.620
16879WAT     H250880   2.108   5.815   6.677
16880WAT      O50881   8.833   6.802   9.622
16880WAT     H150882   8.777   6.722   9.642
16880WAT     H250883   8.802   6.844   9.536
16881WAT      O50884   3.162   7.827   6.595
16881WAT     H150885   3.236   7.761   6.610
16881WAT     H250886   3.182   7.882   6.514
16882WAT      O50887   9.652   2.644   8.490
16882WAT     H150888   9.739   2.610   8.526
16882WAT     H250889   9.613   2.711   8.554
16883WAT      O50890   5.980   8.068   2.370
16883WAT     H150891   6.010   8.007   2.443
16883WAT     H250892   5.983   8.019   2.283
16884WAT      O50893   6.609   6.806   8.826
16884WAT     H150894   6.512   6.804   8.853
16884WAT     H250895   6.647   6.714   8.832
16885WAT      O50896   6.990   3.864   7.160
16885WAT     H150897   7.007   3.798   7.087
16885WAT     H250898   7.006   3.957   7.126
16886WAT      O50899   8.877   5.147   8.524
16886WAT     H150900   8.784   5.168   8.553
16886WAT     H250901   8.927   5.104   8.600
16887WAT      O50902   4.450   4.028   3.895
16887WAT     H150903   4.471   3.977   3.811
16887WAT     H250904   4.365   4.079   3.882
16888WAT      O50905   8.496   4.693   1.176
16888WAT     H150906   8.421   4.646   1.221
16888WAT     H250907   8.460   4.771   1.124
16889WAT      O50908   0.824   6.388   5.204
16889WAT     H150909   0.789   6.408   5.296
16889WAT     H250910   0.907   6.441   5.189
16890WAT      O50911   1.768   4.007   8.787
16890WAT     H150912   1.764   4.065   8.867
16890WAT     H250913   1.861   4.007   8.750
16891WAT      O50914   4.596   9.555   9.770
16891WAT     H150915   4.624   9.531   9.677
16891WAT     H250916   4.536   9.634   9.768
16892WAT      O50917   0.959   2.255   8.980
16892WAT     H150918   0.994   2.339   9.021
16892WAT     H250919   1.015   2.229   8.902
16893WAT      O50920   2.923   5.020   9.276
16893WAT     H150921   2.826   5.029   9.297
16893WAT     H250922   2.946   5.080   9.199
16894WAT      O50923   7.194   7.564   6.184
16894WAT     H150924   7.108   7.602   6.219
16894WAT     H250925   7.212   7.476   6.228
16895WAT      O50926   9.751   7.113   6.896
16895WAT     H150927   9.682   7.177   6.930
16895WAT     H250928   9.763   7.039   6.962
16896WAT      O50929   6.177   6.365   0.224
16896WAT     H150930   6.172   6.396   0.319
16896WAT     H250931   6.270   6.332   0.205
16897WAT      O50932   3.674   2.198   8.208
16897WAT     H150933   3.681   2.294   8.184
16897WAT     H250934   3.680   2.142   8.125
16898WAT      O50935   4.843   1.246   5.791
16898WAT     H150936   4.801   1.297   5.716
16898WAT     H250937   4.931   1.210   5.761
16899WAT      O50938   7.110   5.684   0.477
16899WAT     H150939   7.088   5.663   0.572
16899WAT     H250940   7.208   5.676   0.462
16900WAT      O50941   9.860   5.259   5.091
16900WAT     H150942   9.907   5.310   5.162
16900WAT     H250943   9.910   5.175   5.071
16901WAT      O50944   4.755   6.467   7.158
16901WAT     H150945   4.699   6.463   7.075
16901WAT     H250946   4.777   6.373   7.187
16902WAT      O50947   0.477   6.603   3.333
16902WAT     H150948   0.429   6.549   3.264
16902WAT     H250949   0.573   6.613   3.307
16903WAT      O50950   0.854   7.563   0.948
16903WAT     H150951   0.908   7.638   0.986
16903WAT     H250952   0.860   7.483   1.008
16904WAT      O50953   0.876   8.395   8.969
16904WAT     H150954   0.918   8.486   8.967
16904WAT     H250955   0.804   8.391   8.899
16905WAT      O50956   6.304   0.518   6.673
16905WAT     H150957   6.303   0.450   6.600
16905WAT     H250958   6.340   0.604   6.638
16906WAT      O50959   9.212   8.669   3.345
16906WAT     H150960   9.119   8.701   3.323
16906WAT     H250961   9.279   8.724   3.294
16907WAT      O50962   6.122   7.977   6.442
16907WAT     H150963   6.037   8.020   6.410
16907WAT     H250964   6.200   8.030   6.410
16908WAT      O50965   7.469   5.249   9.438
16908WAT     H150966   7.443   5.152   9.431
16908WAT     H250967   7.513   5.266   9.526
16909WAT      O50968   3.828   4.650   2.787
16909WAT     H150969   3.898   4.721   2.777
16909WAT     H250970   3.739   4.686   2.756
16910WAT      O50971   8.648   4.184   5.802
16910WAT     H150972   8.672   4.093   5.834
16910WAT     H250973   8.564   4.214   5.848
16911WAT      O50974   6.340   2.383   1.285
16911WAT     H150975   6.410   2.455   1.277
16911WAT     H250976   6.312   2.353   1.194
16912WAT      O50977   3.048   0.951   3.891
16912WAT     H150978   3.034   1.008   3.972
16912WAT     H250979   3.000   0.864   3.902
16913WAT      O50980   1.578   2.358   0.898
16913WAT     H150981   1.600   2.441   0.950
16913WAT     H250982   1.541   2.384   0.809
16914WAT      O50983   1.545   7.548   6.018
16914WAT     H150984   1.589   7.530   6.107
16914WAT     H250985   1.598   7.616   5.968
16915WAT      O50986   1.327   5.935   0.301
16915WAT     H150987   1.309   5.872   0.377
16915WAT     H250988   1.353   6.024   0.338
16916WAT      O50989   5.454   4.223   6.625
16916WAT     H150990   5.409   4.308   6.653
16916WAT     H250991   5.388   4.148   6.629
16917WAT      O50992   5.648   2.806   8.086
16917WAT     H150993   5.733   2.846   8.119
16917WAT     H250994   5.609   2.747   8.157
16918WAT      O50995   2.929   0.683   4.959
16918WAT     H150996   2.933   0.584   4.945
16918WAT     H250997   2.852   0.705   5.019
16919WAT      O50998   3.549   1.057   3.745
16919WAT     H150999   3.600   0.991   3.800
16919WAT     H251000   3.559   1.034   3.648
16920WAT      O51001   1.605   0.202   3.104
16920WAT     H151002   1.694   0.164   3.078
16920WAT     H251003   1.594   0.198   3.203
16921WAT      O51004   7.652   7.292   7.520
16921WAT     H151005   7.679   7.375   7.570
16921WAT     H251006   7.726   7.266   7.458
16922WAT      O51007   2.313   7.795   1.222
16922WAT     H151008   2.380   7.868   1.238
16922WAT     H251009   2.221   7.831   1.238
16923WAT      O51010   0.914   4.542   8.827
16923WAT     H151011   0.961   4.522   8.741
16923WAT     H251012   0.927   4.638   8.851
16924WAT      O51013   5.145   6.531   1.230
16924WAT     H151014   5.201   6.574   1.159
16924WAT     H251015   5.139   6.433   1.213
16925WAT      O51016   8.522   7.155   0.158
16925WAT     H151017   8.617   7.128   0.142
16925WAT     H251018   8.503   7.151   0.256
16926WAT      O51019   4.604   3.169   7.908
16926WAT     H151020   4.660   3.096   7.945
16926WAT     H251021   4.658   3.225   7.845
16927WAT      O51022   1.232   2.560   8.891
16927WAT     H151023   1.296   2.637   8.890
16927WAT     H251024   1.181   2.559   8.805
16928WAT      O51025   7.933   0.235   4.216
16928WAT     H151026   7.987   0.247   4.300
16928WAT     H251027   7.836   0.248   4.237
16929WAT      O51028   4.831   0.639   6.671
16929WAT     H151029   4.796   0.597   6.587
16929WAT     H251030   4.835   0.738   6.659
16930WAT      O51031   5.576   6.565   3.995
16930WAT     H151032   5.617   6.494   3.937
16930WAT     H251033   5.478   6.570   3.977
16931WAT      O51034   8.086   2.640   3.601
16931WAT     H151035   8.109   2.674   3.509
16931WAT     H251036   8.023   2.704   3.645
16932WAT      O51037   2.443   7.981   0.944
16932WAT     H151038   2.533   7.969   0.985
16932WAT     H251039   2.382   8.026   1.010
16933WAT      O51040   3.946   8.805   2.770
16933WAT     H151041   3.858   8.849   2.792
16933WAT     H251042   4.013   8.828   2.841
16934WAT      O51043   3.284   0.762   2.236
16934WAT     H151044   3.223   0.839   2.219
16934WAT     H251045   3.365   0.793   2.286
16935WAT      O51046   2.701   5.670   5.605
16935WAT     H151047   2.663   5.762   5.613
16935WAT     H251048   2.796   5.670   5.636
16936WAT      O51049   3.296   5.305   8.983
16936WAT     H151050   3.248   5.227   9.022
16936WAT     H251051   3.319   5.286   8.887
16937WAT      O51052   2.300   9.504   9.599
16937WAT     H151053   2.392   9.484   9.631
16937WAT     H251054   2.260   9.576   9.655
16938WAT      O51055   8.899   6.174   3.759
16938WAT     H151056   8.971   6.237   3.729
16938WAT     H251057   8.841   6.149   3.682
16939WAT      O51058   3.514   3.884   6.542
16939WAT     H151059   3.551   3.926   6.625
16939WAT     H251060   3.499   3.787   6.558
16940WAT      O51061   0.622   0.996   6.746
16940WAT     H151062   0.678   0.931   6.695
16940WAT     H251063   0.563   1.046   6.682
16941WAT      O51064   9.673   6.098   0.384
16941WAT     H151065   9.677   6.001   0.407
16941WAT     H251066   9.766   6.132   0.371
16942WAT      O51067   2.887   0.121   0.323
16942WAT     H151068   2.957   0.063   0.281
16942WAT     H251069   2.888   0.211   0.281
16943WAT      O51070   4.753   7.699   4.659
16943WAT     H151071   4.813   7.625   4.689
16943WAT     H251072   4.707   7.671   4.574
16944WAT      O51073   8.396   8.821   8.351
16944WAT     H151074   8.357   8.815   8.259
16944WAT     H251075   8.322   8.817   8.419
16945WAT      O51076   5.954   7.845   5.413
16945WAT     H151077   6.035   7.892   5.446
16945WAT     H251078   5.979   7.755   5.378
16946WAT      O51079   2.114   5.693   4.812
16946WAT     H151080   2.093   5.598   4.788
16946WAT     H251081   2.187   5.694   4.881
16947WAT      O51082   0.708   6.696   1.841
16947WAT     H151083   0.727   6.658   1.751
16947WAT     H251084   0.794   6.721   1.886
16948WAT      O51085   3.047   5.196   6.449
16948WAT     H151086   3.062   5.228   6.543
16948WAT     H251087   3.129   5.148   6.417
16949WAT      O51088   2.794   7.221   6.497
16949WAT     H151089   2.784   7.128   6.460
16949WAT     H251090   2.706   7.269   6.489
16950WAT      O51091   8.536   2.761   2.679
16950WAT     H151092   8.472   2.762   2.602
16950WAT     H251093   8.554   2.667   2.706
16951WAT      O51094   0.132   1.333   6.184
16951WAT     H151095   0.219   1.343   6.135
16951WAT     H251096   0.066   1.398   6.148
16952WAT      O51097   7.115   9.732   8.822
16952WAT     H151098   7.067   9.688   8.746
16952WAT     H251099   7.104   9.831   8.816
16953WAT      O51100   3.159   8.696   6.892
16953WAT     H151101   3.209   8.781   6.877
16953WAT     H251102   3.137   8.654   6.804
16954WAT      O51103   2.456   5.389   4.836
16954WAT     H151104   2.544   5.427   4.862
16954WAT     H251105   2.398   5.380   4.916
16955WAT      O51106   4.923   0.228   7.314
16955WAT     H151107   4.966   0.236   7.403
16955WAT     H251108   4.972   0.160   7.259
16956WAT      O51109   4.946   2.528   1.484
16956WAT     H151110   5.036   2.499   1.515
16956WAT     H251111   4.875   2.475   1.532
16957WAT      O51112   5.812   2.876   5.273
16957WAT     H151113   5.770   2.948   5.329
16957WAT     H251114   5.836   2.799   5.332
16958WAT      O51115   2.756   4.514   7.867
16958WAT     H151116   2.770   4.419   7.893
16958WAT     H251117   2.842   4.564   7.876
16959WAT      O51118   8.461   0.664   0.310
16959WAT     H151119   8.446   0.580   0.257
16959WAT     H251120   8.401   0.664   0.390
16960WAT      O51121   3.112   2.165   0.220
16960WAT     H151122   3.060   2.250   0.233
16960WAT     H251123   3.064   2.107   0.154
16961WAT      O51124   0.447   1.899   0.267
16961WAT     H151125   0.545   1.885   0.281
16961WAT     H251126   0.430   1.993   0.239
16962WAT      O51127   6.294   4.873   4.800
16962WAT     H151128   6.263   4.787   4.840
16962WAT     H251129   6.256   4.950   4.853
16963WAT      O51130   2.742   0.828   6.070
16963WAT     H151131   2.776   0.754   6.128
16963WAT     H251132   2.769   0.916   6.109
16964WAT      O51133   4.088   1.632   0.628
16964WAT     H151134   4.096   1.706   0.560
16964WAT     H251135   4.178   1.607   0.661
16965WAT      O51136   0.754   0.253   7.959
16965WAT     H151137   0.679   0.314   7.983
16965WAT     H251138   0.839   0.287   7.999
16966WAT      O51139   0.532   2.964   0.919
16966WAT     H151140   0.569   2.877   0.885
16966WAT     H251141   0.437   2.952   0.948
16967WAT      O51142   6.605   4.182   3.723
16967WAT     H151143   6.702   4.164   3.704
16967WAT     H251144   6.577   4.127   3.802
16968WAT      O51145   6.859   0.642   1.191
16968WAT     H151146   6.862   0.735   1.152
16968WAT     H251147   6.840   0.576   1.118
16969WAT      O51148   0.003   8.176   4.522
16969WAT     H151149  -0.043   8.140   4.603
16969WAT     H251150   0.097   8.144   4.520
16970WAT      O51151   5.235   9.818   2.636
16970WAT     H151152   5.206   9.910   2.609
16970WAT     H251153   5.207   9.801   2.730
16971WAT      O51154   6.991   4.917   3.482
16971WAT     H151155   6.923   4.951   3.546
16971WAT     H251156   7.037   4.837   3.520
16972WAT      O51157   6.879   6.837   9.752
16972WAT     H151158   6.844   6.924   9.719
16972WAT     H251159   6.864   6.830   9.851
16973WAT      O51160   5.514   9.825   4.040
16973WAT     H151161   5.597   9.871   4.074
16973WAT     H251162   5.528   9.726   4.044
16974WAT      O51163   5.280   1.772   7.192
16974WAT     H151164   5.255   1.855   7.141
16974WAT     H251165   5.315   1.797   7.282
16975WAT      O51166   3.902   9.821   2.071
16975WAT     H151167   3.830   9.890   2.081
16975WAT     H251168   3.892   9.751   2.142
16976WAT      O51169   3.341   2.563   4.464
16976WAT     H151170   3.247   2.598   4.463
16976WAT     H251171   3.370   2.544   4.370
16977WAT      O51172   5.176   3.566   0.363
16977WAT     H151173   5.159   3.604   0.454
16977WAT     H251174   5.091   3.530   0.325
16978WAT      O51175   3.685   1.468   0.560
16978WAT     H151176   3.692   1.558   0.603
16978WAT     H251177   3.611   1.416   0.601
16979WAT      O51178   5.935   5.449   2.399
16979WAT     H151179   5.925   5.427   2.496
16979WAT     H251180   5.844   5.456   2.357
16980WAT      O51181   4.342   8.166   4.984
16980WAT     H151182   4.278   8.229   4.940
16980WAT     H251183   4.308   8.140   5.074
16981WAT      O51184   9.611   0.837   9.103
16981WAT     H151185   9.596   0.898   9.182
16981WAT     H251186   9.524   0.825   9.055
16982WAT      O51187   4.768   0.164   8.062
16982WAT     H151188   4.760   0.238   7.995
16982WAT     H251189   4.769   0.076   8.015
16983WAT      O51190   6.636   5.566   8.340
16983WAT     H151191   6.651   5.501   8.415
16983WAT     H251192   6.659   5.658   8.371
16984WAT      O51193   3.329   1.706   2.576
16984WAT     H151194   3.343   1.664   2.665
16984WAT     H251195   3.294   1.799   2.587
16985WAT      O51196   4.198   6.550   9.274
16985WAT     H151197   4.115   6.495   9.282
16985WAT     H251198   4.237   6.538   9.183
16986WAT      O51199   7.843   0.103   4.592
16986WAT     H151200   7.762   0.051   4.567
16986WAT     H251201   7.862   0.090   4.690
16987WAT      O51202   0.740   8.175   3.675
16987WAT     H151203   0.659   8.120   3.693
16987WAT     H251204   0.720   8.271   3.692
16988WAT      O51205   4.699   3.317   2.470
16988WAT     H151206   4.607   3.287   2.495
16988WAT     H251207   4.731   3.386   2.535
16989WAT      O51208   5.150   5.386   0.027
16989WAT     H151209   5.143   5.445   0.107
16989WAT     H251210   5.204   5.304   0.050
16990WAT      O51211   8.624   2.811   1.461
16990WAT     H151212   8.568   2.744   1.510
16990WAT     H251213   8.578   2.900   1.461
16991WAT      O51214   4.803   9.482   6.813
16991WAT     H151215   4.719   9.535   6.823
16991WAT     H251216   4.791   9.392   6.855
16992WAT      O51217   6.110   2.313   2.666
16992WAT     H151218   6.120   2.243   2.595
16992WAT     H251219   6.055   2.389   2.630
16993WAT      O51220   4.284   8.580   8.142
16993WAT     H151221   4.228   8.521   8.084
16993WAT     H251222   4.347   8.523   8.195
16994WAT      O51223   5.997   9.388   3.952
16994WAT     H151224   5.944   9.337   3.884
16994WAT     H251225   5.958   9.480   3.962
16995WAT      O51226   0.903   7.290   3.295
16995WAT     H151227   0.830   7.221   3.298
16995WAT     H251228   0.973   7.267   3.362
16996WAT      O51229   4.076   6.235   2.692
16996WAT     H151230   4.031   6.187   2.617
16996WAT     H251231   4.176   6.225   2.682
16997WAT      O51232   1.056   1.490   5.757
16997WAT     H151233   1.115   1.483   5.838
16997WAT     H251234   1.072   1.577   5.712
16998WAT      O51235   5.535   1.414   6.528
16998WAT     H151236   5.519   1.397   6.625
16998WAT     H251237   5.603   1.349   6.493
16999WAT      O51238   2.445   5.854   3.237
16999WAT     H151239   2.499   5.825   3.316
16999WAT     H251240   2.353   5.880   3.266
17000WAT      O51241   6.848   3.855   0.767
17000WAT     H151242   6.759   3.824   0.735
17000WAT     H251243   6.844   3.875   0.865
17001WAT      O51244   6.341   6.116   2.568
17001WAT     H151245   6.322   6.198   2.515
17001WAT     H251246   6.297   6.037   2.525
17002WAT      O51247   4.546   4.847   6.093
17002WAT     H151248   4.631   4.874   6.139
17002WAT     H251249   4.557   4.756   6.052
17003WAT      O51250   6.824   7.217   6.152
17003WAT     H151251   6.815   7.160   6.233
17003WAT     H251252   6.819   7.313   6.178
17004WAT      O51253   8.418   1.916   0.506
17004WAT     H151254   8.335   1.957   0.466
17004WAT     H251255   8.486   1.902   0.435
17005WAT      O51256   7.061   2.576   0.172
17005WAT     H151257   7.105   2.650   0.122
17005WAT     H251258   7.038   2.606   0.264
17006WAT      O51259   0.102   7.524   4.190
17006WAT     H151260   0.163   7.530   4.111
17006WAT     H251261   0.143   7.571   4.268
17007WAT      O51262   4.205   9.436   0.911
17007WAT     H151263   4.199   9.516   0.971
17007WAT     H251264   4.198   9.353   0.966
17008WAT      O51265   3.330   9.566   1.171
17008WAT     H151266   3.280   9.526   1.247
17008WAT     H251267   3.303   9.520   1.086
17009WAT      O51268   9.120   5.901   2.923
17009WAT     H151269   9.125   5.829   2.993
17009WAT     H251270   9.092   5.860   2.836
17010WAT      O51271   4.542   5.471   2.902
17010WAT     H151272   4.579   5.545   2.959
17010WAT     H251273   4.539   5.501   2.807
17011WAT      O51274   5.890   5.921   0.075
17011WAT     H151275   5.842   5.900   0.160
17011WAT     H251276   5.929   6.013   0.081
17012WAT      O51277   3.312   7.730   1.011
17012WAT     H151278   3.256   7.768   0.937
17012WAT     H251279   3.375   7.663   0.974
17013WAT      O51280   3.899   6.237   8.795
17013WAT     H151281   3.922   6.242   8.698
17013WAT     H251282   3.801   6.221   8.806
17014WAT      O51283   3.125   8.551   2.823
17014WAT     H151284   3.093   8.482   2.888
17014WAT     H251285   3.111   8.642   2.861
17015WAT      O51286   7.235   6.600   7.989
17015WAT     H151287   7.208   6.596   8.085
17015WAT     H251288   7.285   6.517   7.964
17016WAT      O51289   9.540   3.192   2.094
17016WAT     H151290   9.564   3.260   2.163
17016WAT     H251291   9.618   3.179   2.032
17017WAT      O51292   7.996   2.934   9.766
17017WAT     H151293   7.900   2.962   9.760
17017WAT     H251294   8.001   2.834   9.778
17018WAT      O51295   8.786   9.172   5.883
17018WAT     H151296   8.842   9.253   5.903
17018WAT     H251297   8.718   9.160   5.956
17019WAT      O51298   5.868   1.693   6.076
17019WAT     H151299   5.938   1.716   6.009
17019WAT     H251300   5.778   1.719   6.040
17020WAT      O51301   7.874   1.463   2.828
17020WAT     H151302   7.956   1.506   2.790
17020WAT     H251303   7.817   1.533   2.871
17021WAT      O51304   4.164   8.424   6.639
17021WAT     H151305   4.136   8.363   6.713
17021WAT     H251306   4.084   8.466   6.598
17022WAT      O51307   3.232   9.635   8.678
17022WAT     H151308   3.251   9.536   8.679
17022WAT     H251309   3.158   9.655   8.743
17023WAT      O51310   7.255   0.805   8.989
17023WAT     H151311   7.315   0.726   8.974
17023WAT     H251312   7.201   0.791   9.072
17024WAT      O51313   7.430   3.364   6.495
17024WAT     H151314   7.331   3.372   6.483
17024WAT     H251315   7.460   3.275   6.460
17025WAT      O51316   3.459   5.075   0.432
17025WAT     H151317   3.491   5.104   0.341
17025WAT     H251318   3.495   5.137   0.501
17026WAT      O51319   6.925   8.142   7.478
17026WAT     H151320   6.874   8.206   7.535
17026WAT     H251321   7.022   8.164   7.481
17027WAT      O51322   4.118   7.857   7.238
17027WAT     H151323   4.063   7.938   7.217
17027WAT     H251324   4.066   7.775   7.212
17028WAT      O51325   0.518   7.634   3.468
17028WAT     H151326   0.489   7.719   3.424
17028WAT     H251327   0.443   7.598   3.524
17029WAT      O51328   0.012   5.017   3.058
17029WAT     H151329  -0.053   4.956   3.104
17029WAT     H251330   0.016   4.994   2.960
17030WAT      O51331   9.646   8.196   7.305
17030WAT     H151332   9.623   8.289   7.333
17030WAT     H251333   9.685   8.146   7.383
17031WAT      O51334   0.984   4.457   4.745
17031WAT     H151335   0.941   4.386   4.689
17031WAT     H251336   1.004   4.420   4.835
17032WAT      O51337   2.160   9.508   6.474
17032WAT     H151338   2.257   9.512   6.498
17032WAT     H251339   2.126   9.600   6.454
17033WAT      O51340   6.323   6.307   4.511
17033WAT     H151341   6.277   6.390   4.481
17033WAT     H251342   6.391   6.279   4.442
17034WAT      O51343   5.736   7.269   7.508
17034WAT     H151344   5.754   7.331   7.585
17034WAT     H251345   5.639   7.274   7.483
17035WAT      O51346   9.776   7.690   3.943
17035WAT     H151347   9.691   7.647   3.912
17035WAT     H251348   9.786   7.780   3.902
17036WAT      O51349   9.459   6.338   7.236
17036WAT     H151350   9.406   6.423   7.233
17036WAT     H251351   9.412   6.267   7.185
17037WAT      O51352   0.745   5.422   0.759
17037WAT     H151353   0.842   5.446   0.754
17037WAT     H251354   0.699   5.485   0.822
17038WAT      O51355   2.254   3.985   9.049
17038WAT     H151356   2.159   4.014   9.044
17038WAT     H251357   2.296   3.993   8.959
17039WAT      O51358   6.595   7.587   2.075
17039WAT     H151359   6.662   7.516   2.096
17039WAT     H251360   6.509   7.566   2.120
17040WAT      O51361   2.880   3.587   6.397
17040WAT     H151362   2.949   3.556   6.332
17040WAT     H251363   2.811   3.516   6.408
17041WAT      O51364   0.485   8.692   8.168
17041WAT     H151365   0.410   8.648   8.216
17041WAT     H251366   0.571   8.648   8.195
17042WAT      O51367   8.468   0.277   7.737
17042WAT     H151368   8.444   0.372   7.759
17042WAT     H251369   8.472   0.224   7.821
17043WAT      O51370   5.925   4.904   2.637
17043WAT     H151371   5.907   4.995   2.675
17043WAT     H251372   5.838   4.860   2.614
17044WAT      O51373   9.601   6.538   2.863
17044WAT     H151374   9.508   6.534   2.899
17044WAT     H251375   9.645   6.449   2.873
17045WAT      O51376   2.421   2.950   6.045
17045WAT     H151377   2.340   2.891   6.043
17045WAT     H251378   2.423   3.000   6.131
17046WAT      O51379   5.728   5.225   7.497
17046WAT     H151380   5.632   5.208   7.475
17046WAT     H251381   5.784   5.150   7.462
17047WAT      O51382   1.885   7.083   8.355
17047WAT     H151383   1.799   7.122   8.388
17047WAT     H251384   1.874   7.053   8.260
17048WAT      O51385   8.345   2.252   3.221
17048WAT     H151386   8.331   2.246   3.122
17048WAT     H251387   8.275   2.197   3.267
17049WAT      O51388   9.825   0.366   2.657
17049WAT     H151389   9.729   0.384   2.679
17049WAT     H251390   9.883   0.434   2.701
17050WAT      O51391   6.798   9.128   4.756
17050WAT     H151392   6.830   9.050   4.809
17050WAT     H251393   6.751   9.193   4.816
17051WAT      O51394   6.976   1.101   6.921
17051WAT     H151395   6.922   1.017   6.932
17051WAT     H251396   7.073   1.077   6.911
17052WAT      O51397   4.902   8.856   8.442
17052WAT     H151398   4.807   8.876   8.418
17052WAT     H251399   4.961   8.882   8.365
17053WAT      O51400   7.181   4.002   1.784
17053WAT     H151401   7.274   3.976   1.808
17053WAT     H251402   7.128   3.920   1.762
17054WAT      O51403   3.820   4.839   0.506
17054WAT     H151404   3.848   4.921   0.456
17054WAT     H251405   3.733   4.806   0.469
17055WAT      O51406   5.368   3.880   3.585
17055WAT     H151407   5.455   3.928   3.597
17055WAT     H251408   5.323   3.911   3.502
17056WAT      O51409   8.658   3.950   3.314
17056WAT     H151410   8.749   3.976   3.281
17056WAT     H251411   8.655   3.955   3.414
17057WAT      O51412   6.092   1.913   7.755
17057WAT     H151413   6.095   1.911   7.655
17057WAT     H251414   6.167   1.970   7.790
17058WAT      O51415   1.713   4.862   9.384
17058WAT     H151416   1.797   4.827   9.426
17058WAT     H251417   1.707   4.961   9.397
17059WAT      O51418   6.980   5.540   2.413
17059WAT     H151419   6.981   5.570   2.508
17059WAT     H251420   6.981   5.440   2.410
17060WAT      O51421   6.434   9.060   6.512
17060WAT     H151422   6.357   9.122   6.529
17060WAT     H251423   6.514   9.091   6.565
17061WAT      O51424   1.661   7.496   5.219
17061WAT     H151425   1.723   7.528   5.290
17061WAT     H251426   1.632   7.572   5.161
17062WAT      O51427   6.304   2.307   9.567
17062WAT     H151428   6.274   2.219   9.604
17062WAT     H251429   6.240   2.379   9.596
17063WAT      O51430   7.986   1.960   9.280
17063WAT     H151431   8.037   2.019   9.343
17063WAT     H251432   7.932   2.016   9.218
17064WAT      O51433   0.093   1.041   3.228
17064WAT     H151434   0.076   0.943   3.240
17064WAT     H251435   0.182   1.054   3.184
17065WAT      O51436   1.896   0.199   1.844
17065WAT     H151437   1.963   0.223   1.915
17065WAT     H251438   1.835   0.128   1.879
17066WAT      O51439   4.700   6.505   0.618
17066WAT     H151440   4.603   6.480   0.617
17066WAT     H251441   4.752   6.438   0.564
17067WAT      O51442   6.469   7.576   6.998
17067WAT     H151443   6.522   7.655   7.031
17067WAT     H251444   6.372   7.601   6.994
17068WAT      O51445   5.082   4.881   0.292
17068WAT     H151446   4.989   4.872   0.257
17068WAT     H251447   5.145   4.894   0.216
17069WAT      O51448   5.864   9.208   9.546
17069WAT     H151449   5.825   9.276   9.483
17069WAT     H251450   5.904   9.134   9.492
17070WAT      O51451   6.398   8.820   3.076
17070WAT     H151452   6.305   8.794   3.104
17070WAT     H251453   6.408   8.919   3.083
17071WAT      O51454   2.212   5.310   7.963
17071WAT     H151455   2.176   5.251   7.891
17071WAT     H251456   2.273   5.378   7.922
17072WAT      O51457   3.031   1.832   2.805
17072WAT     H151458   2.998   1.887   2.729
17072WAT     H251459   3.100   1.882   2.856
17073WAT      O51460   1.788   5.805   5.627
17073WAT     H151461   1.822   5.710   5.625
17073WAT     H251462   1.699   5.809   5.582
17074WAT      O51463   0.682   2.066   2.261
17074WAT     H151464   0.684   2.164   2.281
17074WAT     H251465   0.604   2.024   2.307
17075WAT      O51466   5.224   7.300   6.091
17075WAT     H151467   5.130   7.286   6.119
17075WAT     H251468   5.229   7.380   6.030
17076WAT      O51469   9.057   7.498   6.530
17076WAT     H151470   9.069   7.398   6.528
17076WAT     H251471   8.981   7.524   6.471
17077WAT      O51472   8.003   2.610   6.148
17077WAT     H151473   8.072   2.539   6.166
17077WAT     H251474   7.970   2.601   6.054
17078WAT      O51475   6.448   1.975   5.095
17078WAT     H151476   6.368   2.011   5.142
17078WAT     H251477   6.527   1.977   5.157
17079WAT      O51478   1.591   8.536   4.514
17079WAT     H151479   1.602   8.443   4.479
17079WAT     H251480   1.569   8.532   4.611
17080WAT      O51481   6.047   9.285   5.224
17080WAT     H151482   6.066   9.383   5.226
17080WAT     H251483   6.074   9.248   5.135
17081WAT      O51484   5.283   3.328   3.907
17081WAT     H151485   5.368   3.275   3.915
17081WAT     H251486   5.219   3.299   3.977
17082WAT      O51487   6.900   3.601   4.912
17082WAT     H151488   6.806   3.578   4.937
17082WAT     H251489   6.960   3.525   4.936
17083WAT      O51490   9.578   2.715   0.746
17083WAT     H151491   9.643   2.790   0.758
17083WAT     H251492   9.624   2.636   0.706
17084WAT      O51493   6.742   5.580   5.929
17084WAT     H151494   6.720   5.486   5.901
17084WAT     H251495   6.658   5.628   5.954
17085WAT      O51496   1.947   8.596   5.114
17085WAT     H151497   1.865   8.539   5.117
17085WAT     H251498   1.934   8.676   5.173
17086WAT      O51499   5.381   0.987   8.412
17086WAT     H151500   5.296   1.040   8.408
17086WAT     H251501   5.443   1.028   8.479
17087WAT      O51502   5.400   6.750   1.932
17087WAT     H151503   5.444   6.831   1.970
17087WAT     H251504   5.413   6.749   1.832
17088WAT      O51505   8.596   5.875   3.975
17088WAT     H151506   8.508   5.837   4.003
17088WAT     H251507   8.625   5.945   4.041
17089WAT      O51508   1.864   0.797   1.561
17089WAT     H151509   1.898   0.727   1.498
17089WAT     H251510   1.831   0.754   1.644
17090WAT      O51511   2.706   9.357   2.547
17090WAT     H151512   2.658   9.354   2.635
17090WAT     H251513   2.804   9.348   2.562
17091WAT      O51514   6.595   5.036   7.144
17091WAT     H151515   6.566   5.082   7.228
17091WAT     H251516   6.694   5.045   7.133
17092WAT      O51517   2.156   8.233   2.767
17092WAT     H151518   2.145   8.225   2.668
17092WAT     H251519   2.201   8.320   2.789
17093WAT      O51520   5.065   2.259   4.381
17093WAT     H151521   4.987   2.322   4.381
17093WAT     H251522   5.094   2.242   4.287
17094WAT      O51523   8.820   8.766   1.455
17094WAT     H151524   8.784   8.838   1.514
17094WAT     H251525   8.745   8.723   1.405
17095WAT      O51526   9.436   5.216   4.800
17095WAT     H151527   9.375   5.209   4.879
17095WAT     H251528   9.483   5.129   4.786
17096WAT      O51529   0.178   2.831   2.978
17096WAT     H151530   0.182   2.928   2.957
17096WAT     H251531   0.116   2.816   3.056
17097WAT      O51532   9.581   9.758   1.919
17097WAT     H151533   9.497   9.703   1.917
17097WAT     H251534   9.582   9.822   1.843
17098WAT      O51535   4.204   7.702   4.019
17098WAT     H151536   4.132   7.653   4.069
17098WAT     H251537   4.169   7.728   3.929
17099WAT      O51538   8.532   2.601   0.515
17099WAT     H151539   8.433   2.588   0.522
17099WAT     H251540   8.562   2.669   0.582
17100WAT      O51541   3.111   3.884   9.281
17100WAT     H151542   3.208   3.903   9.297
17100WAT     H251543   3.064   3.969   9.256
17101WAT      O51544   8.882   2.971   4.474
17101WAT     H151545   8.815   2.984   4.546
17101WAT     H251546   8.969   3.012   4.501
17102WAT      O51547   5.079   0.310   1.474
17102WAT     H151548   5.112   0.216   1.473
17102WAT     H251549   5.029   0.329   1.389
17103WAT      O51550   9.031   2.682   9.584
17103WAT     H151551   8.969   2.685   9.662
17103WAT     H251552   9.114   2.632   9.609
17104WAT      O51553   3.001   3.547   2.102
17104WAT     H151554   3.046   3.524   2.188
17104WAT     H251555   2.949   3.632   2.113
17105WAT      O51556   7.906   6.287   7.908
17105WAT     H151557   7.857   6.217   7.856
17105WAT     H251558   7.892   6.272   8.006
17106WAT      O51559   0.365   2.410   1.929
17106WAT     H151560   0.377   2.457   2.016
17106WAT     H251561   0.375   2.311   1.944
17107WAT      O51562   4.804   8.743   9.215
17107WAT     H151563   4.821   8.679   9.291
17107WAT     H251564   4.891   8.772   9.176
17108WAT      O51565   1.685   8.781   4.434
17108WAT     H151566   1.618   8.840   4.390
17108WAT     H251567   1.640   8.696   4.463
17109WAT      O51568   8.395   6.893   2.594
17109WAT     H151569   8.464   6.876   2.665
17109WAT     H251570   8.417   6.839   2.513
17110WAT      O51571   8.158   6.635   4.775
17110WAT     H151572   8.067   6.667   4.802
17110WAT     H251573   8.223   6.653   4.850
17111WAT      O51574   5.274   6.311   0.940
17111WAT     H151575   5.316   6.234   0.892
17111WAT     H251576   5.321   6.326   1.027
17112WAT      O51577   8.225   4.464   9.193
17112WAT     H151578   8.267   4.390   9.139
17112WAT     H251579   8.290   4.497   9.261
17113WAT      O51580   5.080   4.073   7.429
17113WAT     H151581   5.173   4.098   7.405
17113WAT     H251582   5.073   4.063   7.529
17114WAT      O51583   8.278   5.797   1.116
17114WAT     H151584   8.327   5.875   1.157
17114WAT     H251585   8.182   5.800   1.144
17115WAT      O51586   0.995   6.665   0.615
17115WAT     H151587   0.927   6.594   0.630
17115WAT     H251588   1.027   6.701   0.702
17116WAT      O51589   5.620   7.787   0.622
17116WAT     H151590   5.527   7.766   0.595
17116WAT     H251591   5.682   7.771   0.545
17117WAT      O51592   8.137   7.108   3.853
17117WAT     H151593   8.078   7.174   3.806
17117WAT     H251594   8.129   7.019   3.808
17118WAT      O51595   9.442   9.635   6.506
17118WAT     H151596   9.398   9.568   6.565
17118WAT     H251597   9.440   9.603   6.411
17119WAT      O51598   0.016   6.004   8.595
17119WAT     H151599   0.030   6.085   8.653
17119WAT     H251600   0.053   5.923   8.641
17120WAT      O51601   4.056   1.216   7.919
17120WAT     H151602   4.051   1.314   7.938
17120WAT     H251603   4.114   1.172   7.988
17121WAT      O51604   1.294   2.669   3.984
17121WAT     H151605   1.248   2.755   4.006
17121WAT     H251606   1.301   2.613   4.067
17122WAT      O51607   0.233   6.034   5.085
17122WAT     H151608   0.326   6.005   5.060
17122WAT     H251609   0.201   5.980   5.163
17123WAT      O51610   9.627   9.631   9.167
17123WAT     H151611   9.684   9.712   9.177
17123WAT     H251612   9.685   9.549   9.169
17124WAT      O51613   4.208   5.451   8.695
17124WAT     H151614   4.193   5.536   8.745
17124WAT     H251615   4.300   5.452   8.654
17125WAT      O51616   9.596   3.505   1.864
17125WAT     H151617   9.546   3.555   1.793
17125WAT     H251618   9.531   3.456   1.922
17126WAT      O51619   7.360   1.558   6.176
17126WAT     H151620   7.301   1.495   6.227
17126WAT     H251621   7.427   1.599   6.239
17127WAT      O51622   0.341   6.236   7.191
17127WAT     H151623   0.393   6.184   7.259
17127WAT     H251624   0.253   6.192   7.176
17128WAT      O51625   9.813   6.194   4.397
17128WAT     H151626   9.848   6.159   4.484
17128WAT     H251627   9.890   6.222   4.339
17129WAT      O51628   3.191   5.954   0.384
17129WAT     H151629   3.096   5.977   0.404
17129WAT     H251630   3.228   5.896   0.457
17130WAT      O51631   8.431   4.229   9.270
17130WAT     H151632   8.467   4.322   9.281
17130WAT     H251633   8.346   4.220   9.322
17131WAT      O51634   9.389   4.313   7.564
17131WAT     H151635   9.420   4.282   7.654
17131WAT     H251636   9.425   4.405   7.547
17132WAT      O51637   0.447   8.626   1.467
17132WAT     H151638   0.510   8.603   1.541
17132WAT     H251639   0.452   8.556   1.396
17133WAT      O51640   5.719   1.005   7.202
17133WAT     H151641   5.733   0.946   7.281
17133WAT     H251642   5.791   0.988   7.134
17134WAT      O51643   7.734   2.037   9.671
17134WAT     H151644   7.674   2.028   9.591
17134WAT     H251645   7.678   2.052   9.752
17135WAT      O51646   4.384   6.585   3.418
17135WAT     H151647   4.329   6.617   3.340
17135WAT     H251648   4.480   6.609   3.403
17136WAT      O51649   8.751   6.115   7.198
17136WAT     H151650   8.658   6.080   7.215
17136WAT     H251651   8.802   6.048   7.144
17137WAT      O51652   3.452   3.839   7.445
17137WAT     H151653   3.452   3.742   7.420
17137WAT     H251654   3.546   3.870   7.460
17138WAT      O51655   1.678   0.988   8.281
17138WAT     H151656   1.659   1.014   8.186
17138WAT     H251657   1.615   0.916   8.309
17139WAT      O51658   9.217   7.708   6.407
17139WAT     H151659   9.140   7.645   6.406
17139WAT     H251660   9.303   7.656   6.403
17140WAT      O51661   1.485   7.344   5.846
17140WAT     H151662   1.566   7.348   5.788
17140WAT     H251663   1.498   7.405   5.925
17141WAT      O51664   6.028   5.380   4.989
17141WAT     H151665   5.969   5.407   4.913
17141WAT     H251666   5.984   5.307   5.041
17142WAT      O51667   7.551   6.959   2.336
17142WAT     H151668   7.544   6.894   2.261
17142WAT     H251669   7.466   7.013   2.341
17143WAT      O51670   1.578   7.769   5.105
17143WAT     H151671   1.624   7.812   5.183
17143WAT     H251672   1.487   7.809   5.095
17144WAT      O51673   1.154   2.772   3.508
17144WAT     H151674   1.239   2.820   3.485
17144WAT     H251675   1.087   2.787   3.436
17145WAT      O51676   2.891   1.475   5.156
17145WAT     H151677   2.846   1.562   5.178
17145WAT     H251678   2.990   1.489   5.153
17146WAT      O51679   7.607   4.714   1.604
17146WAT     H151680   7.557   4.684   1.685
17146WAT     H251681   7.652   4.801   1.622
17147WAT      O51682   3.044   4.501   7.427
17147WAT     H151683   3.043   4.478   7.330
17147WAT     H251684   3.006   4.593   7.440
17148WAT      O51685   6.406   4.044   3.905
17148WAT     H151686   6.361   4.132   3.920
17148WAT     H251687   6.338   3.972   3.901
17149WAT      O51688   1.014   9.170   3.269
17149WAT     H151689   1.113   9.184   3.261
17149WAT     H251690   0.967   9.223   3.199
17150WAT      O51691   4.701   1.275   4.353
17150WAT     H151692   4.693   1.301   4.450
17150WAT     H251693   4.656   1.188   4.338
17151WAT      O51694   3.805   7.010   9.008
17151WAT     H151695   3.880   7.051   9.060
17151WAT     H251696   3.842   6.968   8.925
17152WAT      O51697   8.451   6.938   6.697
17152WAT     H151698   8.403   6.910   6.780
17152WAT     H251699   8.483   6.857   6.648
17153WAT      O51700   9.262   0.044   5.996
17153WAT     H151701   9.212  -0.012   6.062
17153WAT     H251702   9.335  -0.010   5.956
17154WAT      O51703   0.641   8.001   9.474
17154WAT     H151704   0.612   8.058   9.550
17154WAT     H251705   0.627   7.905   9.497
17155WAT      O51706   7.294   2.293   1.505
17155WAT     H151707   7.250   2.341   1.429
17155WAT     H251708   7.391   2.316   1.507
17156WAT      O51709   5.138   9.839   8.303
17156WAT     H151710   5.121   9.809   8.397
17156WAT     H251711   5.122   9.763   8.240
17157WAT      O51712   1.908   3.620   6.123
17157WAT     H151713   1.809   3.635   6.116
17157WAT     H251714   1.943   3.669   6.203
17158WAT      O51715   9.176   7.746   9.115
17158WAT     H151716   9.082   7.756   9.147
17158WAT     H251717   9.187   7.793   9.027
17159WAT      O51718   2.110   6.051   1.010
17159WAT     H151719   2.186   6.014   0.956
17159WAT     H251720   2.121   6.150   1.020
17160WAT      O51721   6.934   7.775   2.516
17160WAT     H151722   6.989   7.791   2.434
17160WAT     H251723   6.993   7.765   2.595
17161WAT      O51724   3.331   3.704   4.176
17161WAT     H151725   3.274   3.656   4.243
17161WAT     H251726   3.427   3.692   4.200
17162WAT      O51727   0.391   1.929   2.383
17162WAT     H151728   0.450   1.980   2.445
17162WAT     H251729   0.308   1.900   2.432
17163WAT      O51730   1.657   0.898   1.346
17163WAT     H151731   1.704   0.887   1.258
17163WAT     H251732   1.718   0.870   1.420
17164WAT      O51733   0.990   0.013   2.054
17164WAT     H151734   1.056  -0.043   2.005
17164WAT     H251735   0.898  -0.006   2.020
17165WAT      O51736   7.595   2.719   0.870
17165WAT     H151737   7.563   2.675   0.785
17165WAT     H251738   7.652   2.655   0.921
17166WAT      O51739   1.165   7.408   0.334
17166WAT     H151740   1.231   7.451   0.273
17166WAT     H251741   1.152   7.313   0.306
17167WAT      O51742   0.882   8.586   9.860
17167WAT     H151743   0.920   8.555   9.948
17167WAT     H251744   0.956   8.603   9.796
17168WAT      O51745   8.422   4.807   8.560
17168WAT     H151746   8.465   4.718   8.576
17168WAT     H251747   8.322   4.795   8.557
17169WAT      O51748   2.856   8.992   0.343
17169WAT     H151749   2.759   8.969   0.332
17169WAT     H251750   2.910   8.907   0.346
17170WAT      O51751   6.105   2.969   1.198
17170WAT     H151752   6.029   2.951   1.136
17170WAT     H251753   6.148   2.883   1.224
17171WAT      O51754   7.784   1.624   6.398
17171WAT     H151755   7.781   1.528   6.368
17171WAT     H251756   7.808   1.628   6.495
17172WAT      O51757   9.032   7.736   2.691
17172WAT     H151758   9.071   7.645   2.702
17172WAT     H251759   8.946   7.729   2.640
17173WAT      O51760   5.235   5.297   9.466
17173WAT     H151761   5.195   5.274   9.555
17173WAT     H251762   5.195   5.381   9.432
17174WAT      O51763   4.963   8.015   7.498
17174WAT     H151764   4.924   7.923   7.507
17174WAT     H251765   4.981   8.052   7.589
17175WAT      O51766   7.368   1.948   6.466
17175WAT     H151767   7.461   1.967   6.435
17175WAT     H251768   7.329   2.031   6.506
17176WAT      O51769   7.093   9.409   9.296
17176WAT     H151770   7.106   9.398   9.198
17176WAT     H251771   7.043   9.494   9.314
17177WAT      O51772   5.681   5.850   3.316
17177WAT     H151773   5.586   5.849   3.284
17177WAT     H251774   5.740   5.808   3.246
17178WAT      O51775   9.195   0.212   0.851
17178WAT     H151776   9.224   0.205   0.947
17178WAT     H251777   9.111   0.266   0.845
17179WAT      O51778   3.575   5.640   3.455
17179WAT     H151779   3.613   5.731   3.468
17179WAT     H251780   3.593   5.585   3.537
17180WAT      O51781   2.357   3.081   6.298
17180WAT     H151782   2.277   3.066   6.355
17180WAT     H251783   2.408   3.161   6.332
17181WAT      O51784   8.263   8.435   9.346
17181WAT     H151785   8.359   8.419   9.320
17181WAT     H251786   8.257   8.448   9.445
17182WAT      O51787   4.965   6.977   2.169
17182WAT     H151788   4.920   6.901   2.215
17182WAT     H251789   4.994   6.948   2.077
17183WAT      O51790   6.831   5.203   2.145
17183WAT     H151791   6.857   5.262   2.222
17183WAT     H251792   6.739   5.168   2.159
17184WAT      O51793   9.689   4.164   8.907
17184WAT     H151794   9.736   4.088   8.952
17184WAT     H251795   9.724   4.175   8.814
17185WAT      O51796   0.185   3.905   7.740
17185WAT     H151797   0.230   3.863   7.818
17185WAT     H251798   0.086   3.891   7.746
17186WAT      O51799   3.551   7.471   5.311
17186WAT     H151800   3.526   7.472   5.407
17186WAT     H251801   3.649   7.451   5.302
17187WAT      O51802   6.998   7.976   0.760
17187WAT     H151803   7.075   7.912   0.761
17187WAT     H251804   6.918   7.933   0.803
17188WAT      O51805   1.102   2.470   8.453
17188WAT     H151806   1.180   2.524   8.484
17188WAT     H251807   1.091   2.480   8.354
17189WAT      O51808   5.511   9.566   7.849
17189WAT     H151809   5.463   9.636   7.900
17189WAT     H251810   5.583   9.526   7.905
17190WAT      O51811   1.085   0.531   8.936
17190WAT     H151812   1.138   0.521   8.851
17190WAT     H251813   0.989   0.512   8.918
17191WAT      O51814   9.238   1.443   8.750
17191WAT     H151815   9.209   1.503   8.825
17191WAT     H251816   9.327   1.473   8.716
17192WAT      O51817   4.715   7.630   3.290
17192WAT     H151818   4.766   7.544   3.298
17192WAT     H251819   4.716   7.661   3.195
17193WAT      O51820   2.204   7.100   4.273
17193WAT     H151821   2.299   7.069   4.274
17193WAT     H251822   2.194   7.176   4.209
17194WAT      O51823   2.869   7.875   3.536
17194WAT     H151824   2.851   7.911   3.445
17194WAT     H251825   2.962   7.897   3.564
17195WAT      O51826   3.478   2.150   3.432
17195WAT     H151827   3.477   2.144   3.332
17195WAT     H251828   3.485   2.059   3.471
17196WAT      O51829   2.073   6.147   0.623
17196WAT     H151830   2.120   6.076   0.570
17196WAT     H251831   2.141   6.210   0.660
17197WAT      O51832   7.065   9.440   0.966
17197WAT     H151833   6.974   9.480   0.978
17197WAT     H251834   7.099   9.462   0.875
17198WAT      O51835   3.937   1.478   7.470
17198WAT     H151836   3.853   1.528   7.491
17198WAT     H251837   4.013   1.517   7.521
17199WAT      O51838   3.166   8.485   0.190
17199WAT     H151839   3.212   8.396   0.190
17199WAT     H251840   3.102   8.490   0.113
17200WAT      O51841   2.154   2.737   5.797
17200WAT     H151842   2.113   2.799   5.864
17200WAT     H251843   2.157   2.644   5.833
17201WAT      O51844   8.140   1.955   8.867
17201WAT     H151845   8.162   1.908   8.952
17201WAT     H251846   8.163   1.896   8.790
17202WAT      O51847   7.963   5.304   5.652
17202WAT     H151848   7.877   5.270   5.690
17202WAT     H251849   7.953   5.401   5.628
17203WAT      O51850   4.385   3.040   4.050
17203WAT     H151851   4.398   3.084   4.138
17203WAT     H251852   4.474   3.016   4.010
17204WAT      O51853   3.766   3.286   1.248
17204WAT     H151854   3.691   3.348   1.269
17204WAT     H251855   3.812   3.259   1.334
17205WAT      O51856   8.656   3.359   3.129
17205WAT     H151857   8.666   3.377   3.031
17205WAT     H251858   8.617   3.439   3.174
17206WAT      O51859   4.276   2.327   2.275
17206WAT     H151860   4.192   2.346   2.325
17206WAT     H251861   4.254   2.286   2.187
17207WAT      O51862   0.880   2.842   0.023
17207WAT     H151863   0.903   2.763   0.080
17207WAT     H251864   0.882   2.925   0.080
17208WAT      O51865   0.129   8.111   7.428
17208WAT     H151866   0.119   8.028   7.372
17208WAT     H251867   0.038   8.145   7.452
17209WAT      O51868   9.567   9.676   5.523
17209WAT     H151869   9.531   9.769   5.523
17209WAT     H251870   9.640   9.669   5.455
17210WAT      O51871   6.258   7.251   5.349
17210WAT     H151872   6.300   7.305   5.276
17210WAT     H251873   6.265   7.300   5.436
17211WAT      O51874   3.275   4.540   7.037
17211WAT     H151875   3.198   4.547   7.100
17211WAT     H251876   3.243   4.548   6.943
17212WAT      O51877   3.675   6.257   4.857
17212WAT     H151878   3.713   6.336   4.809
17212WAT     H251879   3.579   6.274   4.880
17213WAT      O51880   6.855   8.965   9.706
17213WAT     H151881   6.765   9.005   9.721
17213WAT     H251882   6.918   9.000   9.776
17214WAT      O51883   3.168   2.814   2.025
17214WAT     H151884   3.078   2.808   1.981
17214WAT     H251885   3.204   2.906   2.013
17215WAT      O51886   2.629   3.054   1.510
17215WAT     H151887   2.598   3.020   1.598
17215WAT     H251888   2.663   2.977   1.455
17216WAT      O51889   5.610   9.632   5.434
17216WAT     H151890   5.613   9.729   5.461
17216WAT     H251891   5.522   9.593   5.460
17217WAT      O51892   3.709   4.245   6.219
17217WAT     H151893   3.767   4.193   6.157
17217WAT     H251894   3.765   4.311   6.269
17218WAT      O51895   3.174   2.419   3.994
17218WAT     H151896   3.083   2.378   3.997
17218WAT     H251897   3.191   2.456   3.903
17219WAT      O51898   3.973   9.698   0.176
17219WAT     H151899   3.904   9.760   0.215
17219WAT     H251900   4.063   9.723   0.210
17220WAT      O51901   4.525   1.599   4.859
17220WAT     H151902   4.525   1.508   4.901
17220WAT     H251903   4.527   1.590   4.760
17221WAT      O51904   1.773   8.368   5.856
17221WAT     H151905   1.706   8.427   5.811
17221WAT     H251906   1.835   8.330   5.787
17222WAT      O51907   6.071   3.442   5.481
17222WAT     H151908   6.161   3.453   5.525
17222WAT     H251909   6.058   3.515   5.414
17223WAT      O51910   2.347   8.700   8.926
17223WAT     H151911   2.300   8.785   8.951
17223WAT     H251912   2.419   8.720   8.860
17224WAT      O51913   9.089   3.584   6.776
17224WAT     H151914   9.186   3.561   6.782
17224WAT     H251915   9.034   3.501   6.787
17225WAT      O51916   5.956   2.496   9.164
17225WAT     H151917   5.935   2.515   9.068
17225WAT     H251918   6.004   2.574   9.204
17226WAT      O51919   5.157   0.995   9.392
17226WAT     H151920   5.195   1.086   9.412
17226WAT     H251921   5.153   0.982   9.293
17227WAT      O51922   8.882   8.572   1.866
17227WAT     H151923   8.894   8.638   1.792
17227WAT     H251924   8.970   8.527   1.885
17228WAT      O51925   6.375   4.310   9.640
17228WAT     H151926   6.458   4.305   9.586
17228WAT     H251927   6.388   4.261   9.726
17229WAT      O51928   2.521   3.783   0.271
17229WAT     H151929   2.433   3.738   0.256
17229WAT     H251930   2.517   3.834   0.357
17230WAT      O51931   4.553   1.256   8.707
17230WAT     H151932   4.513   1.245   8.616
17230WAT     H251933   4.646   1.290   8.698
17231WAT      O51934   7.034   0.431   9.758
17231WAT     H151935   7.068   0.465   9.670
17231WAT     H251936   7.033   0.331   9.757
17232WAT      O51937   2.190   8.682   0.665
17232WAT     H151938   2.157   8.602   0.616
17232WAT     H251939   2.265   8.656   0.726
17233WAT      O51940   4.236   1.408   6.091
17233WAT     H151941   4.313   1.358   6.051
17233WAT     H251942   4.230   1.387   6.188
17234WAT      O51943   1.402   9.249   9.567
17234WAT     H151944   1.383   9.226   9.472
17234WAT     H251945   1.349   9.329   9.593
17235WAT      O51946   0.913   4.956   4.979
17235WAT     H151947   0.935   4.979   5.074
17235WAT     H251948   0.917   5.039   4.923
17236WAT      O51949   0.335   4.611   2.054
17236WAT     H151950   0.336   4.710   2.065
17236WAT     H251951   0.241   4.578   2.064
17237WAT      O51952   8.984   8.129   6.143
17237WAT     H151953   9.053   8.142   6.214
17237WAT     H251954   8.930   8.047   6.165
17238WAT      O51955   9.012   2.598   1.431
17238WAT     H151956   9.039   2.653   1.510
17238WAT     H251957   9.008   2.501   1.457
17239WAT      O51958   0.342   7.606   9.639
17239WAT     H151959   0.434   7.594   9.602
17239WAT     H251960   0.290   7.522   9.626
17240WAT      O51961   6.771   7.796   1.968
17240WAT     H151962   6.738   7.722   2.026
17240WAT     H251963   6.857   7.768   1.924
17241WAT      O51964   0.130   8.355   7.748
17241WAT     H151965   0.109   8.429   7.684
17241WAT     H251966   0.134   8.392   7.841
17242WAT      O51967   9.180   0.828   2.919
17242WAT     H151968   9.204   0.891   2.846
17242WAT     H251969   9.257   0.765   2.934
17243WAT      O51970   3.389   7.708   5.339
17243WAT     H151971   3.319   7.723   5.268
17243WAT     H251972   3.449   7.633   5.311
17244WAT      O51973   6.106   4.238   5.056
17244WAT     H151974   6.111   4.224   5.155
17244WAT     H251975   6.198   4.242   5.018
17245WAT      O51976   1.209   8.692   2.031
17245WAT     H151977   1.120   8.727   2.001
17245WAT     H251978   1.253   8.643   1.955
17246WAT      O51979   0.259   1.285   7.301
17246WAT     H151980   0.221   1.306   7.211
17246WAT     H251981   0.320   1.206   7.294
17247WAT      O51982   9.092   6.576   7.808
17247WAT     H151983   9.114   6.478   7.800
17247WAT     H251984   9.165   6.622   7.858
17248WAT      O51985   0.368   1.702   1.975
17248WAT     H151986   0.319   1.617   1.954
17248WAT     H251987   0.460   1.698   1.937
17249WAT      O51988   8.140   6.631   0.308
17249WAT     H151989   8.123   6.552   0.248
17249WAT     H251990   8.052   6.667   0.341
17250WAT      O51991   4.791   3.916   0.667
17250WAT     H151992   4.814   3.824   0.636
17250WAT     H251993   4.794   3.979   0.590
17251WAT      O51994   7.175   2.319   2.816
17251WAT     H151995   7.259   2.372   2.800
17251WAT     H251996   7.185   2.229   2.774
17252WAT      O51997   6.101   4.707   5.002
17252WAT     H151998   6.027   4.752   5.053
17252WAT     H251999   6.183   4.703   5.058
17253WAT      O52000   7.462   5.001   4.779
17253WAT     H152001   7.552   4.970   4.811
17253WAT     H252002   7.458   4.992   4.679
17254WAT      O52003   9.819   8.215   7.562
17254WAT     H152004   9.765   8.207   7.645
17254WAT     H252005   9.891   8.283   7.575
17255WAT      O52006   8.930   3.192   6.025
17255WAT     H152007   8.972   3.247   6.097
17255WAT     H252008   8.831   3.202   6.028
17256WAT      O52009   9.297   0.164   5.285
17256WAT     H152010   9.275   0.196   5.193
17256WAT     H252011   9.233   0.205   5.350
17257WAT      O52012   1.916   8.407   3.614
17257WAT     H152013   1.843   8.339   3.612
17257WAT     H252014   1.966   8.406   3.527
17258WAT      O52015   2.390   6.536   8.007
17258WAT     H152016   2.363   6.465   7.942
17258WAT     H252017   2.337   6.620   7.988
17259WAT      O52018   2.679   4.201   0.779
17259WAT     H152019   2.705   4.169   0.870
17259WAT     H252020   2.747   4.171   0.712
17260WAT      O52021   4.034   4.143   4.665
17260WAT     H152022   4.091   4.166   4.744
17260WAT     H252023   4.088   4.150   4.581
17261WAT      O52024   3.722   6.388   4.407
17261WAT     H152025   3.685   6.470   4.450
17261WAT     H252026   3.787   6.415   4.335
17262WAT      O52027   4.605   3.824   1.301
17262WAT     H152028   4.697   3.786   1.293
17262WAT     H252029   4.562   3.827   1.211
17263WAT      O52030   5.904   7.928   2.819
17263WAT     H152031   5.813   7.966   2.802
17263WAT     H252032   5.930   7.944   2.914
17264WAT      O52033   3.683   9.687   1.771
17264WAT     H152034   3.625   9.664   1.850
17264WAT     H252035   3.663   9.780   1.741
17265WAT      O52036   8.755   4.999   4.732
17265WAT     H152037   8.849   5.006   4.765
17265WAT     H252038   8.737   5.069   4.664
17266WAT      O52039   8.657   4.893   3.116
17266WAT     H152040   8.679   4.835   3.037
17266WAT     H252041   8.559   4.908   3.121
17267WAT      O52042   3.332   0.218   7.761
17267WAT     H152043   3.316   0.290   7.829
17267WAT     H252044   3.342   0.130   7.807
17268WAT      O52045   8.965   5.193   9.841
17268WAT     H152046   8.949   5.284   9.803
17268WAT     H252047   8.878   5.151   9.865
17269WAT      O52048   6.965   8.019   0.485
17269WAT     H152049   6.973   8.018   0.585
17269WAT     H252050   6.961   8.114   0.454
17270WAT      O52051   2.343   0.356   3.868
17270WAT     H152052   2.267   0.322   3.922
17270WAT     H252053   2.311   0.430   3.808
17271WAT      O52054   9.846   7.137   5.399
17271WAT     H152055   9.922   7.095   5.349
17271WAT     H252056   9.814   7.217   5.349
17272WAT      O52057   5.353   2.803   2.750
17272WAT     H152058   5.342   2.713   2.793
17272WAT     H252059   5.272   2.823   2.694
17273WAT      O52060   6.341   4.744   5.138
17273WAT     H152061   6.365   4.647   5.139
17273WAT     H252062   6.390   4.791   5.211
17274WAT      O52063   1.534   0.066   6.664
17274WAT     H152064   1.622   0.104   6.636
17274WAT     H252065   1.510   0.100   6.755
17275WAT      O52066   4.620   0.279   4.995
17275WAT     H152067   4.550   0.229   5.047
17275WAT     H252068   4.660   0.219   4.926
17276WAT      O52069   7.867   1.045   6.467
17276WAT     H152070   7.771   1.064   6.487
17276WAT     H252071   7.887   1.072   6.372
17277WAT      O52072   0.034   8.729   7.192
17277WAT     H152073  -0.015   8.796   7.135
17277WAT     H252074   0.063   8.772   7.277
17278WAT      O52075   5.107   5.175   8.717
17278WAT     H152076   5.034   5.115   8.747
17278WAT     H252077   5.135   5.150   8.624
17279WAT      O52078   1.106   4.171   6.472
17279WAT     H152079   1.007   4.166   6.472
17279WAT     H252080   1.144   4.092   6.425
17280WAT      O52081   2.323   5.655   0.940
17280WAT     H152082   2.260   5.638   1.016
17280WAT     H252083   2.276   5.640   0.853
17281WAT      O52084   6.846   0.767   5.075
17281WAT     H152085   6.763   0.758   5.129
17281WAT     H252086   6.924   0.734   5.128
17282WAT      O52087   9.260   0.729   3.534
17282WAT     H152088   9.296   0.721   3.627
17282WAT     H252089   9.293   0.813   3.493
17283WAT      O52090   8.973   8.393   1.281
17283WAT     H152091   9.036   8.350   1.345
17283WAT     H252092   8.888   8.416   1.328
17284WAT      O52093   5.377   9.755   7.977
17284WAT     H152094   5.336   9.732   8.066
17284WAT     H252095   5.459   9.810   7.991
17285WAT      O52096   8.374   7.696   6.500
17285WAT     H152097   8.324   7.735   6.576
17285WAT     H252098   8.385   7.765   6.428
17286WAT      O52099   6.165   9.374   6.952
17286WAT     H152100   6.235   9.423   7.005
17286WAT     H252101   6.148   9.423   6.867
17287WAT      O52102   5.310   4.065   6.276
17287WAT     H152103   5.384   4.119   6.236
17287WAT     H252104   5.338   4.031   6.366
17288WAT      O52105   4.790   1.341   6.878
17288WAT     H152106   4.787   1.426   6.931
17288WAT     H252107   4.851   1.276   6.924
17289WAT      O52108   8.455   2.499   4.561
17289WAT     H152109   8.398   2.449   4.495
17289WAT     H252110   8.536   2.444   4.583
17290WAT      O52111   6.700   8.942   3.413
17290WAT     H152112   6.747   8.874   3.356
17290WAT     H252113   6.735   9.033   3.391
17291WAT      O52114   5.086   5.010   9.764
17291WAT     H152115   5.101   4.952   9.684
17291WAT     H252116   5.142   4.978   9.840
17292WAT      O52117   1.577   9.379   3.943
17292WAT     H152118   1.501   9.383   3.877
17292WAT     H252119   1.645   9.313   3.911
17293WAT      O52120   2.674   8.531   5.099
17293WAT     H152121   2.581   8.546   5.065
17293WAT     H252122   2.741   8.564   5.032
17294WAT      O52123   2.550   6.572   1.909
17294WAT     H152124   2.498   6.631   1.970
17294WAT     H252125   2.522   6.477   1.922
17295WAT      O52126   5.783   2.038   3.109
17295WAT     H152127   5.820   1.953   3.146
17295WAT     H252128   5.804   2.044   3.011
17296WAT      O52129   8.539   9.007   8.495
17296WAT     H152130   8.637   8.992   8.484
17296WAT     H252131   8.488   8.940   8.441
17297WAT      O52132   4.695   7.416   2.508
17297WAT     H152133   4.780   7.407   2.455
17297WAT     H252134   4.621   7.368   2.460
17298WAT      O52135   0.199   9.428   0.038
17298WAT     H152136   0.152   9.372   0.106
17298WAT     H252137   0.133   9.466  -0.026
17299WAT      O52138   7.794   9.526   3.729
17299WAT     H152139   7.779   9.448   3.669
17299WAT     H252140   7.891   9.531   3.754
17300WAT      O52141   7.560   6.558   5.772
17300WAT     H152142   7.588   6.568   5.867
17300WAT     H252143   7.617   6.615   5.714
17301WAT      O52144   3.143   1.383   6.374
17301WAT     H152145   3.170   1.289   6.354
17301WAT     H252146   3.212   1.426   6.432
17302WAT      O52147   4.942   8.115   7.751
17302WAT     H152148   4.946   8.057   7.833
17302WAT     H252149   5.006   8.191   7.761
17303WAT      O52150   3.633   1.775   6.654
17303WAT     H152151   3.615   1.696   6.712
17303WAT     H252152   3.566   1.846   6.673
17304WAT      O52153   6.856   4.997   3.763
17304WAT     H152154   6.786   4.934   3.796
17304WAT     H252155   6.814   5.063   3.701
17305WAT      O52156   9.092   1.033   7.393
17305WAT     H152157   9.188   1.015   7.371
17305WAT     H252158   9.083   1.126   7.428
17306WAT      O52159   6.871   6.852   1.478
17306WAT     H152160   6.882   6.840   1.576
17306WAT     H252161   6.959   6.878   1.437
17307WAT      O52162   7.589   3.552   7.458
17307WAT     H152163   7.539   3.500   7.527
17307WAT     H252164   7.539   3.635   7.435
17308WAT      O52165   1.224   7.852   7.852
17308WAT     H152166   1.208   7.918   7.926
17308WAT     H252167   1.137   7.819   7.817
17309WAT      O52168   8.592   2.391   6.713
17309WAT     H152169   8.678   2.411   6.664
17309WAT     H252170   8.612   2.335   6.793
17310WAT      O52171   5.473   0.434   1.954
17310WAT     H152172   5.435   0.527   1.949
17310WAT     H252173   5.415   0.377   2.012
17311WAT      O52174   9.403   7.917   8.756
17311WAT     H152175   9.446   7.829   8.733
17311WAT     H252176   9.453   7.991   8.711
17312WAT      O52177   6.350   3.389   5.573
17312WAT     H152178   6.422   3.349   5.517
17312WAT     H252179   6.350   3.346   5.663
17313WAT      O52180   6.562   3.330   3.422
17313WAT     H152181   6.574   3.357   3.326
17313WAT     H252182   6.469   3.295   3.435
17314WAT      O52183   5.262   7.616   7.613
17314WAT     H152184   5.204   7.555   7.558
17314WAT     H252185   5.300   7.565   7.690
17315WAT      O52186   5.185   3.432   5.317
17315WAT     H152187   5.263   3.394   5.366
17315WAT     H252188   5.100   3.399   5.359
17316WAT      O52189   0.035   8.109   8.709
17316WAT     H152190   0.054   8.087   8.613
17316WAT     H252191   0.118   8.096   8.764
17317WAT      O52192   3.958   7.881   3.150
17317WAT     H152193   4.017   7.881   3.069
17317WAT     H252194   3.980   7.801   3.207
17318WAT      O52195   3.132   6.897   6.473
17318WAT     H152196   3.145   6.993   6.451
17318WAT     H252197   3.219   6.856   6.497
17319WAT      O52198   4.655   5.256   9.576
17319WAT     H152199   4.591   5.229   9.504
17319WAT     H252200   4.685   5.176   9.627
17320WAT      O52201   2.743   2.086   7.576
17320WAT     H152202   2.826   2.054   7.621
17320WAT     H252203   2.668   2.022   7.595
17321WAT      O52204   2.844   0.188   3.362
17321WAT     H152205   2.917   0.214   3.424
17321WAT     H252206   2.774   0.259   3.360
17322WAT      O52207   4.327   8.999   3.875
17322WAT     H152208   4.404   9.009   3.938
17322WAT     H252209   4.293   8.905   3.878
17323WAT      O52210   2.548   3.737   0.726
17323WAT     H152211   2.647   3.725   0.728
17323WAT     H252212   2.507   3.685   0.801
17324WAT      O52213   5.144   9.764   4.706
17324WAT     H152214   5.182   9.682   4.748
17324WAT     H252215   5.112   9.826   4.778
17325WAT      O52216   5.300   2.944   6.867
17325WAT     H152217   5.382   2.999   6.852
17325WAT     H252218   5.271   2.903   6.781
17326WAT      O52219   3.409   5.377   6.429
17326WAT     H152220   3.497   5.367   6.477
17326WAT     H252221   3.423   5.427   6.344
17327WAT      O52222   6.676   6.212   1.999
17327WAT     H152223   6.695   6.244   1.906
17327WAT     H252224   6.591   6.253   2.031
17328WAT      O52225   8.192   0.721   3.829
17328WAT     H152226   8.250   0.774   3.768
17328WAT     H252227   8.223   0.732   3.923
17329WAT      O52228   1.624   4.415   7.625
17329WAT     H152229   1.653   4.503   7.588
17329WAT     H252230   1.535   4.425   7.670
17330WAT      O52231   5.082   1.206   6.607
17330WAT     H152232   5.090   1.230   6.704
17330WAT     H252233   5.137   1.268   6.552
17331WAT      O52234   9.627   3.865   4.717
17331WAT     H152235   9.716   3.897   4.686
17331WAT     H252236   9.600   3.914   4.800
17332WAT      O52237   5.302   2.464   9.334
17332WAT     H152238   5.365   2.506   9.269
17332WAT     H252239   5.271   2.533   9.399
17333WAT      O52240   3.924   2.929   9.626
17333WAT     H152241   4.015   2.941   9.585
17333WAT     H252242   3.897   3.013   9.672
17334WAT      O52243   2.254   0.761   0.694
17334WAT     H152244   2.343   0.767   0.739
17334WAT     H252245   2.195   0.699   0.745
17335WAT      O52246   3.879   0.004   9.794
17335WAT     H152247   3.920  -0.026   9.880
17335WAT     H252248   3.884   0.104   9.788
17336WAT      O52249   6.473   8.369   3.958
17336WAT     H152250   6.549   8.308   3.979
17336WAT     H252251   6.436   8.347   3.867
17337WAT      O52252   9.525   6.942   2.367
17337WAT     H152253   9.539   6.843   2.359
17337WAT     H252254   9.596   6.981   2.425
17338WAT      O52255   9.588   1.660   3.694
17338WAT     H152256   9.602   1.617   3.604
17338WAT     H252257   9.656   1.624   3.758
17339WAT      O52258   6.550   1.764   7.303
17339WAT     H152259   6.492   1.774   7.384
17339WAT     H252260   6.646   1.770   7.330
17340WAT      O52261   3.886   4.385   3.853
17340WAT     H152262   3.958   4.454   3.849
17340WAT     H252263   3.880   4.338   3.765
17341WAT      O52264   5.710   4.955   7.712
17341WAT     H152265   5.628   4.990   7.668
17341WAT     H252266   5.760   4.897   7.647
17342WAT      O52267   3.466   0.053   8.081
17342WAT     H152268   3.414   0.038   7.996
17342WAT     H252269   3.407   0.036   8.159
17343WAT      O52270   2.787   9.367   8.240
17343WAT     H152271   2.828   9.439   8.296
17343WAT     H252272   2.854   9.294   8.225
17344WAT      O52273   2.431   4.185   6.089
17344WAT     H152274   2.472   4.130   6.016
17344WAT     H252275   2.381   4.125   6.152
17345WAT      O52276   9.180   3.990   0.179
17345WAT     H152277   9.223   3.977   0.268
17345WAT     H252278   9.137   4.081   0.176
17346WAT      O52279   8.384   9.577   5.485
17346WAT     H152280   8.446   9.500   5.469
17346WAT     H252281   8.293   9.556   5.450
17347WAT      O52282   5.287   8.934   1.738
17347WAT     H152283   5.200   8.907   1.698
17347WAT     H252284   5.324   9.013   1.689
17348WAT      O52285   8.732   7.164   7.049
17348WAT     H152286   8.775   7.145   7.138
17348WAT     H252287   8.788   7.229   6.999
17349WAT      O52288   9.120   7.481   1.058
17349WAT     H152289   9.131   7.478   1.157
17349WAT     H252290   9.177   7.554   1.021
17350WAT      O52291   5.503   8.192   8.026
17350WAT     H152292   5.460   8.177   7.937
17350WAT     H252293   5.597   8.158   8.024
17351WAT      O52294   5.715   7.550   8.452
17351WAT     H152295   5.795   7.598   8.416
17351WAT     H252296   5.635   7.610   8.444
17352WAT      O52297   8.905   9.114   7.113
17352WAT     H152298   8.807   9.103   7.129
17352WAT     H252299   8.956   9.051   7.173
17353WAT      O52300   8.183   3.054   5.027
17353WAT     H152301   8.281   3.062   5.007
17353WAT     H252302   8.132   3.109   4.961
17354WAT      O52303   5.022   3.934   2.720
17354WAT     H152304   5.033   3.854   2.778
17354WAT     H252305   5.109   3.956   2.676
17355WAT      O52306   5.027   7.206   1.814
17355WAT     H152307   4.974   7.122   1.829
17355WAT     H252308   5.123   7.182   1.798
17356WAT      O52309   0.057   4.724   1.899
17356WAT     H152310  -0.030   4.739   1.945
17356WAT     H252311   0.079   4.627   1.898
17357WAT      O52312   8.641   5.465   8.910
17357WAT     H152313   8.714   5.484   8.975
17357WAT     H252314   8.669   5.391   8.848
17358WAT      O52315   6.624   9.143   7.325
17358WAT     H152316   6.614   9.187   7.414
17358WAT     H252317   6.691   9.193   7.270
17359WAT      O52318   0.408   1.979   4.146
17359WAT     H152319   0.437   2.055   4.204
17359WAT     H252320   0.385   2.012   4.055
17360WAT      O52321   2.758   4.668   6.710
17360WAT     H152322   2.665   4.696   6.688
17360WAT     H252323   2.811   4.747   6.739
17361WAT      O52324   3.732   6.093   4.515
17361WAT     H152325   3.675   6.024   4.471
17361WAT     H252326   3.687   6.125   4.599
17362WAT      O52327   9.319   1.076   9.774
17362WAT     H152328   9.345   1.000   9.833
17362WAT     H252329   9.242   1.049   9.716
17363WAT      O52330   3.003   3.155   2.022
17363WAT     H152331   2.945   3.077   2.047
17363WAT     H252332   3.081   3.159   2.085
17364WAT      O52333   2.212   5.717   3.477
17364WAT     H152334   2.163   5.681   3.556
17364WAT     H252335   2.160   5.791   3.436
17365WAT      O52336   8.151   7.612   4.362
17365WAT     H152337   8.169   7.706   4.392
17365WAT     H252338   8.053   7.595   4.363
17366WAT      O52339   3.048   7.476   7.678
17366WAT     H152340   3.067   7.493   7.581
17366WAT     H252341   3.070   7.557   7.731
17367WAT      O52342   8.922   9.162   8.078
17367WAT     H152343   8.889   9.068   8.082
17367WAT     H252344   8.952   9.183   7.985
17368WAT      O52345   9.604   4.274   2.100
17368WAT     H152346   9.695   4.237   2.085
17368WAT     H252347   9.541   4.237   2.032
17369WAT      O52348   2.749   6.005   2.449
17369WAT     H152349   2.668   6.002   2.391
17369WAT     H252350   2.741   6.083   2.512
17370WAT      O52351   2.162   3.783   2.223
17370WAT     H152352   2.080   3.831   2.254
17370WAT     H252353   2.238   3.804   2.284
17371WAT      O52354   1.417   6.502   8.209
17371WAT     H152355   1.427   6.551   8.295
17371WAT     H252356   1.356   6.424   8.222
17372WAT      O52357   8.846   1.351   5.815
17372WAT     H152358   8.843   1.443   5.853
17372WAT     H252359   8.832   1.356   5.716
17373WAT      O52360   6.600   1.508   8.030
17373WAT     H152361   6.504   1.528   8.047
17373WAT     H252362   6.657   1.557   8.096
17374WAT      O52363   2.341   1.075   2.421
17374WAT     H152364   2.349   1.054   2.519
17374WAT     H252365   2.402   1.016   2.369
17375WAT      O52366   5.987   2.886   7.111
17375WAT     H152367   5.954   2.852   7.199
17375WAT     H252368   5.965   2.820   7.039
17376WAT      O52369   7.943   4.718   5.479
17376WAT     H152370   7.855   4.760   5.457
17376WAT     H252371   7.995   4.704   5.395
17377WAT      O52372   6.272   5.336   1.437
17377WAT     H152373   6.293   5.331   1.534
17377WAT     H252374   6.325   5.266   1.388
17378WAT      O52375   2.764   8.175   8.605
17378WAT     H152376   2.813   8.221   8.679
17378WAT     H252377   2.828   8.118   8.553
17379WAT      O52378   3.544   1.293   5.661
17379WAT     H152379   3.621   1.271   5.721
17379WAT     H252380   3.500   1.208   5.631
17380WAT      O52381   5.596   1.557   4.689
17380WAT     H152382   5.588   1.639   4.746
17380WAT     H252383   5.506   1.532   4.654
17381WAT      O52384   8.905   7.784   9.134
17381WAT     H152385   8.868   7.751   9.047
17381WAT     H252386   8.916   7.883   9.131
17382WAT      O52387   6.453   1.509   4.693
17382WAT     H152388   6.353   1.502   4.688
17382WAT     H252389   6.485   1.572   4.622
17383WAT      O52390   7.350   4.184   5.732
17383WAT     H152391   7.438   4.230   5.742
17383WAT     H252392   7.362   4.100   5.678
17384WAT      O52393   2.123   5.774   7.863
17384WAT     H152394   2.180   5.769   7.782
17384WAT     H252395   2.179   5.798   7.942
17385WAT      O52396   5.819   5.470   7.326
17385WAT     H152397   5.823   5.430   7.234
17385WAT     H252398   5.772   5.406   7.387
17386WAT      O52399   7.123   7.307   2.761
17386WAT     H152400   7.081   7.220   2.735
17386WAT     H252401   7.198   7.328   2.698
17387WAT      O52402   1.227   7.418   3.807
17387WAT     H152403   1.273   7.358   3.872
17387WAT     H252404   1.294   7.475   3.761
17388WAT      O52405   4.461   4.241   4.757
17388WAT     H152406   4.490   4.279   4.669
17388WAT     H252407   4.447   4.142   4.747
17389WAT      O52408   7.782   6.334   0.139
17389WAT     H152409   7.703   6.335   0.201
17389WAT     H252410   7.790   6.244   0.097
17390WAT      O52411   5.320   8.694   8.404
17390WAT     H152412   5.335   8.740   8.491
17390WAT     H252413   5.378   8.613   8.399
17391WAT      O52414   7.118   3.277   0.701
17391WAT     H152415   7.115   3.177   0.696
17391WAT     H252416   7.027   3.312   0.722
17392WAT      O52417   5.533   4.084   4.515
17392WAT     H152418   5.482   4.001   4.490
17392WAT     H252419   5.629   4.061   4.529
17393WAT      O52420   1.507   6.090   3.457
17393WAT     H152421   1.439   6.118   3.389
17393WAT     H252422   1.467   6.018   3.515
17394WAT      O52423   6.312   0.166   6.731
17394WAT     H152424   6.247   0.177   6.807
17394WAT     H252425   6.398   0.210   6.755
17395WAT      O52426   2.455   6.248   5.663
17395WAT     H152427   2.416   6.171   5.612
17395WAT     H252428   2.550   6.260   5.637
17396WAT      O52429   6.930   2.657   1.131
17396WAT     H152430   6.871   2.710   1.070
17396WAT     H252431   7.024   2.691   1.123
17397WAT      O52432   3.143   0.728   7.164
17397WAT     H152433   3.175   0.777   7.245
17397WAT     H252434   3.151   0.787   7.084
17398WAT      O52435   8.968   7.816   8.701
17398WAT     H152436   8.907   7.769   8.764
17398WAT     H252437   9.001   7.752   8.631
17399WAT      O52438   3.532   7.864   7.076
17399WAT     H152439   3.559   7.776   7.116
17399WAT     H252440   3.486   7.849   6.989
17400WAT      O52441   8.797   9.711   4.314
17400WAT     H152442   8.868   9.774   4.345
17400WAT     H252443   8.830   9.617   4.322
17401WAT      O52444   5.601   1.420   3.704
17401WAT     H152445   5.608   1.350   3.632
17401WAT     H252446   5.507   1.422   3.739
17402WAT      O52447   2.201   6.377   5.004
17402WAT     H152448   2.258   6.378   5.086
17402WAT     H252449   2.173   6.283   4.985
17403WAT      O52450   8.632   8.814   2.906
17403WAT     H152451   8.663   8.723   2.879
17403WAT     H252452   8.712   8.874   2.914
17404WAT      O52453   6.733   9.376   3.698
17404WAT     H152454   6.765   9.466   3.730
17404WAT     H252455   6.783   9.304   3.746
17405WAT      O52456   1.751   4.424   7.978
17405WAT     H152457   1.763   4.517   7.946
17405WAT     H252458   1.839   4.386   8.006
17406WAT      O52459   1.857   3.040   9.188
17406WAT     H152460   1.889   3.115   9.130
17406WAT     H252461   1.789   3.074   9.253
17407WAT      O52462   9.504   3.057   8.253
17407WAT     H152463   9.491   3.116   8.174
17407WAT     H252464   9.473   3.103   8.335
17408WAT      O52465   1.234   3.236   5.703
17408WAT     H152466   1.172   3.179   5.650
17408WAT     H252467   1.306   3.272   5.643
17409WAT      O52468   5.330   1.344   0.143
17409WAT     H152469   5.288   1.381   0.060
17409WAT     H252470   5.396   1.273   0.118
17410WAT      O52471   9.032   6.890   5.421
17410WAT     H152472   9.013   6.982   5.456
17410WAT     H252473   8.958   6.829   5.446
17411WAT      O52474   2.175   9.502   0.439
17411WAT     H152475   2.146   9.577   0.380
17411WAT     H252476   2.217   9.539   0.522
17412WAT      O52477   5.100   9.050   6.187
17412WAT     H152478   5.032   9.008   6.128
17412WAT     H252479   5.150   9.121   6.137
17413WAT      O52480   2.814   0.998   3.078
17413WAT     H152481   2.753   1.068   3.040
17413WAT     H252482   2.897   1.041   3.111
17414WAT      O52483   0.326   6.144   6.758
17414WAT     H152484   0.316   6.241   6.734
17414WAT     H252485   0.421   6.116   6.746
17415WAT      O52486   4.085   0.495   7.365
17415WAT     H152487   4.022   0.572   7.358
17415WAT     H252488   4.178   0.526   7.343
17416WAT      O52489   1.439   8.486   5.148
17416WAT     H152490   1.390   8.400   5.130
17416WAT     H252491   1.373   8.560   5.156
17417WAT      O52492   8.600   8.843   5.769
17417WAT     H152493   8.646   8.766   5.725
17417WAT     H252494   8.605   8.923   5.711
17418WAT      O52495   8.189   1.639   5.896
17418WAT     H152496   8.237   1.682   5.820
17418WAT     H252497   8.191   1.699   5.976
17419WAT      O52498   5.835   5.334   3.838
17419WAT     H152499   5.922   5.350   3.791
17419WAT     H252500   5.819   5.407   3.905
17420WAT      O52501   3.598   2.111   7.769
17420WAT     H152502   3.546   2.153   7.844
17420WAT     H252503   3.658   2.179   7.728
17421WAT      O52504   1.896   0.819   9.381
17421WAT     H152505   1.984   0.814   9.428
17421WAT     H252506   1.910   0.813   9.283
17422WAT      O52507   4.779   4.161   4.136
17422WAT     H152508   4.755   4.202   4.049
17422WAT     H252509   4.797   4.063   4.123
17423WAT      O52510   1.337   3.245   8.099
17423WAT     H152511   1.386   3.324   8.063
17423WAT     H252512   1.375   3.220   8.188
17424WAT      O52513   2.404   6.751   4.631
17424WAT     H152514   2.333   6.685   4.607
17424WAT     H252515   2.370   6.814   4.700
17425WAT      O52516   7.954   9.717   9.749
17425WAT     H152517   7.972   9.790   9.682
17425WAT     H252518   7.958   9.628   9.703
17426WAT      O52519   6.085   3.134   6.834
17426WAT     H152520   6.155   3.064   6.819
17426WAT     H252521   6.120   3.223   6.806
17427WAT      O52522   4.292   7.246   2.509
17427WAT     H152523   4.249   7.335   2.495
17427WAT     H252524   4.287   7.222   2.606
17428WAT      O52525   2.533   4.677   7.914
17428WAT     H152526   2.623   4.637   7.894
17428WAT     H252527   2.490   4.627   7.990
17429WAT      O52528   7.972   7.396   0.443
17429WAT     H152529   8.059   7.442   0.430
17429WAT     H252530   7.900   7.464   0.457
17430WAT      O52531   8.080   2.977   1.675
17430WAT     H152532   8.098   2.912   1.748
17430WAT     H252533   8.166   3.017   1.644
17431WAT      O52534   3.866   0.926   8.741
17431WAT     H152535   3.875   0.943   8.839
17431WAT     H252536   3.913   0.840   8.718
17432WAT      O52537   7.864   0.980   9.171
17432WAT     H152538   7.846   0.894   9.123
17432WAT     H252539   7.934   0.966   9.240
17433WAT      O52540   9.497   8.691   7.511
17433WAT     H152541   9.446   8.772   7.541
17433WAT     H252542   9.591   8.717   7.489
17434WAT      O52543   9.293   6.230   8.037
17434WAT     H152544   9.356   6.156   8.015
17434WAT     H252545   9.290   6.295   7.961
17435WAT      O52546   8.608   6.789   5.849
17435WAT     H152547   8.539   6.726   5.814
17435WAT     H252548   8.579   6.826   5.937
17436WAT      O52549   0.794   4.013   1.711
17436WAT     H152550   0.851   4.092   1.735
17436WAT     H252551   0.851   3.942   1.671
17437WAT      O52552   2.291   6.069   1.738
17437WAT     H152553   2.301   6.143   1.672
17437WAT     H252554   2.195   6.059   1.764
17438WAT      O52555   4.218   1.025   0.587
17438WAT     H152556   4.134   1.051   0.635
17438WAT     H252557   4.297   1.062   0.635
17439WAT      O52558   6.354   1.844   1.788
17439WAT     H152559   6.264   1.872   1.753
17439WAT     H252560   6.423   1.910   1.760
17440WAT      O52561   4.648   2.585   1.011
17440WAT     H152562   4.715   2.605   0.941
17440WAT     H252563   4.651   2.488   1.033
17441WAT      O52564   8.101   9.741   5.236
17441WAT     H152565   8.176   9.798   5.270
17441WAT     H252566   8.038   9.721   5.311
17442WAT      O52567   2.239   6.362   4.461
17442WAT     H152568   2.311   6.334   4.524
17442WAT     H252569   2.248   6.310   4.376
17443WAT      O52570   5.373   1.914   3.724
17443WAT     H152571   5.422   1.994   3.691
17443WAT     H252572   5.439   1.840   3.742
17444WAT      O52573   0.812   4.863   1.088
17444WAT     H152574   0.911   4.875   1.091
17444WAT     H252575   0.771   4.938   1.037
17445WAT      O52576   0.116   9.446   2.454
17445WAT     H152577   0.164   9.517   2.403
17445WAT     H252578   0.107   9.364   2.398
17446WAT      O52579   8.139   3.344   4.141
17446WAT     H152580   8.215   3.383   4.194
17446WAT     H252581   8.097   3.270   4.193
17447WAT      O52582   5.937   1.313   7.364
17447WAT     H152583   5.931   1.217   7.393
17447WAT     H252584   5.915   1.372   7.442
17448WAT      O52585   5.738   1.900   0.145
17448WAT     H152586   5.792   1.961   0.087
17448WAT     H252587   5.661   1.863   0.092
17449WAT      O52588   4.362   9.215   4.791
17449WAT     H152589   4.437   9.199   4.727
17449WAT     H252590   4.276   9.225   4.740
17450WAT      O52591   6.933   3.581   4.250
17450WAT     H152592   6.974   3.490   4.247
17450WAT     H252593   6.901   3.606   4.158
17451WAT      O52594   6.719   3.821   8.364
17451WAT     H152595   6.622   3.808   8.343
17451WAT     H252596   6.736   3.794   8.459
17452WAT      O52597   2.003   7.234   6.630
17452WAT     H152598   2.074   7.251   6.698
17452WAT     H252599   2.045   7.220   6.540
17453WAT      O52600   1.329   9.143   6.428
17453WAT     H152601   1.280   9.203   6.491
17453WAT     H252602   1.344   9.190   6.341
17454WAT      O52603   5.907   4.987   8.073
17454WAT     H152604   5.863   4.915   8.126
17454WAT     H252605   5.840   5.057   8.049
17455WAT      O52606   4.624   1.764   8.315
17455WAT     H152607   4.664   1.779   8.225
17455WAT     H252608   4.670   1.822   8.382
17456WAT      O52609   1.364   0.350   3.095
17456WAT     H152610   1.457   0.315   3.082
17456WAT     H252611   1.351   0.373   3.191
17457WAT      O52612   3.939   5.476   1.750
17457WAT     H152613   4.001   5.423   1.692
17457WAT     H252614   3.894   5.546   1.695
17458WAT      O52615   5.096   6.809   9.840
17458WAT     H152616   5.118   6.900   9.807
17458WAT     H252617   5.028   6.815   9.913
17459WAT      O52618   2.200   6.005   5.233
17459WAT     H152619   2.290   6.049   5.230
17459WAT     H252620   2.147   6.043   5.308
17460WAT      O52621   4.830   2.841   1.236
17460WAT     H152622   4.775   2.771   1.282
17460WAT     H252623   4.894   2.881   1.300
17461WAT      O52624   6.813   0.723   9.474
17461WAT     H152625   6.877   0.651   9.449
17461WAT     H252626   6.775   0.705   9.565
17462WAT      O52627   9.861   3.656   1.021
17462WAT     H152628   9.925   3.584   0.993
17462WAT     H252629   9.814   3.692   0.941
17463WAT      O52630   6.540   5.772   6.021
17463WAT     H152631   6.556   5.859   5.973
17463WAT     H252632   6.442   5.750   6.020
17464WAT      O52633   4.798   8.480   5.283
17464WAT     H152634   4.744   8.434   5.354
17464WAT     H252635   4.866   8.417   5.246
17465WAT      O52636   4.650   2.492   4.507
17465WAT     H152637   4.604   2.580   4.514
17465WAT     H252638   4.583   2.419   4.501
17466WAT      O52639   8.510   0.026   0.551
17466WAT     H152640   8.608   0.026   0.569
17466WAT     H252641   8.464  -0.036   0.615
17467WAT      O52642   0.050   8.595   0.524
17467WAT     H152643   0.119   8.546   0.471
17467WAT     H252644   0.001   8.532   0.584
17468WAT      O52645   5.089   9.377   2.404
17468WAT     H152646   5.187   9.357   2.397
17468WAT     H252647   5.037   9.293   2.392
17469WAT      O52648   5.728   0.561   2.644
17469WAT     H152649   5.672   0.638   2.616
17469WAT     H252650   5.669   0.489   2.682
17470WAT      O52651   0.184   0.948   7.731
17470WAT     H152652   0.157   0.909   7.644
17470WAT     H252653   0.104   0.984   7.779
17471WAT      O52654   8.446   7.641   6.128
17471WAT     H152655   8.410   7.635   6.035
17471WAT     H252656   8.387   7.702   6.182
17472WAT      O52657   0.445   9.205   1.205
17472WAT     H152658   0.412   9.272   1.272
17472WAT     H252659   0.369   9.145   1.178
17473WAT      O52660   1.309   8.507   2.763
17473WAT     H152661   1.264   8.516   2.675
17473WAT     H252662   1.362   8.423   2.765
17474WAT      O52663   7.389   8.431   0.551
17474WAT     H152664   7.485   8.401   0.552
17474WAT     H252665   7.329   8.353   0.568
17475WAT      O52666   7.897   6.789   7.414
17475WAT     H152667   7.856   6.881   7.416
17475WAT     H252668   7.957   6.782   7.335
17476WAT      O52669   8.841   6.798   0.809
17476WAT     H152670   8.899   6.798   0.890
17476WAT     H252671   8.835   6.891   0.772
17477WAT      O52672   8.974   0.325   6.132
17477WAT     H152673   9.008   0.319   6.225
17477WAT     H252674   9.045   0.364   6.073
17478WAT      O52675   6.636   9.831   0.848
17478WAT     H152676   6.549   9.844   0.896
17478WAT     H252677   6.660   9.734   0.849
17479WAT      O52678   1.215   1.221   2.983
17479WAT     H152679   1.220   1.320   2.979
17479WAT     H252680   1.300   1.182   2.947
17480WAT      O52681   3.548   4.118   0.377
17480WAT     H152682   3.457   4.129   0.419
17480WAT     H252683   3.615   4.098   0.448
17481WAT      O52684   2.776   1.089   6.045
17481WAT     H152685   2.758   1.093   5.946
17481WAT     H252686   2.859   1.140   6.065
17482WAT      O52687   1.797   1.493   1.976
17482WAT     H152688   1.810   1.435   1.896
17482WAT     H252689   1.713   1.547   1.965
17483WAT      O52690   1.824   7.050   0.037
17483WAT     H152691   1.826   7.149   0.045
17483WAT     H252692   1.917   7.014   0.040
17484WAT      O52693   0.579   5.241   2.942
17484WAT     H152694   0.524   5.287   3.010
17484WAT     H252695   0.609   5.152   2.977
17485WAT      O52696   5.008   4.577   6.929
17485WAT     H152697   4.980   4.673   6.920
17485WAT     H252698   4.927   4.519   6.927
17486WAT      O52699   2.691   8.257   9.306
17486WAT     H152700   2.645   8.208   9.231
17486WAT     H252701   2.786   8.225   9.313
17487WAT      O52702   8.405   2.207   2.713
17487WAT     H152703   8.347   2.128   2.692
17487WAT     H252704   8.364   2.290   2.675
17488WAT      O52705   5.349   8.146   3.494
17488WAT     H152706   5.385   8.103   3.412
17488WAT     H252707   5.280   8.214   3.469
17489WAT      O52708   4.191   0.893   9.036
17489WAT     H152709   4.118   0.824   9.039
17489WAT     H252710   4.221   0.904   8.942
17490WAT      O52711   2.801   0.039   1.213
17490WAT     H152712   2.743  -0.042   1.213
17490WAT     H252713   2.862   0.036   1.134
17491WAT      O52714   5.733   3.901   5.295
17491WAT     H152715   5.767   3.888   5.202
17491WAT     H252716   5.638   3.931   5.292
17492WAT      O52717   6.886   0.531   8.566
17492WAT     H152718   6.826   0.466   8.520
17492WAT     H252719   6.872   0.525   8.665
17493WAT      O52720   1.891   6.004   0.811
17493WAT     H152721   1.951   6.027   0.888
17493WAT     H252722   1.938   6.024   0.725
17494WAT      O52723   2.405   5.083   5.878
17494WAT     H152724   2.331   5.148   5.894
17494WAT     H252725   2.481   5.101   5.941
17495WAT      O52726   0.855   6.195   6.696
17495WAT     H152727   0.923   6.249   6.746
17495WAT     H252728   0.850   6.228   6.601
17496WAT      O52729   7.325   2.899   8.412
17496WAT     H152730   7.316   2.802   8.434
17496WAT     H252731   7.420   2.927   8.423
17497WAT      O52732   5.614   1.682   0.444
17497WAT     H152733   5.538   1.644   0.391
17497WAT     H252734   5.612   1.782   0.439
17498WAT      O52735   8.175   4.029   3.483
17498WAT     H152736   8.220   4.077   3.559
17498WAT     H252737   8.237   3.959   3.447
17499WAT      O52738   7.139   1.775   9.194
17499WAT     H152739   7.147   1.870   9.226
17499WAT     H252740   7.230   1.739   9.175
17500WAT      O52741   3.337   7.047   9.830
17500WAT     H152742   3.414   6.984   9.832
17500WAT     H252743   3.369   7.141   9.839
17501WAT      O52744   9.041   5.758   6.871
17501WAT     H152745   9.019   5.791   6.779
17501WAT     H252746   9.074   5.834   6.927
17502WAT      O52747   1.584   2.741   4.108
17502WAT     H152748   1.511   2.708   4.049
17502WAT     H252749   1.590   2.683   4.190
17503WAT      O52750   0.318   1.055   5.940
17503WAT     H152751   0.391   1.017   5.882
17503WAT     H252752   0.334   1.153   5.952
17504WAT      O52753   9.389   9.844   7.403
17504WAT     H152754   9.444   9.762   7.390
17504WAT     H252755   9.334   9.861   7.321
17505WAT      O52756   4.472   9.128   8.498
17505WAT     H152757   4.451   9.149   8.593
17505WAT     H252758   4.567   9.154   8.479
17506WAT      O52759   2.156   1.166   7.917
17506WAT     H152760   2.240   1.179   7.970
17506WAT     H252761   2.137   1.068   7.908
17507WAT      O52762   6.670   8.111   3.532
17507WAT     H152763   6.643   8.153   3.445
17507WAT     H252764   6.607   8.036   3.553
17508WAT      O52765   3.858   8.524   1.456
17508WAT     H152766   3.795   8.477   1.394
17508WAT     H252767   3.812   8.540   1.543
17509WAT      O52768   7.283   1.225   5.302
17509WAT     H152769   7.252   1.292   5.234
17509WAT     H252770   7.375   1.193   5.278
17510WAT      O52771   2.005   6.010   4.503
17510WAT     H152772   2.085   5.965   4.544
17510WAT     H252773   1.922   5.974   4.545
17511WAT      O52774   2.807   0.998   4.950
17511WAT     H152775   2.813   0.899   4.947
17511WAT     H252776   2.881   1.034   5.008
17512WAT      O52777   9.839   4.928   4.905
17512WAT     H152778   9.743   4.946   4.886
17512WAT     H252779   9.869   4.849   4.851
17513WAT      O52780   6.401   9.038   8.111
17513WAT     H152781   6.491   9.059   8.072
17513WAT     H252782   6.372   9.113   8.171
17514WAT      O52783   5.089   6.987   3.128
17514WAT     H152784   5.022   6.930   3.175
17514WAT     H252785   5.172   6.995   3.184
17515WAT      O52786   5.074   9.667   4.068
17515WAT     H152787   5.076   9.639   4.164
17515WAT     H252788   5.029   9.756   4.060
17516WAT      O52789   9.308   2.136   5.263
17516WAT     H152790   9.365   2.197   5.319
17516WAT     H252791   9.332   2.147   5.167
17517WAT      O52792   5.339   2.264   0.406
17517WAT     H152793   5.322   2.202   0.482
17517WAT     H252794   5.414   2.229   0.350
17518WAT      O52795   7.975   0.498   2.922
17518WAT     H152796   7.988   0.401   2.901
17518WAT     H252797   7.903   0.508   2.991
17519WAT      O52798   7.775   0.122   8.389
17519WAT     H152799   7.712   0.152   8.461
17519WAT     H252800   7.750   0.031   8.358
17520WAT      O52801   0.483   6.018   4.077
17520WAT     H152802   0.532   6.087   4.130
17520WAT     H252803   0.459   5.941   4.136
17521WAT      O52804   6.573   9.664   4.260
17521WAT     H152805   6.518   9.583   4.283
17521WAT     H252806   6.624   9.646   4.176
17522WAT      O52807   4.136   7.944   9.244
17522WAT     H152808   4.048   7.955   9.290
17522WAT     H252809   4.121   7.917   9.149
17523WAT      O52810   6.382   4.742   6.268
17523WAT     H152811   6.425   4.802   6.335
17523WAT     H252812   6.316   4.682   6.315
17524WAT      O52813   3.295   8.310   0.508
17524WAT     H152814   3.350   8.371   0.565
17524WAT     H252815   3.204   8.351   0.494
17525WAT      O52816   3.691   8.271   2.549
17525WAT     H152817   3.708   8.369   2.542
17525WAT     H252818   3.593   8.253   2.547
17526WAT      O52819   1.965   8.574   3.812
17526WAT     H152820   1.921   8.535   3.893
17526WAT     H252821   1.956   8.509   3.736
17527WAT      O52822   1.782   5.857   1.030
17527WAT     H152823   1.831   5.918   1.093
17527WAT     H252824   1.809   5.878   0.936
17528WAT      O52825   9.406   0.705   6.569
17528WAT     H152826   9.477   0.755   6.518
17528WAT     H252827   9.418   0.720   6.667
17529WAT      O52828   0.865   0.974   8.138
17529WAT     H152829   0.835   1.052   8.193
17529WAT     H252830   0.834   0.889   8.181
17530WAT      O52831   8.053   0.504   0.792
17530WAT     H152832   8.120   0.577   0.781
17530WAT     H252833   8.083   0.442   0.864
17531WAT      O52834   7.752   3.795   3.964
17531WAT     H152835   7.702   3.858   4.024
17531WAT     H252836   7.769   3.838   3.876
17532WAT      O52837   6.259   8.126   7.118
17532WAT     H152838   6.164   8.098   7.131
17532WAT     H252839   6.320   8.053   7.149
17533WAT      O52840   9.556   3.743   0.202
17533WAT     H152841   9.508   3.698   0.277
17533WAT     H252842   9.494   3.753   0.124
17534WAT      O52843   0.955   2.299   2.089
17534WAT     H152844   1.011   2.225   2.129
17534WAT     H252845   0.986   2.317   1.996
17535WAT      O52846   9.443   6.054   0.524
17535WAT     H152847   9.495   6.020   0.603
17535WAT     H252848   9.505   6.103   0.462
17536WAT      O52849   7.439   4.572   9.320
17536WAT     H152850   7.486   4.498   9.369
17536WAT     H252851   7.359   4.535   9.272
17537WAT      O52852   2.254   6.888   6.204
17537WAT     H152853   2.320   6.860   6.134
17537WAT     H252854   2.181   6.941   6.161
17538WAT      O52855   1.707   6.673   1.996
17538WAT     H152856   1.664   6.727   1.924
17538WAT     H252857   1.801   6.705   2.011
17539WAT      O52858   4.644   4.906   7.831
17539WAT     H152859   4.700   4.847   7.773
17539WAT     H252860   4.569   4.944   7.777
17540WAT      O52861   0.962   9.617  -0.003
17540WAT     H152862   0.875   9.568  -0.014
17540WAT     H252863   0.969   9.652   0.090
17541WAT      O52864   5.674   6.624   4.961
17541WAT     H152865   5.726   6.557   4.908
17541WAT     H252866   5.604   6.578   5.015
17542WAT      O52867   4.928   6.124   3.724
17542WAT     H152868   4.913   6.054   3.794
17542WAT     H252869   4.979   6.084   3.648
17543WAT      O52870   4.545   5.115   9.060
17543WAT     H152871   4.533   5.020   9.090
17543WAT     H252872   4.554   5.117   8.961
17544WAT      O52873   3.145   8.765   1.004
17544WAT     H152874   3.146   8.844   1.066
17544WAT     H252875   3.210   8.697   1.037
17545WAT      O52876   9.262   5.196   8.476
17545WAT     H152877   9.193   5.240   8.533
17545WAT     H252878   9.227   5.109   8.442
17546WAT      O52879   6.129   1.929   6.478
17546WAT     H152880   6.046   1.934   6.534
17546WAT     H252881   6.118   1.858   6.408
17547WAT      O52882   9.562   0.478   6.533
17547WAT     H152883   9.484   0.540   6.544
17547WAT     H252884   9.629   0.496   6.604
17548WAT      O52885   4.063   0.568   4.257
17548WAT     H152886   3.966   0.547   4.265
17548WAT     H252887   4.083   0.651   4.309
17549WAT      O52888   8.407   3.142   8.636
17549WAT     H152889   8.363   3.053   8.649
17549WAT     H252890   8.446   3.145   8.544
17550WAT      O52891   4.469   6.752   4.191
17550WAT     H152892   4.525   6.669   4.189
17550WAT     H252893   4.498   6.810   4.268
17551WAT      O52894   1.412   0.918   3.280
17551WAT     H152895   1.496   0.969   3.260
17551WAT     H252896   1.419   0.826   3.240
17552WAT      O52897   8.144   7.069   8.836
17552WAT     H152898   8.142   7.092   8.739
17552WAT     H252899   8.072   7.118   8.884
17553WAT      O52900   5.660   1.121   8.492
17553WAT     H152901   5.755   1.125   8.523
17553WAT     H252902   5.655   1.066   8.409
17554WAT      O52903   1.831   5.092   1.629
17554WAT     H152904   1.751   5.151   1.641
17554WAT     H252905   1.804   5.007   1.585
17555WAT      O52906   9.836   0.999   9.247
17555WAT     H152907   9.749   1.041   9.272
17555WAT     H252908   9.885   1.059   9.184
17556WAT      O52909   7.555   2.054   9.456
17556WAT     H152910   7.603   1.972   9.424
17556WAT     H252911   7.482   2.028   9.519
17557WAT      O52912   3.663   5.625   4.069
17557WAT     H152913   3.652   5.702   4.133
17557WAT     H252914   3.579   5.614   4.015
17558WAT      O52915   7.450   6.025   4.160
17558WAT     H152916   7.544   6.010   4.192
17558WAT     H252917   7.415   5.941   4.120
17559WAT      O52918   9.385   7.521   7.384
17559WAT     H152919   9.299   7.478   7.358
17559WAT     H252920   9.366   7.610   7.427
17560WAT      O52921   9.033   4.822   7.533
17560WAT     H152922   9.076   4.819   7.624
17560WAT     H252923   8.995   4.733   7.511
17561WAT      O52924   9.437   4.514   1.097
17561WAT     H152925   9.351   4.560   1.072
17561WAT     H252926   9.477   4.561   1.176
17562WAT      O52927   0.908   0.103   4.696
17562WAT     H152928   0.887   0.186   4.748
17562WAT     H252929   0.838   0.089   4.626
17563WAT      O52930   1.137   4.730   2.111
17563WAT     H152931   1.205   4.770   2.174
17563WAT     H252932   1.051   4.780   2.120
17564WAT      O52933   7.628   8.099   0.358
17564WAT     H152934   7.603   8.107   0.454
17564WAT     H252935   7.600   8.010   0.323
17565WAT      O52936   6.401   4.360   3.634
17565WAT     H152937   6.478   4.311   3.675
17565WAT     H252938   6.393   4.450   3.677
17566WAT      O52939   7.631   0.765   8.209
17566WAT     H152940   7.607   0.779   8.113
17566WAT     H252941   7.678   0.846   8.245
17567WAT      O52942   4.936   5.101   1.099
17567WAT     H152943   5.020   5.053   1.126
17567WAT     H252944   4.961   5.189   1.057
17568WAT      O52945   5.028   9.634   5.758
17568WAT     H152946   5.061   9.541   5.777
17568WAT     H252947   4.931   9.632   5.737
17569WAT      O52948   6.991   7.698   3.633
17569WAT     H152949   6.997   7.771   3.701
17569WAT     H252950   7.042   7.618   3.664
17570WAT      O52951   2.810   2.426   3.975
17570WAT     H152952   2.860   2.509   4.001
17570WAT     H252953   2.843   2.349   4.030
17571WAT      O52954   2.783   7.854   9.430
17571WAT     H152955   2.781   7.796   9.348
17571WAT     H252956   2.743   7.803   9.507
17572WAT      O52957   6.465   0.870   5.994
17572WAT     H152958   6.558   0.850   5.963
17572WAT     H252959   6.447   0.820   6.079
17573WAT      O52960   8.472   5.280   6.628
17573WAT     H152961   8.504   5.205   6.570
17573WAT     H252962   8.395   5.248   6.684
17574WAT      O52963   5.338   3.364   9.732
17574WAT     H152964   5.391   3.311   9.666
17574WAT     H252965   5.349   3.323   9.823
17575WAT      O52966   6.756   1.575   0.587
17575WAT     H152967   6.679   1.607   0.531
17575WAT     H252968   6.810   1.653   0.618
17576WAT      O52969   4.245   7.651   0.895
17576WAT     H152970   4.301   7.668   0.814
17576WAT     H252971   4.294   7.591   0.958
17577WAT      O52972   1.630   9.371   9.640
17577WAT     H152973   1.548   9.316   9.627
17577WAT     H252974   1.706   9.312   9.666
17578WAT      O52975   7.213   6.094   5.578
17578WAT     H152976   7.148   6.134   5.513
17578WAT     H252977   7.186   6.120   5.671
17579WAT      O52978   7.080   8.940   8.390
17579WAT     H152979   7.122   8.897   8.310
17579WAT     H252980   7.080   9.040   8.378
17580WAT      O52981   6.941   0.330   6.691
17580WAT     H152982   6.989   0.397   6.748
17580WAT     H252983   6.892   0.378   6.618
17581WAT      O52984   1.333   4.353   7.615
17581WAT     H152985   1.345   4.287   7.542
17581WAT     H252986   1.286   4.310   7.692
17582WAT      O52987   4.601   2.489   5.031
17582WAT     H152988   4.561   2.569   5.075
17582WAT     H252989   4.701   2.491   5.043
17583WAT      O52990   4.328   2.651   4.942
17583WAT     H152991   4.252   2.711   4.916
17583WAT     H252992   4.407   2.708   4.966
17584WAT      O52993   4.731   9.066   5.964
17584WAT     H152994   4.732   8.978   6.011
17584WAT     H252995   4.702   9.138   6.027
17585WAT      O52996   0.978   8.036   3.754
17585WAT     H152997   0.989   7.946   3.712
17585WAT     H252998   0.894   8.078   3.720
17586WAT      O52999   7.760   1.010   5.766
17586WAT     H153000   7.792   0.970   5.680
17586WAT     H253001   7.775   1.108   5.765
17587WAT      O53002   5.899   1.824   7.034
17587WAT     H153003   5.821   1.881   7.062
17587WAT     H253004   5.881   1.785   6.944
17588WAT      O53005   0.309   6.491   7.928
17588WAT     H153006   0.260   6.416   7.885
17588WAT     H253007   0.249   6.572   7.933
17589WAT      O53008   7.008   1.354   0.041
17589WAT     H153009   6.929   1.328  -0.014
17589WAT     H253010   6.977   1.396   0.126
17590WAT      O53011   2.272   9.582   7.181
17590WAT     H153012   2.338   9.508   7.186
17590WAT     H253013   2.215   9.571   7.100
17591WAT      O53014   0.215   4.590   8.227
17591WAT     H153015   0.177   4.560   8.315
17591WAT     H253016   0.282   4.662   8.244
17592WAT      O53017   2.862   8.341   4.526
17592WAT     H153018   2.901   8.299   4.608
17592WAT     H253019   2.800   8.277   4.482
17593WAT      O53020   5.626   8.201   9.164
17593WAT     H153021   5.547   8.221   9.105
17593WAT     H253022   5.613   8.114   9.210
17594WAT      O53023   4.824   9.590   8.542
17594WAT     H153024   4.755   9.521   8.564
17594WAT     H253025   4.845   9.586   8.444
17595WAT      O53026   5.353   9.378   5.685
17595WAT     H153027   5.392   9.313   5.621
17595WAT     H253028   5.276   9.335   5.734
17596WAT      O53029   3.100   0.609   0.990
17596WAT     H153030   3.152   0.569   1.065
17596WAT     H253031   3.091   0.707   1.004
17597WAT      O53032   3.861   3.333   2.854
17597WAT     H153033   3.812   3.292   2.931
17597WAT     H253034   3.820   3.422   2.832
17598WAT      O53035   8.760   8.315   1.604
17598WAT     H153036   8.682   8.284   1.550
17598WAT     H253037   8.734   8.321   1.700
17599WAT      O53038   5.958   7.154   2.845
17599WAT     H153039   5.994   7.139   2.937
17599WAT     H253040   5.942   7.252   2.831
17600WAT      O53041   6.851   0.214   8.509
17600WAT     H153042   6.855   0.129   8.457
17600WAT     H253043   6.774   0.269   8.478
17601WAT      O53044   8.071   4.327   3.773
17601WAT     H153045   8.154   4.275   3.756
17601WAT     H253046   8.013   4.277   3.837
17602WAT      O53047   2.625   1.896   8.213
17602WAT     H153048   2.697   1.940   8.268
17602WAT     H253049   2.552   1.962   8.195
17603WAT      O53050   0.224   8.097   8.901
17603WAT     H153051   0.176   8.056   8.978
17603WAT     H253052   0.322   8.099   8.920
17604WAT      O53053   3.632   3.267   8.298
17604WAT     H153054   3.686   3.226   8.371
17604WAT     H253055   3.553   3.314   8.337
17605WAT      O53056   5.766   9.675   2.257
17605WAT     H153057   5.794   9.626   2.174
17605WAT     H253058   5.724   9.762   2.231
17606WAT      O53059   3.225   5.529   3.612
17606WAT     H153060   3.142   5.581   3.592
17606WAT     H253061   3.272   5.569   3.690
17607WAT      O53062   7.445   8.070   1.759
17607WAT     H153063   7.509   8.139   1.794
17607WAT     H253064   7.481   8.032   1.674
17608WAT      O53065   4.907   2.797   2.798
17608WAT     H153066   4.994   2.793   2.848
17608WAT     H253067   4.858   2.880   2.824
17609WAT      O53068   8.069   9.012   1.431
17609WAT     H153069   8.140   9.052   1.372
17609WAT     H253070   8.022   9.086   1.480
17610WAT      O53071   3.286   1.224   5.281
17610WAT     H153072   3.309   1.273   5.365
17610WAT     H253073   3.292   1.126   5.296
17611WAT      O53074   7.744   6.422   0.513
17611WAT     H153075   7.803   6.345   0.537
17611WAT     H253076   7.676   6.391   0.446
17612WAT      O53077   8.428   3.699   9.673
17612WAT     H153078   8.380   3.703   9.761
17612WAT     H253079   8.467   3.788   9.652
17613WAT      O53080   0.249   1.388   5.197
17613WAT     H153081   0.217   1.434   5.113
17613WAT     H253082   0.262   1.291   5.178
17614WAT      O53083   4.338   1.379   0.453
17614WAT     H153084   4.266   1.310   0.445
17614WAT     H253085   4.315   1.443   0.526
17615WAT      O53086   6.467   5.878   8.212
17615WAT     H153087   6.500   5.911   8.124
17615WAT     H253088   6.540   5.883   8.279
17616WAT      O53089   6.441   5.983   3.744
17616WAT     H153090   6.465   5.894   3.782
17616WAT     H253091   6.501   6.004   3.667
17617WAT      O53092   7.993   3.802   1.049
17617WAT     H153093   7.966   3.706   1.057
17617WAT     H253094   7.944   3.845   0.974
17618WAT      O53095   1.838   2.258   1.356
17618WAT     H153096   1.856   2.190   1.284
17618WAT     H253097   1.743   2.290   1.348
17619WAT      O53098   4.830   9.107   4.831
17619WAT     H153099   4.875   9.186   4.790
17619WAT     H253100   4.855   9.102   4.928
17620WAT      O53101   3.785   3.900   4.128
17620WAT     H153102   3.756   3.961   4.201
17620WAT     H253103   3.884   3.905   4.117
17621WAT      O53104   6.028   5.989   7.920
17621WAT     H153105   5.936   5.965   7.951
17621WAT     H253106   6.042   5.955   7.827
17622WAT      O53107   4.046   4.032   1.689
17622WAT     H153108   3.987   4.056   1.766
17622WAT     H253109   4.097   4.113   1.660
17623WAT      O53110   7.426   2.631   2.236
17623WAT     H153111   7.342   2.684   2.248
17623WAT     H253112   7.497   2.690   2.200
17624WAT      O53113   0.638   9.131   8.936
17624WAT     H153114   0.661   9.229   8.937
17624WAT     H253115   0.547   9.119   8.896
17625WAT      O53116   6.386   2.146   9.280
17625WAT     H153117   6.396   2.143   9.380
17625WAT     H253118   6.364   2.239   9.252
17626WAT      O53119   8.994   4.863   1.644
17626WAT     H153120   8.921   4.876   1.710
17626WAT     H253121   9.057   4.941   1.646
17627WAT      O53122   8.813   1.044   2.210
17627WAT     H153123   8.774   0.958   2.177
17627WAT     H253124   8.760   1.077   2.288
17628WAT      O53125   9.054   9.203   4.810
17628WAT     H153126   9.029   9.298   4.827
17628WAT     H253127   9.088   9.162   4.895
17629WAT      O53128   7.551   7.658   8.046
17629WAT     H153129   7.467   7.670   8.099
17629WAT     H253130   7.599   7.577   8.078
17630WAT      O53131   4.891   8.975   5.744
17630WAT     H153132   4.824   8.986   5.671
17630WAT     H253133   4.849   9.000   5.832
17631WAT      O53134   6.203   7.932   7.519
17631WAT     H153135   6.182   7.857   7.582
17631WAT     H253136   6.280   7.906   7.460
17632WAT      O53137   4.015   0.047   2.927
17632WAT     H153138   4.028  -0.046   2.894
17632WAT     H253139   3.951   0.047   3.003
17633WAT      O53140   1.779   1.920   6.004
17633WAT     H153141   1.820   1.979   6.074
17633WAT     H253142   1.848   1.899   5.934
17634WAT      O53143   5.216   8.380   0.617
17634WAT     H153144   5.117   8.378   0.606
17634WAT     H253145   5.249   8.289   0.642
17635WAT      O53146   6.613   6.397   7.412
17635WAT     H153147   6.565   6.393   7.325
17635WAT     H253148   6.709   6.419   7.396
17636WAT      O53149   0.438   8.034   3.416
17636WAT     H153150   0.396   7.953   3.375
17636WAT     H253151   0.475   8.093   3.344
17637WAT      O53152   0.569   8.024   8.303
17637WAT     H153153   0.635   7.950   8.289
17637WAT     H253154   0.615   8.112   8.292
17638WAT      O53155   8.463   1.047   7.913
17638WAT     H153156   8.517   1.012   7.837
17638WAT     H253157   8.406   1.123   7.882
17639WAT      O53158   3.244   9.423   0.956
17639WAT     H153159   3.163   9.423   0.898
17639WAT     H253160   3.324   9.398   0.901
17640WAT      O53161   5.600   4.249   2.991
17640WAT     H153162   5.583   4.325   3.054
17640WAT     H253163   5.573   4.163   3.034
17641WAT      O53164   1.609   4.100   1.176
17641WAT     H153165   1.554   4.180   1.151
17641WAT     H253166   1.564   4.051   1.251
17642WAT      O53167   2.986   5.938   4.685
17642WAT     H153168   3.039   5.931   4.770
17642WAT     H253169   3.014   5.866   4.623
17643WAT      O53170   9.141   1.802   6.926
17643WAT     H153171   9.118   1.867   6.999
17643WAT     H253172   9.207   1.736   6.960
17644WAT      O53173   3.128   9.510   3.910
17644WAT     H153174   3.221   9.540   3.932
17644WAT     H253175   3.063   9.556   3.970
17645WAT      O53176   5.535   2.430   2.193
17645WAT     H153177   5.512   2.370   2.270
17645WAT     H253178   5.626   2.406   2.159
17646WAT      O53179   5.978   9.678   1.656
17646WAT     H153180   5.931   9.590   1.661
17646WAT     H253181   6.002   9.708   1.748
17647WAT      O53182   2.232   5.342   0.200
17647WAT     H153183   2.300   5.390   0.145
17647WAT     H253184   2.275   5.262   0.243
17648WAT      O53185   4.811   0.200   2.275
17648WAT     H153186   4.735   0.264   2.291
17648WAT     H253187   4.778   0.121   2.224
17649WAT      O53188   0.981   6.033   0.973
17649WAT     H153189   1.061   6.076   0.932
17649WAT     H253190   1.005   5.941   1.004
17650WAT      O53191   0.244   1.459   4.183
17650WAT     H153192   0.332   1.450   4.229
17650WAT     H253193   0.249   1.533   4.116
17651WAT      O53194   7.794   7.833   5.720
17651WAT     H153195   7.769   7.737   5.701
17651WAT     H253196   7.808   7.844   5.818
17652WAT      O53197   0.819   3.557   5.639
17652WAT     H153198   0.833   3.460   5.656
17652WAT     H253199   0.903   3.598   5.606
17653WAT      O53200   1.657   7.271   6.410
17653WAT     H153201   1.694   7.281   6.502
17653WAT     H253202   1.558   7.257   6.415
17654WAT      O53203   9.236   1.611   1.868
17654WAT     H153204   9.201   1.681   1.931
17654WAT     H253205   9.321   1.573   1.905
17655WAT      O53206   6.313   0.904   9.196
17655WAT     H153207   6.254   0.982   9.171
17655WAT     H253208   6.387   0.936   9.255
17656WAT      O53209   9.068   9.333   6.152
17656WAT     H153210   9.018   9.278   6.219
17656WAT     H253211   9.155   9.289   6.131
17657WAT      O53212   2.350   6.904   5.770
17657WAT     H153213   2.418   6.928   5.839
17657WAT     H253214   2.344   6.977   5.702
17658WAT      O53215   2.306   8.921   2.774
17658WAT     H153216   2.379   8.858   2.750
17658WAT     H253217   2.277   8.971   2.692
17659WAT      O53218   1.710   9.400   6.963
17659WAT     H153219   1.705   9.317   6.908
17659WAT     H253220   1.618   9.436   6.978
17660WAT      O53221   4.724   2.245   0.215
17660WAT     H153222   4.633   2.285   0.229
17660WAT     H253223   4.780   2.261   0.295
17661WAT      O53224   9.638   6.138   9.233
17661WAT     H153225   9.599   6.061   9.283
17661WAT     H253226   9.566   6.183   9.179
17662WAT      O53227   6.881   7.876   4.026
17662WAT     H153228   6.948   7.884   4.099
17662WAT     H253229   6.928   7.874   3.937
17663WAT      O53230   9.891   1.084   5.398
17663WAT     H153231   9.828   1.033   5.340
17663WAT     H253232   9.869   1.068   5.494
17664WAT      O53233   8.500   9.764   5.185
17664WAT     H153234   8.413   9.764   5.232
17664WAT     H253235   8.488   9.803   5.093
17665WAT      O53236   0.535   1.046   2.822
17665WAT     H153237   0.481   1.046   2.906
17665WAT     H253238   0.624   1.088   2.839
17666WAT      O53239   7.002   1.031   1.134
17666WAT     H153240   7.025   1.128   1.125
17666WAT     H253241   7.081   0.981   1.168
17667WAT      O53242   0.029   7.554   0.751
17667WAT     H153243  -0.042   7.553   0.821
17667WAT     H253244   0.057   7.461   0.730
17668WAT      O53245   9.355   6.242   4.516
17668WAT     H153246   9.284   6.173   4.529
17668WAT     H253247   9.425   6.206   4.453
17669WAT      O53248   6.145   2.701   5.960
17669WAT     H153249   6.149   2.792   6.002
17669WAT     H253250   6.054   2.686   5.922
17670WAT      O53251   0.011   7.020   4.446
17670WAT     H153252  -0.057   7.091   4.463
17670WAT     H253253   0.008   6.994   4.349
17671WAT      O53254   0.448   7.802   1.114
17671WAT     H153255   0.423   7.815   1.018
17671WAT     H253256   0.509   7.723   1.122
17672WAT      O53257   8.887   6.338   6.187
17672WAT     H153258   8.918   6.306   6.097
17672WAT     H253259   8.839   6.425   6.176
17673WAT      O53260   1.041   3.641   3.408
17673WAT     H153261   0.996   3.603   3.327
17673WAT     H253262   1.045   3.571   3.480
17674WAT      O53263   7.679   4.300   8.856
17674WAT     H153264   7.648   4.228   8.794
17674WAT     H253265   7.771   4.279   8.889
17675WAT      O53266   1.410   5.412   6.423
17675WAT     H153267   1.370   5.412   6.331
17675WAT     H253268   1.342   5.379   6.488
17676WAT      O53269   6.139   1.457   7.867
17676WAT     H153270   6.225   1.456   7.917
17676WAT     H253271   6.149   1.408   7.781
17677WAT      O53272   6.824   2.239   8.060
17677WAT     H153273   6.808   2.165   8.125
17677WAT     H253274   6.743   2.253   8.004
17678WAT      O53275   0.830   6.449   3.015
17678WAT     H153276   0.771   6.501   3.077
17678WAT     H253277   0.808   6.352   3.021
17679WAT      O53278   3.476   9.378   3.305
17679WAT     H153279   3.459   9.381   3.404
17679WAT     H253280   3.426   9.452   3.261
17680WAT      O53281   9.545   6.375   0.722
17680WAT     H153282   9.455   6.371   0.766
17680WAT     H253283   9.603   6.302   0.759
17681WAT      O53284   4.035   2.794   3.527
17681WAT     H153285   4.110   2.761   3.470
17681WAT     H253286   3.949   2.783   3.478
17682WAT      O53287   9.006   9.491   8.523
17682WAT     H153288   8.956   9.569   8.485
17682WAT     H253289   9.103   9.501   8.503
17683WAT      O53290   6.090   3.559   2.129
17683WAT     H153291   6.188   3.546   2.120
17683WAT     H253292   6.042   3.501   2.063
17684WAT      O53293   7.207   6.139   8.276
17684WAT     H153294   7.174   6.163   8.185
17684WAT     H253295   7.181   6.044   8.297
17685WAT      O53296   2.535   3.422   4.488
17685WAT     H153297   2.607   3.456   4.549
17685WAT     H253298   2.560   3.331   4.455
17686WAT      O53299   1.282   0.847   9.207
17686WAT     H153300   1.201   0.804   9.248
17686WAT     H253301   1.255   0.893   9.122
17687WAT      O53302   7.387   4.069   7.300
17687WAT     H153303   7.306   4.088   7.355
17687WAT     H253304   7.442   3.998   7.344
17688WAT      O53305   3.648   2.514   3.665
17688WAT     H153306   3.693   2.429   3.637
17688WAT     H253307   3.550   2.507   3.648
17689WAT      O53308   7.203   5.215   5.779
17689WAT     H153309   7.290   5.237   5.822
17689WAT     H253310   7.181   5.285   5.711
17690WAT      O53311   4.979   6.314   0.985
17690WAT     H153312   4.912   6.380   0.953
17690WAT     H253313   5.063   6.323   0.932
17691WAT      O53314   4.499   2.844   7.341
17691WAT     H153315   4.464   2.914   7.279
17691WAT     H253316   4.426   2.817   7.404
17692WAT      O53317   9.794   6.722   2.087
17692WAT     H153318   9.813   6.636   2.135
17692WAT     H253319   9.696   6.741   2.089
17693WAT      O53320   7.290   0.724   1.238
17693WAT     H153321   7.227   0.798   1.262
17693WAT     H253322   7.323   0.680   1.322
17694WAT      O53323   1.489   3.561   0.875
17694WAT     H153324   1.424   3.632   0.902
17694WAT     H253325   1.570   3.603   0.834
17695WAT      O53326   8.249   4.378   5.429
17695WAT     H153327   8.303   4.377   5.513
17695WAT     H253328   8.174   4.312   5.437
17696WAT      O53329   8.605   1.229   2.938
17696WAT     H153330   8.572   1.151   2.885
17696WAT     H253331   8.532   1.259   3.000
17697WAT      O53332   2.533   9.499   7.530
17697WAT     H153333   2.605   9.441   7.567
17697WAT     H253334   2.462   9.443   7.488
17698WAT      O53335   1.513   3.719   4.725
17698WAT     H153336   1.547   3.709   4.631
17698WAT     H253337   1.455   3.799   4.731
17699WAT      O53338   6.878   1.418   9.057
17699WAT     H153339   6.912   1.366   8.979
17699WAT     H253340   6.919   1.383   9.141
17700WAT      O53341   9.273   7.592   9.711
17700WAT     H153342   9.198   7.589   9.645
17700WAT     H253343   9.237   7.576   9.803
17701WAT      O53344   5.331   7.696   1.237
17701WAT     H153345   5.266   7.716   1.310
17701WAT     H253346   5.316   7.759   1.161
17702WAT      O53347   1.737   5.167   6.325
17702WAT     H153348   1.819   5.217   6.299
17702WAT     H253349   1.671   5.170   6.250
17703WAT      O53350   8.577   6.215   6.729
17703WAT     H153351   8.662   6.243   6.684
17703WAT     H253352   8.538   6.137   6.681
17704WAT      O53353   1.863   9.161   3.555
17704WAT     H153354   1.797   9.152   3.480
17704WAT     H253355   1.949   9.197   3.520
17705WAT      O53356   2.442   3.948   3.140
17705WAT     H153357   2.512   4.018   3.150
17705WAT     H253358   2.486   3.859   3.129
17706WAT      O53359   2.629   2.603   2.973
17706WAT     H153360   2.601   2.627   3.066
17706WAT     H253361   2.566   2.643   2.907
17707WAT      O53362   1.417   0.267   7.759
17707WAT     H153363   1.486   0.280   7.688
17707WAT     H253364   1.411   0.170   7.782
17708WAT      O53365   0.960   3.742   8.358
17708WAT     H153366   1.000   3.726   8.268
17708WAT     H253367   0.925   3.835   8.363
17709WAT      O53368   6.765   2.503   7.003
17709WAT     H153369   6.719   2.591   6.992
17709WAT     H253370   6.834   2.509   7.076
17710WAT      O53371   7.163   7.778   9.255
17710WAT     H153372   7.111   7.702   9.217
17710WAT     H253373   7.251   7.745   9.288
17711WAT      O53374   7.451   0.277   7.428
17711WAT     H153375   7.453   0.192   7.481
17711WAT     H253376   7.530   0.333   7.452
17712WAT      O53377   6.918   2.143   9.506
17712WAT     H153378   6.924   2.207   9.583
17712WAT     H253379   6.871   2.187   9.430
17713WAT      O53380   4.771   9.342   8.239
17713WAT     H153381   4.677   9.342   8.206
17713WAT     H253382   4.794   9.432   8.276
17714WAT      O53383   2.921   0.752   9.455
17714WAT     H153384   2.824   0.728   9.456
17714WAT     H253385   2.967   0.700   9.383
17715WAT      O53386   7.590   6.911   3.421
17715WAT     H153387   7.543   6.862   3.347
17715WAT     H253388   7.688   6.914   3.403
17716WAT      O53389   0.220   4.902   1.236
17716WAT     H153390   0.263   4.854   1.313
17716WAT     H253391   0.129   4.933   1.264
17717WAT      O53392   3.513   1.557   5.275
17717WAT     H153393   3.527   1.647   5.317
17717WAT     H253394   3.488   1.568   5.179
17718WAT      O53395   1.222   9.554   8.226
17718WAT     H153396   1.252   9.535   8.320
17718WAT     H253397   1.138   9.502   8.207
17719WAT      O53398   4.058   4.523   9.659
17719WAT     H153399   4.003   4.444   9.685
17719WAT     H253400   4.055   4.534   9.559
17720WAT      O53401   1.573   0.954   9.599
17720WAT     H153402   1.639   0.996   9.536
17720WAT     H253403   1.590   0.855   9.602
17721WAT      O53404   8.804   4.681   0.448
17721WAT     H153405   8.753   4.673   0.363
17721WAT     H253406   8.873   4.608   0.452
17722WAT      O53407   6.004   8.395   0.323
17722WAT     H153408   5.949   8.479   0.319
17722WAT     H253409   6.069   8.402   0.399
17723WAT      O53410   0.104   2.700   0.861
17723WAT     H153411   0.080   2.687   0.764
17723WAT     H253412   0.020   2.700   0.916
17724WAT      O53413   0.728   9.348   3.323
17724WAT     H153414   0.817   9.383   3.351
17724WAT     H253415   0.686   9.299   3.399
17725WAT      O53416   3.466   7.382   3.175
17725WAT     H153417   3.456   7.482   3.171
17725WAT     H253418   3.526   7.352   3.101
17726WAT      O53419   6.957   3.882   4.974
17726WAT     H153420   6.944   3.869   5.073
17726WAT     H253421   6.949   3.979   4.952
17727WAT      O53422   7.214   9.006   6.991
17727WAT     H153423   7.292   9.027   6.931
17727WAT     H253424   7.162   8.930   6.952
17728WAT      O53425   4.553   0.644   1.175
17728WAT     H153426   4.569   0.743   1.182
17728WAT     H253427   4.557   0.603   1.266
17729WAT      O53428   0.203   0.171   6.343
17729WAT     H153429   0.287   0.176   6.289
17729WAT     H253430   0.225   0.180   6.440
17730WAT      O53431   5.869   5.157   1.481
17730WAT     H153432   5.837   5.151   1.386
17730WAT     H253433   5.920   5.242   1.493
17731WAT      O53434   8.834   5.352   0.577
17731WAT     H153435   8.877   5.290   0.643
17731WAT     H253436   8.741   5.322   0.559
17732WAT      O53437   1.977   1.409   1.571
17732WAT     H153438   1.943   1.350   1.497
17732WAT     H253439   2.076   1.397   1.579
17733WAT      O53440   1.416   9.640   8.832
17733WAT     H153441   1.479   9.572   8.869
17733WAT     H253442   1.419   9.723   8.887
17734WAT      O53443   3.458   3.559   7.436
17734WAT     H153444   3.379   3.511   7.398
17734WAT     H253445   3.542   3.509   7.415
17735WAT      O53446   2.118   9.652   2.293
17735WAT     H153447   2.078   9.714   2.360
17735WAT     H253448   2.158   9.705   2.218
17736WAT      O53449   6.807   4.832   6.118
17736WAT     H153450   6.778   4.912   6.172
17736WAT     H253451   6.739   4.814   6.047
17737WAT      O53452   9.720   8.692   9.260
17737WAT     H153453   9.682   8.642   9.182
17737WAT     H253454   9.647   8.714   9.324
17738WAT      O53455   1.077   5.763   5.143
17738WAT     H153456   1.022   5.729   5.219
17738WAT     H253457   1.024   5.758   5.058
17739WAT      O53458   5.437   6.605   5.570
17739WAT     H153459   5.352   6.591   5.520
17739WAT     H253460   5.448   6.534   5.639
17740WAT      O53461   4.296   2.713   5.246
17740WAT     H153462   4.275   2.642   5.178
17740WAT     H253463   4.316   2.799   5.199
17741WAT      O53464   1.442   9.128   7.868
17741WAT     H153465   1.533   9.129   7.828
17741WAT     H253466   1.373   9.136   7.796
17742WAT      O53467   8.635   2.142   6.376
17742WAT     H153468   8.733   2.130   6.391
17742WAT     H253469   8.597   2.060   6.332
17743WAT      O53470   2.228   6.728   5.186
17743WAT     H153471   2.163   6.683   5.247
17743WAT     H253472   2.194   6.723   5.092
17744WAT      O53473   6.708   3.202   7.303
17744WAT     H153474   6.640   3.196   7.375
17744WAT     H253475   6.798   3.180   7.340
17745WAT      O53476   3.367   7.074   7.328
17745WAT     H153477   3.368   7.064   7.228
17745WAT     H253478   3.283   7.035   7.365
17746WAT      O53479   5.047   5.430   7.910
17746WAT     H153480   4.998   5.469   7.832
17746WAT     H253481   5.145   5.452   7.903
17747WAT      O53482   9.756   7.748   5.654
17747WAT     H153483   9.711   7.670   5.610
17747WAT     H253484   9.704   7.831   5.636
17748WAT      O53485   4.693   7.933   2.407
17748WAT     H153486   4.792   7.926   2.391
17748WAT     H253487   4.665   7.863   2.472
17749WAT      O53488   3.497   0.857   2.458
17749WAT     H153489   3.571   0.828   2.519
17749WAT     H253490   3.531   0.925   2.394
17750WAT      O53491   9.668   6.919   0.657
17750WAT     H153492   9.608   6.865   0.597
17750WAT     H253493   9.755   6.872   0.668
17751WAT      O53494   7.203   6.490   3.808
17751WAT     H153495   7.237   6.551   3.880
17751WAT     H253496   7.179   6.402   3.848
17752WAT      O53497   9.807   7.959   6.329
17752WAT     H153498   9.863   8.016   6.269
17752WAT     H253499   9.809   7.865   6.297
17753WAT      O53500   6.169   0.769   7.562
17753WAT     H153501   6.077   0.758   7.525
17753WAT     H253502   6.236   0.749   7.491
17754WAT      O53503   2.084   4.300   0.310
17754WAT     H153504   2.001   4.316   0.257
17754WAT     H253505   2.163   4.335   0.260
17755WAT      O53506   6.638   4.519   6.710
17755WAT     H153507   6.612   4.602   6.760
17755WAT     H253508   6.616   4.532   6.613
17756WAT      O53509   0.138   3.065   9.331
17756WAT     H153510   0.176   2.975   9.309
17756WAT     H253511   0.147   3.125   9.252
17757WAT      O53512   2.059   0.174   7.761
17757WAT     H153513   2.041   0.076   7.771
17757WAT     H253514   2.121   0.204   7.833
17758WAT      O53515   0.130   6.874   6.223
17758WAT     H153516   0.144   6.964   6.264
17758WAT     H253517   0.119   6.806   6.295
17759WAT      O53518   4.107   0.717   8.367
17759WAT     H153519   4.122   0.627   8.327
17759WAT     H253520   4.013   0.747   8.349
17760WAT      O53521   0.529   6.726   2.040
17760WAT     H153522   0.580   6.707   1.956
17760WAT     H253523   0.579   6.791   2.096
17761WAT      O53524   0.746   6.210   3.712
17761WAT     H153525   0.662   6.170   3.750
17761WAT     H253526   0.738   6.309   3.710
17762WAT      O53527   8.469   3.937   0.965
17762WAT     H153528   8.553   3.981   0.934
17762WAT     H253529   8.400   4.007   0.982
17763WAT      O53530   4.766   8.207   2.429
17763WAT     H153531   4.741   8.117   2.393
17763WAT     H253532   4.852   8.200   2.479
17764WAT      O53533   9.549   3.966   2.072
17764WAT     H153534   9.641   4.005   2.069
17764WAT     H253535   9.544   3.900   2.148
17765WAT      O53536   0.725   6.562   7.257
17765WAT     H153537   0.678   6.639   7.301
17765WAT     H253538   0.729   6.577   7.158
17766WAT      O53539   5.961   2.557   8.388
17766WAT     H153540   5.905   2.632   8.424
17766WAT     H253541   5.923   2.528   8.300
17767WAT      O53542   6.428   2.028   8.209
17767WAT     H153543   6.516   2.040   8.163
17767WAT     H253544   6.362   2.094   8.173
17768WAT      O53545   4.365   0.992   4.518
17768WAT     H153546   4.314   1.003   4.433
17768WAT     H253547   4.321   1.045   4.591
17769WAT      O53548   4.483   7.956   1.602
17769WAT     H153549   4.417   8.013   1.553
17769WAT     H253550   4.576   7.985   1.578
17770WAT      O53551   6.318   2.440   7.043
17770WAT     H153552   6.306   2.512   7.111
17770WAT     H253553   6.407   2.396   7.056
17771WAT      O53554   2.414   0.759   6.941
17771WAT     H153555   2.370   0.671   6.925
17771WAT     H253556   2.457   0.791   6.857
17772WAT      O53557   5.219   3.760   6.153
17772WAT     H153558   5.152   3.737   6.083
17772WAT     H253559   5.194   3.845   6.198
17773WAT      O53560   4.335   0.710   3.242
17773WAT     H153561   4.351   0.642   3.171
17773WAT     H253562   4.270   0.779   3.209
17774WAT      O53563   9.780   1.307   8.220
17774WAT     H153564   9.823   1.369   8.286
17774WAT     H253565   9.681   1.320   8.223
17775WAT      O53566   5.902   2.652   1.564
17775WAT     H153567   5.931   2.747   1.560
17775WAT     H253568   5.944   2.607   1.643
17776WAT      O53569   9.512   5.279   3.934
17776WAT     H153570   9.540   5.374   3.920
17776WAT     H253571   9.488   5.238   3.846
17777WAT      O53572   9.212   6.930   1.176
17777WAT     H153573   9.136   6.887   1.128
17777WAT     H253574   9.269   6.860   1.217
17778WAT      O53575   6.556   7.082   8.541
17778WAT     H153576   6.581   7.166   8.492
17778WAT     H253577   6.574   7.095   8.639
17779WAT      O53578   8.059   2.278   7.621
17779WAT     H153579   8.034   2.329   7.539
17779WAT     H253580   8.158   2.270   7.626
17780WAT      O53581   4.370   6.173   2.759
17780WAT     H153582   4.417   6.169   2.671
17780WAT     H253583   4.415   6.241   2.818
17781WAT      O53584   3.534   7.802   0.776
17781WAT     H153585   3.576   7.717   0.808
17781WAT     H253586   3.437   7.802   0.800
17782WAT      O53587   7.040   9.313   9.799
17782WAT     H153588   7.042   9.230   9.853
17782WAT     H253589   6.955   9.363   9.817
17783WAT      O53590   2.237   2.405   7.965
17783WAT     H153591   2.244   2.471   7.891
17783WAT     H253592   2.275   2.444   8.049
17784WAT      O53593   3.809   4.074   2.952
17784WAT     H153594   3.855   4.064   3.040
17784WAT     H253595   3.854   4.145   2.898
17785WAT      O53596   6.207   3.698   8.862
17785WAT     H153597   6.189   3.734   8.953
17785WAT     H253598   6.140   3.736   8.798
17786WAT      O53599   8.965   4.712   7.161
17786WAT     H153600   8.896   4.683   7.227
17786WAT     H253601   8.944   4.672   7.072
17787WAT      O53602   8.699   5.357   5.272
17787WAT     H153603   8.647   5.271   5.264
17787WAT     H253604   8.703   5.401   5.182
17788WAT      O53605   4.429   6.188   9.252
17788WAT     H153606   4.475   6.167   9.338
17788WAT     H253607   4.370   6.267   9.263
17789WAT      O53608   5.740   7.107   1.683
17789WAT     H153609   5.831   7.075   1.710
17789WAT     H253610   5.749   7.176   1.611
17790WAT      O53611   5.447   2.420   0.001
17790WAT     H153612   5.431   2.454   0.093
17790WAT     H253613   5.468   2.497  -0.060
17791WAT      O53614   5.949   1.203   4.349
17791WAT     H153615   6.004   1.265   4.291
17791WAT     H253616   6.007   1.167   4.422
17792WAT      O53617   9.609   4.995   8.783
17792WAT     H153618   9.612   4.916   8.722
17792WAT     H253619   9.592   5.078   8.731
17793WAT      O53620   7.956   7.800   8.617
17793WAT     H153621   7.918   7.753   8.538
17793WAT     H253622   8.055   7.798   8.613
17794WAT      O53623   0.359   3.313   9.657
17794WAT     H153624   0.421   3.290   9.732
17794WAT     H253625   0.299   3.388   9.685
17795WAT      O53626   8.766   1.472   5.008
17795WAT     H153627   8.790   1.406   4.938
17795WAT     H253628   8.670   1.461   5.034
17796WAT      O53629   7.636   0.229   2.167
17796WAT     H153630   7.735   0.211   2.167
17796WAT     H253631   7.612   0.288   2.091
17797WAT      O53632   8.689   2.385   9.258
17797WAT     H153633   8.669   2.477   9.291
17797WAT     H253634   8.788   2.376   9.241
17798WAT      O53635   3.987   1.205   0.753
17798WAT     H153636   3.992   1.278   0.685
17798WAT     H253637   3.904   1.216   0.808
17799WAT      O53638   9.144   6.029   4.713
17799WAT     H153639   9.228   6.043   4.765
17799WAT     H253640   9.163   6.031   4.615
17800WAT      O53641   7.610   2.807   2.067
17800WAT     H153642   7.575   2.899   2.086
17800WAT     H253643   7.679   2.811   1.994
17801WAT      O53644   8.222   3.939   5.188
17801WAT     H153645   8.195   3.881   5.111
17801WAT     H253646   8.144   3.995   5.217
17802WAT      O53647   3.895   1.808   6.268
17802WAT     H153648   3.855   1.726   6.311
17802WAT     H253649   3.834   1.839   6.195
17803WAT      O53650   4.885   7.293   4.315
17803WAT     H153651   4.829   7.217   4.284
17803WAT     H253652   4.977   7.286   4.275
17804WAT      O53653   8.788   1.010   3.268
17804WAT     H153654   8.879   0.994   3.230
17804WAT     H253655   8.742   0.922   3.283
17805WAT      O53656   4.102   5.259   7.150
17805WAT     H153657   4.091   5.314   7.232
17805WAT     H253658   4.082   5.315   7.069
17806WAT      O53659   0.313   1.797   0.478
17806WAT     H153660   0.353   1.860   0.412
17806WAT     H253661   0.248   1.846   0.537
17807WAT      O53662   3.118   3.164   2.417
17807WAT     H153663   3.134   3.100   2.493
17807WAT     H253664   3.167   3.132   2.336
17808WAT      O53665   1.621   5.562   9.580
17808WAT     H153666   1.593   5.620   9.656
17808WAT     H253667   1.632   5.618   9.497
17809WAT      O53668   0.654   7.099   1.343
17809WAT     H153669   0.647   7.134   1.250
17809WAT     H253670   0.750   7.096   1.370
17810WAT      O53671   3.845   9.023   5.108
17810WAT     H153672   3.793   9.067   5.181
17810WAT     H253673   3.923   8.974   5.148
17811WAT      O53674   4.373   8.502   0.019
17811WAT     H153675   4.335   8.593   0.038
17811WAT     H253676   4.414   8.465   0.102
17812WAT      O53677   8.468   6.098   7.252
17812WAT     H153678   8.501   6.174   7.308
17812WAT     H253679   8.436   6.024   7.311
17813WAT      O53680   2.668   2.801   7.565
17813WAT     H153681   2.641   2.704   7.561
17813WAT     H253682   2.702   2.829   7.475
17814WAT      O53683   0.149   3.744   4.815
17814WAT     H153684   0.125   3.661   4.865
17814WAT     H253685   0.238   3.733   4.772
17815WAT      O53686   7.117   2.048   3.037
17815WAT     H153687   7.162   2.063   2.949
17815WAT     H253688   7.159   2.106   3.106
17816WAT      O53689   0.419   0.741   9.311
17816WAT     H153690   0.436   0.653   9.267
17816WAT     H253691   0.461   0.814   9.257
17817WAT      O53692   4.876   2.007   2.402
17817WAT     H153693   4.881   1.937   2.474
17817WAT     H253694   4.909   2.094   2.439
17818WAT      O53695   9.482   7.811   7.847
17818WAT     H153696   9.470   7.799   7.749
17818WAT     H253697   9.425   7.886   7.879
17819WAT      O53698   6.971   2.091   4.389
17819WAT     H153699   7.062   2.054   4.371
17819WAT     H253700   6.902   2.022   4.370
17820WAT      O53701   1.241   6.205   5.887
17820WAT     H153702   1.145   6.203   5.860
17820WAT     H253703   1.254   6.269   5.963
17821WAT      O53704   3.671   3.423   0.775
17821WAT     H153705   3.618   3.453   0.854
17821WAT     H253706   3.755   3.476   0.769
17822WAT      O53707   7.133   1.889   6.005
17822WAT     H153708   7.218   1.846   5.977
17822WAT     H253709   7.132   1.899   6.105
17823WAT      O53710   5.277   8.699   0.246
17823WAT     H153711   5.293   8.770   0.177
17823WAT     H253712   5.213   8.734   0.314
17824WAT      O53713   4.455   2.047   5.659
17824WAT     H153714   4.437   2.055   5.757
17824WAT     H253715   4.494   2.132   5.625
17825WAT      O53716   9.305   4.656   9.003
17825WAT     H153717   9.287   4.565   9.040
17825WAT     H253718   9.396   4.687   9.032
17826WAT      O53719   0.858   4.946   4.019
17826WAT     H153720   0.814   4.943   4.108
17826WAT     H253721   0.796   4.909   3.950
17827WAT      O53722   4.013   4.638   6.290
17827WAT     H153723   3.971   4.696   6.360
17827WAT     H253724   4.003   4.681   6.201
17828WAT      O53725   9.433   4.821   9.341
17828WAT     H153726   9.444   4.859   9.249
17828WAT     H253727   9.468   4.727   9.343
17829WAT      O53728   3.607   8.033   3.958
17829WAT     H153729   3.568   8.002   4.045
17829WAT     H253730   3.607   8.133   3.955
17830WAT      O53731   3.515   9.514   6.053
17830WAT     H153732   3.449   9.439   6.060
17830WAT     H253733   3.528   9.556   6.142
17831WAT      O53734   7.137   1.994   7.756
17831WAT     H153735   7.194   1.936   7.699
17831WAT     H253736   7.123   2.082   7.710
17832WAT      O53737   9.229   2.179   5.519
17832WAT     H153738   9.209   2.092   5.565
17832WAT     H253739   9.244   2.162   5.422
17833WAT      O53740   8.478   3.772   9.339
17833WAT     H153741   8.494   3.681   9.302
17833WAT     H253742   8.501   3.841   9.270
17834WAT      O53743   2.150   7.249   1.347
17834WAT     H153744   2.184   7.267   1.255
17834WAT     H253745   2.052   7.268   1.351
17835WAT      O53746   8.078   9.615   5.665
17835WAT     H153747   8.123   9.624   5.753
17835WAT     H253748   8.032   9.701   5.642
17836WAT      O53749   6.410   3.722   3.698
17836WAT     H153750   6.338   3.786   3.727
17836WAT     H253751   6.496   3.746   3.744
17837WAT      O53752   6.692   4.155   9.143
17837WAT     H153753   6.661   4.237   9.094
17837WAT     H253754   6.631   4.138   9.220
17838WAT      O53755   1.494   2.444   3.285
17838WAT     H153756   1.413   2.416   3.233
17838WAT     H253757   1.475   2.437   3.383
17839WAT      O53758   3.706   6.762   6.540
17839WAT     H153759   3.740   6.690   6.600
17839WAT     H253760   3.682   6.723   6.451
17840WAT      O53761   4.048   6.613   0.646
17840WAT     H153762   3.984   6.576   0.714
17840WAT     H253763   4.021   6.582   0.555
17841WAT      O53764   6.455   7.826   9.139
17841WAT     H153765   6.375   7.867   9.096
17841WAT     H253766   6.511   7.780   9.070
17842WAT      O53767   3.785   3.668   1.969
17842WAT     H153768   3.861   3.647   1.907
17842WAT     H253769   3.707   3.700   1.916
17843WAT      O53770   3.773   8.285   3.411
17843WAT     H153771   3.861   8.238   3.409
17843WAT     H253772   3.705   8.230   3.363
17844WAT      O53773   6.927   5.888   5.958
17844WAT     H153774   6.902   5.974   6.001
17844WAT     H253775   6.856   5.862   5.892
17845WAT      O53776   1.733   6.536   5.323
17845WAT     H153777   1.636   6.559   5.329
17845WAT     H253778   1.760   6.533   5.226
17846WAT      O53779   3.469   9.822   0.935
17846WAT     H153780   3.452   9.900   0.996
17846WAT     H253781   3.567   9.812   0.919
17847WAT      O53782   5.793   5.746   3.862
17847WAT     H153783   5.851   5.789   3.792
17847WAT     H253784   5.715   5.702   3.819
17848WAT      O53785   1.044   6.556   5.165
17848WAT     H153786   1.093   6.483   5.116
17848WAT     H253787   1.075   6.645   5.131
17849WAT      O53788   9.029   5.525   0.485
17849WAT     H153789   9.102   5.471   0.444
17849WAT     H253790   8.960   5.464   0.524
17850WAT      O53791   8.519   8.063   4.698
17850WAT     H153792   8.509   7.975   4.744
17850WAT     H253793   8.609   8.069   4.656
17851WAT      O53794   6.655   4.788   9.329
17851WAT     H153795   6.666   4.689   9.335
17851WAT     H253796   6.559   4.809   9.307
17852WAT      O53797   2.133   0.910   3.416
17852WAT     H153798   2.108   0.942   3.324
17852WAT     H253799   2.218   0.858   3.411
17853WAT      O53800   0.806   3.320   4.599
17853WAT     H153801   0.855   3.376   4.532
17853WAT     H253802   0.861   3.240   4.622
17854WAT      O53803   9.288   2.374   2.408
17854WAT     H153804   9.300   2.379   2.507
17854WAT     H253805   9.369   2.412   2.362
17855WAT      O53806   0.090   0.581   7.509
17855WAT     H153807   0.004   0.546   7.546
17855WAT     H253808   0.166   0.552   7.568
17856WAT      O53809   7.482   0.391   4.479
17856WAT     H153810   7.485   0.427   4.573
17856WAT     H253811   7.418   0.315   4.475
17857WAT      O53812   6.993   5.600   6.406
17857WAT     H153813   7.078   5.587   6.355
17857WAT     H253814   6.944   5.679   6.369
17858WAT      O53815   2.919   2.275   5.980
17858WAT     H153816   2.823   2.303   5.991
17858WAT     H253817   2.923   2.191   5.926
17859WAT      O53818   6.321   1.846   4.627
17859WAT     H153819   6.290   1.854   4.722
17859WAT     H253820   6.245   1.867   4.566
17860WAT      O53821   9.636   6.974   5.826
17860WAT     H153822   9.653   6.968   5.728
17860WAT     H253823   9.683   6.898   5.872
17861WAT      O53824   3.688   7.648   9.198
17861WAT     H153825   3.682   7.747   9.185
17861WAT     H253826   3.632   7.621   9.276
17862WAT      O53827   5.276   0.322   1.274
17862WAT     H153828   5.209   0.298   1.203
17862WAT     H253829   5.292   0.420   1.274
17863WAT      O53830   7.463   9.182   9.060
17863WAT     H153831   7.453   9.236   9.143
17863WAT     H253832   7.462   9.084   9.083
17864WAT      O53833   6.159   0.259   4.941
17864WAT     H153834   6.110   0.268   5.027
17864WAT     H253835   6.226   0.185   4.948
17865WAT      O53836   2.100   4.539   8.369
17865WAT     H153837   2.145   4.626   8.388
17865WAT     H253838   2.016   4.532   8.423
17866WAT      O53839   3.747   4.739   5.519
17866WAT     H153840   3.794   4.714   5.604
17866WAT     H253841   3.794   4.818   5.477
17867WAT      O53842   4.056   4.716   2.267
17867WAT     H153843   4.078   4.627   2.226
17867WAT     H253844   4.124   4.784   2.240
17868WAT      O53845   4.209   1.406   4.664
17868WAT     H153846   4.267   1.464   4.606
17868WAT     H253847   4.211   1.440   4.758
17869WAT      O53848   7.405   7.240   0.419
17869WAT     H153849   7.486   7.285   0.385
17869WAT     H253850   7.407   7.143   0.395
17870WAT      O53851   8.873   6.021   6.504
17870WAT     H153852   8.845   6.106   6.549
17870WAT     H253853   8.844   5.943   6.558
17871WAT      O53854   0.839   1.374   8.799
17871WAT     H153855   0.750   1.369   8.845
17871WAT     H253856   0.864   1.470   8.788
17872WAT      O53857   6.626   6.024   9.298
17872WAT     H153858   6.704   6.081   9.324
17872WAT     H253859   6.624   5.942   9.356
17873WAT      O53860   0.672   7.520   8.310
17873WAT     H153861   0.710   7.605   8.274
17873WAT     H253862   0.696   7.511   8.406
17874WAT      O53863   3.491   4.102   9.738
17874WAT     H153864   3.532   4.017   9.705
17874WAT     H253865   3.506   4.111   9.837
17875WAT      O53866   9.502   2.354   7.479
17875WAT     H153867   9.576   2.386   7.538
17875WAT     H253868   9.429   2.422   7.476
17876WAT      O53869   5.595   0.517   2.280
17876WAT     H153870   5.568   0.613   2.295
17876WAT     H253871   5.522   0.457   2.313
17877WAT      O53872   8.095   6.933   6.920
17877WAT     H153873   8.103   6.974   6.829
17877WAT     H253874   8.044   6.996   6.980
17878WAT      O53875   3.115   3.494   6.240
17878WAT     H153876   3.170   3.560   6.291
17878WAT     H253877   3.131   3.505   6.142
17879WAT      O53878   5.991   4.281   8.991
17879WAT     H153879   5.949   4.349   8.932
17879WAT     H253880   6.016   4.201   8.937
17880WAT      O53881   5.527   1.443   4.336
17880WAT     H153882   5.435   1.410   4.356
17880WAT     H253883   5.591   1.405   4.403
17881WAT      O53884   1.393   4.818   9.848
17881WAT     H153885   1.301   4.840   9.881
17881WAT     H253886   1.398   4.836   9.750
17882WAT      O53887   6.703   8.959   5.203
17882WAT     H153888   6.710   8.893   5.128
17882WAT     H253889   6.721   8.914   5.290
17883WAT      O53890   3.876   6.262   6.651
17883WAT     H153891   3.845   6.256   6.746
17883WAT     H253892   3.855   6.176   6.604
17884WAT      O53893   3.515   7.812   6.054
17884WAT     H153894   3.476   7.903   6.047
17884WAT     H253895   3.494   7.759   5.972
17885WAT      O53896   9.377   8.987   1.952
17885WAT     H153897   9.399   9.055   1.882
17885WAT     H253898   9.357   9.033   2.038
17886WAT      O53899   7.310   4.209   2.635
17886WAT     H153900   7.303   4.115   2.667
17886WAT     H253901   7.378   4.258   2.689
17887WAT      O53902   3.111   9.147   3.519
17887WAT     H153903   3.015   9.164   3.498
17887WAT     H253904   3.135   9.191   3.605
17888WAT      O53905   0.106   9.277   6.698
17888WAT     H153906   0.027   9.323   6.658
17888WAT     H253907   0.086   9.255   6.794
17889WAT      O53908   4.190   2.684   2.056
17889WAT     H153909   4.102   2.728   2.037
17889WAT     H253910   4.264   2.745   2.026
17890WAT      O53911   4.981   9.215   8.053
17890WAT     H153912   4.907   9.251   8.110
17890WAT     H253913   4.943   9.181   7.967
17891WAT      O53914   2.556   9.503   4.284
17891WAT     H153915   2.613   9.457   4.216
17891WAT     H253916   2.465   9.461   4.285
17892WAT      O53917   9.195   3.189   6.713
17892WAT     H153918   9.185   3.168   6.615
17892WAT     H253919   9.285   3.230   6.729
17893WAT      O53920   5.809   7.978   4.695
17893WAT     H153921   5.857   8.050   4.744
17893WAT     H253922   5.867   7.944   4.621
17894WAT      O53923   5.017   0.931   6.163
17894WAT     H153924   5.094   0.937   6.226
17894WAT     H253925   4.958   0.854   6.189
17895WAT      O53926   8.532   9.738   4.354
17895WAT     H153927   8.630   9.726   4.334
17895WAT     H253928   8.483   9.756   4.269
17896WAT      O53929   7.802   0.715   9.120
17896WAT     H153930   7.741   0.665   9.059
17896WAT     H253931   7.897   0.701   9.090
17897WAT      O53932   8.791   2.659   1.276
17897WAT     H153933   8.875   2.648   1.329
17897WAT     H253934   8.724   2.707   1.332
17898WAT      O53935   6.248   9.215   6.685
17898WAT     H153936   6.287   9.194   6.774
17898WAT     H253937   6.239   9.314   6.675
17899WAT      O53938   2.158   4.845   8.832
17899WAT     H153939   2.196   4.753   8.840
17899WAT     H253940   2.149   4.886   8.923
17900WAT      O53941   4.714   0.243   3.411
17900WAT     H153942   4.786   0.309   3.436
17900WAT     H253943   4.628   0.292   3.397
17901WAT      O53944   3.986   1.064   1.749
17901WAT     H153945   3.948   0.994   1.687
17901WAT     H253946   3.912   1.124   1.780
17902WAT      O53947   6.252   3.982   5.757
17902WAT     H153948   6.290   4.054   5.698
17902WAT     H253949   6.325   3.922   5.787
17903WAT      O53950   1.274   1.348   2.451
17903WAT     H153951   1.236   1.310   2.535
17903WAT     H253952   1.217   1.424   2.420
17904WAT      O53953   7.877   7.874   7.825
17904WAT     H153954   7.900   7.821   7.744
17904WAT     H253955   7.791   7.923   7.810
17905WAT      O53956   5.195   9.291   7.898
17905WAT     H153957   5.201   9.202   7.852
17905WAT     H253958   5.137   9.283   7.979
17906WAT      O53959   0.046   2.401   0.819
17906WAT     H153960   0.140   2.425   0.842
17906WAT     H253961   0.045   2.313   0.771
17907WAT      O53962   0.931   2.079   0.233
17907WAT     H153963   0.842   2.097   0.192
17907WAT     H253964   0.930   2.107   0.329
17908WAT      O53965   7.909   1.818   8.230
17908WAT     H153966   7.821   1.842   8.272
17908WAT     H253967   7.961   1.901   8.211
17909WAT      O53968   7.488   3.432   9.693
17909WAT     H153969   7.524   3.369   9.625
17909WAT     H253970   7.563   3.464   9.752
17910WAT      O53971   4.457   3.473   0.555
17910WAT     H153972   4.473   3.385   0.511
17910WAT     H253973   4.490   3.547   0.496
17911WAT      O53974   6.660   9.336   6.220
17911WAT     H153975   6.645   9.320   6.123
17911WAT     H253976   6.680   9.432   6.237
17912WAT      O53977   1.492   3.845   3.714
17912WAT     H153978   1.474   3.747   3.709
17912WAT     H253979   1.421   3.896   3.665
17913WAT      O53980   5.854   8.807   7.626
17913WAT     H153981   5.790   8.834   7.698
17913WAT     H253982   5.806   8.807   7.538
17914WAT      O53983   8.232   1.140   4.993
17914WAT     H153984   8.200   1.234   5.001
17914WAT     H253985   8.327   1.135   5.023
17915WAT      O53986   3.801   4.601   5.764
17915WAT     H153987   3.744   4.534   5.812
17915WAT     H253988   3.895   4.597   5.800
17916WAT      O53989   6.188   1.717   1.982
17916WAT     H153990   6.261   1.750   1.922
17916WAT     H253991   6.219   1.634   2.030
17917WAT      O53992   8.258   2.235   2.952
17917WAT     H153993   8.182   2.296   2.931
17917WAT     H253994   8.325   2.239   2.878
17918WAT      O53995   8.953   2.392   3.014
17918WAT     H153996   9.025   2.448   3.056
17918WAT     H253997   8.995   2.317   2.964
17919WAT      O53998   3.221   7.467   4.096
17919WAT     H153999   3.140   7.453   4.153
17919WAT     H254000   3.228   7.394   4.028
17920WAT      O54001   9.509   1.918   0.015
17920WAT     H154002   9.495   1.832   0.064
17920WAT     H254003   9.523   1.992   0.080
17921WAT      O54004   6.376   4.727   2.135
17921WAT     H154005   6.339   4.817   2.108
17921WAT     H254006   6.464   4.713   2.092
17922WAT      O54007   3.001   2.860   4.493
17922WAT     H154008   3.072   2.877   4.425
17922WAT     H254009   2.995   2.762   4.512
17923WAT      O54010   1.874   5.276   8.485
17923WAT     H154011   1.929   5.225   8.419
17923WAT     H254012   1.931   5.344   8.530
17924WAT      O54013   5.349   5.883   0.132
17924WAT     H154014   5.311   5.865   0.041
17924WAT     H254015   5.433   5.937   0.123
17925WAT      O54016   6.563   4.346   8.990
17925WAT     H154017   6.504   4.265   8.982
17925WAT     H254018   6.510   4.424   9.021
17926WAT      O54019   4.106   5.097   6.137
17926WAT     H154020   4.009   5.116   6.155
17926WAT     H254021   4.150   5.180   6.104
17927WAT      O54022   5.409   6.562   3.310
17927WAT     H154023   5.458   6.496   3.253
17927WAT     H254024   5.331   6.517   3.353
17928WAT      O54025   8.163   2.121   3.629
17928WAT     H154026   8.190   2.200   3.574
17928WAT     H254027   8.185   2.138   3.725
17929WAT      O54028   0.646   4.696   2.545
17929WAT     H154029   0.552   4.717   2.517
17929WAT     H254030   0.652   4.600   2.571
17930WAT      O54031   9.644   6.847   0.227
17930WAT     H154032   9.578   6.830   0.153
17930WAT     H254033   9.601   6.827   0.315
17931WAT      O54034   6.608   2.975   5.110
17931WAT     H154035   6.588   3.057   5.057
17931WAT     H254036   6.704   2.975   5.138
17932WAT      O54037   8.212   2.406   6.799
17932WAT     H154038   8.166   2.339   6.740
17932WAT     H254039   8.252   2.478   6.743
17933WAT      O54040   6.035   7.178   0.182
17933WAT     H154041   5.963   7.161   0.114
17933WAT     H254042   6.043   7.099   0.242
17934WAT      O54043   9.706   2.691   0.153
17934WAT     H154044   9.763   2.612   0.129
17934WAT     H254045   9.760   2.775   0.144
17935WAT      O54046   8.706   2.364   0.606
17935WAT     H154047   8.671   2.288   0.552
17935WAT     H254048   8.665   2.449   0.575
17936WAT      O54049   4.412   3.037   9.193
17936WAT     H154050   4.506   3.023   9.160
17936WAT     H254051   4.353   2.966   9.155
17937WAT      O54052   9.307   0.896   5.446
17937WAT     H154053   9.245   0.955   5.395
17937WAT     H254054   9.320   0.810   5.397
17938WAT      O54055   5.097   3.705   8.153
17938WAT     H154056   5.171   3.739   8.095
17938WAT     H254057   5.134   3.639   8.219
17939WAT      O54058   2.737   6.611   6.029
17939WAT     H154059   2.825   6.655   6.010
17939WAT     H254060   2.676   6.623   5.951
17940WAT      O54061   4.894   0.310   8.307
17940WAT     H154062   4.802   0.346   8.295
17940WAT     H254063   4.945   0.318   8.222
17941WAT      O54064   6.127   1.241   6.297
17941WAT     H154065   6.174   1.153   6.299
17941WAT     H254066   6.138   1.286   6.386
17942WAT      O54067   7.704   5.905   8.107
17942WAT     H154068   7.740   5.964   8.179
17942WAT     H254069   7.630   5.951   8.059
17943WAT      O54070   8.967   5.476   9.784
17943WAT     H154071   8.953   5.488   9.685
17943WAT     H254072   9.028   5.548   9.818
17944WAT      O54073   6.330   5.236   3.328
17944WAT     H154074   6.244   5.228   3.378
17944WAT     H254075   6.392   5.162   3.357
17945WAT      O54076   6.857   6.323   8.527
17945WAT     H154077   6.884   6.256   8.597
17945WAT     H254078   6.853   6.278   8.438
17946WAT      O54079   2.511   3.802   8.285
17946WAT     H154080   2.537   3.894   8.315
17946WAT     H254081   2.579   3.767   8.221
17947WAT      O54082   4.991   7.899   2.335
17947WAT     H154083   5.005   7.812   2.288
17947WAT     H254084   5.076   7.926   2.380
17948WAT      O54085   7.362   3.761   2.400
17948WAT     H154086   7.443   3.734   2.348
17948WAT     H254087   7.383   3.757   2.498
17949WAT      O54088   4.745   1.303   5.537
17949WAT     H154089   4.701   1.392   5.546
17949WAT     H254090   4.844   1.315   5.530
17950WAT      O54091   5.587   8.051   6.647
17950WAT     H154092   5.522   7.988   6.603
17950WAT     H254093   5.680   8.021   6.627
17951WAT      O54094   9.234   4.758   4.140
17951WAT     H154095   9.166   4.689   4.164
17951WAT     H254096   9.226   4.780   4.043
17952WAT      O54097   0.188   4.720   4.051
17952WAT     H154098   0.120   4.685   3.988
17952WAT     H254099   0.219   4.646   4.111
17953WAT      O54100   4.225   1.029   4.265
17953WAT     H154101   4.176   0.954   4.310
17953WAT     H254102   4.224   1.015   4.166
17954WAT      O54103   6.506   8.862   1.713
17954WAT     H154104   6.547   8.913   1.789
17954WAT     H254105   6.476   8.772   1.745
17955WAT      O54106   7.229   7.927   0.187
17955WAT     H154107   7.188   7.872   0.259
17955WAT     H254108   7.268   7.867   0.117
17956WAT      O54109   6.792   3.230   2.862
17956WAT     H154110   6.835   3.149   2.823
17956WAT     H254111   6.717   3.203   2.922
17957WAT      O54112   6.964   4.826   1.514
17957WAT     H154113   6.986   4.918   1.548
17957WAT     H254114   7.020   4.807   1.434
17958WAT      O54115   8.179   1.503   2.573
17958WAT     H154116   8.179   1.425   2.635
17958WAT     H254117   8.265   1.553   2.583
17959WAT      O54118   6.947   3.713   9.722
17959WAT     H154119   6.993   3.635   9.766
17959WAT     H254120   6.935   3.786   9.789
17960WAT      O54121   7.798   7.534   0.101
17960WAT     H154122   7.721   7.560   0.160
17960WAT     H254123   7.772   7.548   0.005
17961WAT      O54124   8.501   7.396   7.106
17961WAT     H154125   8.459   7.375   7.194
17961WAT     H254126   8.521   7.310   7.057
17962WAT      O54127   3.365   2.225   0.282
17962WAT     H154128   3.415   2.254   0.201
17962WAT     H254129   3.273   2.198   0.256
17963WAT      O54130   9.368   7.853   4.620
17963WAT     H154131   9.433   7.929   4.619
17963WAT     H254132   9.398   7.783   4.554
17964WAT      O54133   3.726   2.958   8.196
17964WAT     H154134   3.784   3.037   8.176
17964WAT     H254135   3.700   2.913   8.110
17965WAT      O54136   3.719   3.530   1.611
17965WAT     H154137   3.663   3.576   1.542
17965WAT     H254138   3.792   3.480   1.566
17966WAT      O54139   9.112   3.025   8.983
17966WAT     H154140   9.166   2.945   8.957
17966WAT     H254141   9.173   3.099   9.010
17967WAT      O54142   7.395   5.141   7.206
17967WAT     H154143   7.376   5.132   7.108
17967WAT     H254144   7.403   5.051   7.247
17968WAT      O54145   9.453   3.292   6.722
17968WAT     H154146   9.528   3.225   6.719
17968WAT     H254147   9.415   3.296   6.814
17969WAT      O54148   7.049   2.110   8.003
17969WAT     H154149   7.072   2.062   7.918
17969WAT     H254150   6.978   2.178   7.984
17970WAT      O54151   1.360   0.257   9.110
17970WAT     H154152   1.389   0.229   9.201
17970WAT     H254153   1.263   0.280   9.111
17971WAT      O54154   8.881   4.200   2.398
17971WAT     H154155   8.950   4.211   2.325
17971WAT     H254156   8.853   4.104   2.402
17972WAT      O54157   0.987   1.718   7.329
17972WAT     H154158   1.078   1.705   7.289
17972WAT     H254159   0.937   1.632   7.326
17973WAT      O54160   7.823   0.912   5.520
17973WAT     H154161   7.777   0.830   5.555
17973WAT     H254162   7.798   0.926   5.424
17974WAT      O54163   7.779   6.059   1.694
17974WAT     H154164   7.839   6.078   1.615
17974WAT     H254165   7.701   6.005   1.663
17975WAT      O54166   0.193   8.684   8.521
17975WAT     H154167   0.217   8.629   8.442
17975WAT     H254168   0.214   8.633   8.605
17976WAT      O54169   6.645   0.032   6.300
17976WAT     H154170   6.705   0.043   6.379
17976WAT     H254171   6.676   0.092   6.226
17977WAT      O54172   0.654   1.019   9.690
17977WAT     H154173   0.582   0.949   9.697
17977WAT     H254174   0.718   0.993   9.617
17978WAT      O54175   4.192   8.164   5.218
17978WAT     H154176   4.101   8.203   5.231
17978WAT     H254177   4.186   8.064   5.219
17979WAT      O54178   8.500   2.150   6.639
17979WAT     H154179   8.506   2.249   6.653
17979WAT     H254180   8.547   2.126   6.554
17980WAT      O54181   2.836   7.764   8.273
17980WAT     H154182   2.910   7.742   8.337
17980WAT     H254183   2.821   7.687   8.211
17981WAT      O54184   1.177   7.616   3.459
17981WAT     H154185   1.134   7.526   3.451
17981WAT     H254186   1.129   7.681   3.400
17982WAT      O54187   8.728   1.278   3.348
17982WAT     H154188   8.791   1.344   3.307
17982WAT     H254189   8.751   1.186   3.316
17983WAT      O54190   2.321   7.933   5.723
17983WAT     H154191   2.395   7.978   5.774
17983WAT     H254192   2.360   7.883   5.646
17984WAT      O54193   8.192   5.135   4.479
17984WAT     H154194   8.124   5.158   4.409
17984WAT     H254195   8.283   5.158   4.445
17985WAT      O54196   9.612   1.903   7.065
17985WAT     H154197   9.671   1.984   7.060
17985WAT     H254198   9.642   1.846   7.142
17986WAT      O54199   9.034   1.514   0.956
17986WAT     H154200   9.119   1.489   1.002
17986WAT     H254201   9.032   1.612   0.941
17987WAT      O54202   6.221   5.109   9.287
17987WAT     H154203   6.162   5.031   9.308
17987WAT     H254204   6.223   5.172   9.364
17988WAT      O54205   9.872   6.592   5.129
17988WAT     H154206   9.841   6.687   5.141
17988WAT     H254207   9.887   6.550   5.219
17989WAT      O54208   8.466   5.348   9.712
17989WAT     H154209   8.518   5.264   9.727
17989WAT     H254210   8.480   5.410   9.789
17990WAT      O54211   1.928   4.559   0.489
17990WAT     H154212   1.925   4.468   0.447
17990WAT     H254213   1.905   4.627   0.419
17991WAT      O54214   5.258   7.544   6.008
17991WAT     H154215   5.338   7.578   5.959
17991WAT     H254216   5.272   7.556   6.106
17992WAT      O54217   5.907   5.576   3.631
17992WAT     H154218   5.828   5.515   3.629
17992WAT     H254219   5.991   5.523   3.644
17993WAT      O54220   6.366   7.972   6.185
17993WAT     H154221   6.284   7.923   6.157
17993WAT     H254222   6.398   8.029   6.109
17994WAT      O54223   2.558   6.888   9.178
17994WAT     H154224   2.540   6.895   9.276
17994WAT     H254225   2.519   6.968   9.132
17995WAT      O54226   0.821   1.718   5.280
17995WAT     H154227   0.761   1.638   5.288
17995WAT     H254228   0.809   1.777   5.359
17996WAT      O54229   4.314   5.852   3.363
17996WAT     H154230   4.306   5.925   3.295
17996WAT     H254231   4.225   5.807   3.374
17997WAT      O54232   4.985   1.352   7.939
17997WAT     H154233   5.078   1.357   7.977
17997WAT     H254234   4.932   1.283   7.988
17998WAT      O54235   5.702   5.572   3.289
17998WAT     H154236   5.663   5.575   3.197
17998WAT     H254237   5.641   5.618   3.353
17999WAT      O54238   6.277   7.624   3.299
17999WAT     H154239   6.269   7.644   3.397
17999WAT     H254240   6.206   7.674   3.249
18000WAT      O54241   4.883   8.920   1.212
18000WAT     H154242   4.978   8.913   1.181
18000WAT     H254243   4.822   8.891   1.138
18001WAT      O54244   8.226   9.019   4.929
18001WAT     H154245   8.252   8.988   4.838
18001WAT     H254246   8.285   9.095   4.956
18002WAT      O54247   6.664   0.479   0.767
18002WAT     H154248   6.632   0.400   0.715
18002WAT     H254249   6.666   0.560   0.707
18003WAT      O54250   1.108   1.346   6.539
18003WAT     H154251   1.179   1.416   6.546
18003WAT     H254252   1.018   1.390   6.542
18004WAT      O54253   5.463   6.314   9.192
18004WAT     H154254   5.370   6.303   9.159
18004WAT     H254255   5.492   6.230   9.238
18005WAT      O54256   6.842   7.990   8.462
18005WAT     H154257   6.936   8.013   8.440
18005WAT     H254258   6.839   7.939   8.548
18006WAT      O54259   8.720   8.066   6.435
18006WAT     H154260   8.721   8.149   6.379
18006WAT     H254261   8.778   7.996   6.392
18007WAT      O54262   8.808   7.707   8.900
18007WAT     H154263   8.784   7.613   8.928
18007WAT     H254264   8.726   7.753   8.865
18008WAT      O54265   5.925   3.778   2.129
18008WAT     H154266   5.990   3.702   2.124
18008WAT     H254267   5.957   3.845   2.196
18009WAT      O54268   2.189   8.697   1.157
18009WAT     H154269   2.267   8.638   1.179
18009WAT     H254270   2.137   8.658   1.081
18010WAT      O54271   6.677   9.558   0.806
18010WAT     H154272   6.732   9.503   0.743
18010WAT     H254273   6.594   9.507   0.830
18011WAT      O54274   8.375   4.295   6.533
18011WAT     H154275   8.448   4.226   6.525
18011WAT     H254276   8.334   4.310   6.443
18012WAT      O54277   7.813   9.843   2.621
18012WAT     H154278   7.725   9.812   2.585
18012WAT     H254279   7.868   9.881   2.547
18013WAT      O54280   6.144   8.171   4.133
18013WAT     H154281   6.138   8.145   4.036
18013WAT     H254282   6.086   8.251   4.149
18014WAT      O54283   7.511   3.746   8.425
18014WAT     H154284   7.605   3.722   8.451
18014WAT     H254285   7.447   3.695   8.481
18015WAT      O54286   4.080   5.474   7.321
18015WAT     H154287   3.981   5.482   7.310
18015WAT     H254288   4.124   5.561   7.299
18016WAT      O54289   4.280   8.500   6.970
18016WAT     H154290   4.231   8.435   6.912
18016WAT     H254291   4.363   8.456   7.005
18017WAT      O54292   3.138   1.782   4.547
18017WAT     H154293   3.150   1.699   4.602
18017WAT     H254294   3.160   1.862   4.602
18018WAT      O54295   7.237   8.855   0.034
18018WAT     H154296   7.169   8.927   0.040
18018WAT     H254297   7.280   8.840   0.123
18019WAT      O54298   1.007   3.310   3.910
18019WAT     H154299   1.091   3.355   3.942
18019WAT     H254300   0.962   3.264   3.987
18020WAT      O54301   1.986   0.816   5.915
18020WAT     H154302   1.977   0.730   5.966
18020WAT     H254303   1.936   0.809   5.829
18021WAT      O54304   8.910   2.028   2.366
18021WAT     H154305   8.918   2.025   2.266
18021WAT     H254306   8.845   2.099   2.392
18022WAT      O54307   5.486   6.964   4.646
18022WAT     H154308   5.431   6.903   4.703
18022WAT     H254309   5.576   6.977   4.689
18023WAT      O54310   4.867   0.731   4.593
18023WAT     H154311   4.816   0.678   4.661
18023WAT     H254312   4.875   0.826   4.623
18024WAT      O54313   1.086   7.816   3.319
18024WAT     H154314   1.085   7.912   3.292
18024WAT     H254315   1.004   7.771   3.285
18025WAT      O54316   8.045   5.813   1.218
18025WAT     H154317   8.049   5.714   1.221
18025WAT     H254318   7.956   5.844   1.250
18026WAT      O54319   6.518   9.732   5.331
18026WAT     H154320   6.532   9.750   5.234
18026WAT     H254321   6.607   9.725   5.377
18027WAT      O54322   9.860   1.549   0.171
18027WAT     H154323   9.815   1.602   0.244
18027WAT     H254324   9.867   1.606   0.089
18028WAT      O54325   9.241   9.185   1.636
18028WAT     H154326   9.332   9.212   1.667
18028WAT     H254327   9.181   9.171   1.715
18029WAT      O54328   2.966   2.817   2.263
18029WAT     H154329   2.950   2.725   2.228
18029WAT     H254330   3.055   2.850   2.232
18030WAT      O54331   1.950   8.847   8.809
18030WAT     H154332   1.885   8.800   8.749
18030WAT     H254333   1.904   8.921   8.857
18031WAT      O54334   0.500   3.431   1.246
18031WAT     H154335   0.582   3.455   1.194
18031WAT     H254336   0.450   3.360   1.198
18032WAT      O54337   3.311   4.640   0.112
18032WAT     H154338   3.233   4.702   0.113
18032WAT     H254339   3.395   4.693   0.119
18033WAT      O54340   4.561   4.307   3.359
18033WAT     H154341   4.471   4.286   3.397
18033WAT     H254342   4.616   4.224   3.356
18034WAT      O54343   2.363   5.242   8.394
18034WAT     H154344   2.379   5.233   8.295
18034WAT     H254345   2.438   5.198   8.444
18035WAT      O54346   4.283   9.658   7.723
18035WAT     H154347   4.304   9.577   7.778
18035WAT     H254348   4.189   9.653   7.690
18036WAT      O54349   4.715   4.820   8.195
18036WAT     H154350   4.626   4.832   8.151
18036WAT     H254351   4.704   4.826   8.294
18037WAT      O54352   3.985   1.071   9.627
18037WAT     H154353   4.080   1.075   9.594
18037WAT     H254354   3.984   1.046   9.724
18038WAT      O54355   6.936   5.297   0.940
18038WAT     H154356   6.998   5.360   0.893
18038WAT     H254357   6.908   5.338   1.027
18039WAT      O54358   2.162   6.771   0.367
18039WAT     H154359   2.238   6.832   0.389
18039WAT     H254360   2.105   6.758   0.448
18040WAT      O54361   3.242   5.563   7.516
18040WAT     H154362   3.292   5.536   7.434
18040WAT     H254363   3.145   5.541   7.504
18041WAT      O54364   9.157   7.511   6.947
18041WAT     H154365   9.186   7.543   6.856
18041WAT     H254366   9.176   7.582   7.015
18042WAT      O54367   0.869   2.070   9.149
18042WAT     H154368   0.851   2.110   9.239
18042WAT     H254369   0.911   2.139   9.090
18043WAT      O54370   3.170   7.671   7.023
18043WAT     H154371   3.160   7.738   7.097
18043WAT     H254372   3.080   7.640   6.993
18044WAT      O54373   1.860   1.296   9.210
18044WAT     H154374   1.937   1.240   9.240
18044WAT     H254375   1.890   1.391   9.197
18045WAT      O54376   1.545   3.821   4.275
18045WAT     H154377   1.633   3.849   4.314
18045WAT     H254378   1.478   3.895   4.288
18046WAT      O54379   7.218   0.248   8.786
18046WAT     H154380   7.251   0.342   8.773
18046WAT     H254381   7.209   0.204   8.697
18047WAT      O54382   9.659   2.274   4.084
18047WAT     H154383   9.611   2.298   4.168
18047WAT     H254384   9.757   2.264   4.103
18048WAT      O54385   8.598   2.880   3.806
18048WAT     H154386   8.596   2.895   3.905
18048WAT     H254387   8.584   2.783   3.787
18049WAT      O54388   1.912   8.195   8.675
18049WAT     H154389   1.947   8.117   8.726
18049WAT     H254390   1.923   8.278   8.730
18050WAT      O54391   3.693   1.051   9.038
18050WAT     H154392   3.782   1.050   9.085
18050WAT     H254393   3.685   1.135   8.984
18051WAT      O54394   0.766   9.744   7.524
18051WAT     H154395   0.687   9.691   7.555
18051WAT     H254396   0.773   9.829   7.576
18052WAT      O54397   7.910   4.179   8.949
18052WAT     H154398   7.865   4.090   8.937
18052WAT     H254399   7.963   4.178   9.033
18053WAT      O54400   2.958   3.907   3.602
18053WAT     H154401   3.000   3.831   3.552
18053WAT     H254402   2.990   3.908   3.696
18054WAT      O54403   2.776   6.847   1.148
18054WAT     H154404   2.823   6.865   1.235
18054WAT     H254405   2.677   6.846   1.163
18055WAT      O54406   1.227   8.290   5.119
18055WAT     H154407   1.163   8.336   5.179
18055WAT     H254408   1.177   8.237   5.050
18056WAT      O54409   4.729   0.016   2.100
18056WAT     H154410   4.653   0.027   2.036
18056WAT     H254411   4.811  -0.013   2.049
18057WAT      O54412   5.589   9.058   0.185
18057WAT     H154413   5.618   9.011   0.101
18057WAT     H254414   5.661   9.050   0.254
18058WAT      O54415   1.969   4.046   0.780
18058WAT     H154416   1.976   4.128   0.722
18058WAT     H254417   1.909   4.066   0.857
18059WAT      O54418   5.823   8.156   4.031
18059WAT     H154419   5.851   8.072   4.078
18059WAT     H254420   5.883   8.231   4.059
18060WAT      O54421   1.534   3.437   1.124
18060WAT     H154422   1.515   3.510   1.058
18060WAT     H254423   1.597   3.472   1.194
18061WAT      O54424   4.906   2.848   8.917
18061WAT     H154425   4.969   2.803   8.854
18061WAT     H254426   4.812   2.836   8.885
18062WAT      O54427   4.313   3.522   8.780
18062WAT     H154428   4.291   3.587   8.853
18062WAT     H254429   4.394   3.554   8.731
18063WAT      O54430   7.048   0.784   6.919
18063WAT     H154431   6.948   0.783   6.931
18063WAT     H254432   7.092   0.782   7.009
18064WAT      O54433   7.161   0.090   7.904
18064WAT     H154434   7.141   0.135   7.817
18064WAT     H254435   7.124  -0.003   7.903
18065WAT      O54436   0.110   7.244   0.654
18065WAT     H154437   0.165   7.237   0.570
18065WAT     H254438   0.013   7.248   0.630
18066WAT      O54439   6.794   6.668   5.248
18066WAT     H154440   6.742   6.751   5.229
18066WAT     H254441   6.758   6.593   5.192
18067WAT      O54442   7.100   0.143   3.829
18067WAT     H154443   7.118   0.220   3.890
18067WAT     H254444   7.096   0.176   3.735
18068WAT      O54445   1.840   8.368   9.809
18068WAT     H154446   1.794   8.399   9.726
18068WAT     H254447   1.829   8.269   9.818
18069WAT      O54448   4.615   2.106   8.531
18069WAT     H154449   4.547   2.056   8.477
18069WAT     H254450   4.572   2.186   8.573
18070WAT      O54451   2.694   3.038   0.242
18070WAT     H154452   2.641   3.111   0.198
18070WAT     H254453   2.790   3.047   0.217
18071WAT      O54454   7.435   0.946   1.422
18071WAT     H154455   7.507   0.926   1.356
18071WAT     H254456   7.477   0.975   1.508
18072WAT      O54457   8.246   1.886   4.457
18072WAT     H154458   8.277   1.815   4.393
18072WAT     H254459   8.274   1.976   4.424
18073WAT      O54460   2.950   6.509   2.905
18073WAT     H154461   2.956   6.410   2.893
18073WAT     H254462   3.000   6.535   2.987
18074WAT      O54463   1.027   5.626   6.141
18074WAT     H154464   1.033   5.718   6.180
18074WAT     H254465   0.990   5.631   6.049
18075WAT      O54466   3.034   1.575   2.709
18075WAT     H154467   3.014   1.656   2.763
18075WAT     H254468   3.089   1.511   2.763
18076WAT      O54469   5.315   6.777   1.116
18076WAT     H154470   5.347   6.788   1.210
18076WAT     H254471   5.232   6.833   1.103
18077WAT      O54472   0.136   7.499   8.186
18077WAT     H154473   0.152   7.551   8.102
18077WAT     H254474   0.224   7.478   8.229
18078WAT      O54475   7.197   8.922   2.037
18078WAT     H154476   7.147   8.989   2.092
18078WAT     H254477   7.172   8.830   2.064
18079WAT      O54478   3.036   3.575   1.811
18079WAT     H154479   3.025   3.590   1.909
18079WAT     H254480   3.009   3.481   1.789
18080WAT      O54481   5.916   0.510   2.449
18080WAT     H154482   5.880   0.555   2.367
18080WAT     H254483   5.846   0.513   2.522
18081WAT      O54484   6.511   5.994   0.183
18081WAT     H154485   6.494   5.945   0.098
18081WAT     H254486   6.600   5.966   0.220
18082WAT      O54487   3.312   6.072   7.642
18082WAT     H154488   3.226   6.026   7.665
18082WAT     H254489   3.318   6.158   7.693
18083WAT      O54490   5.412   2.378   7.138
18083WAT     H154491   5.330   2.374   7.195
18083WAT     H254492   5.400   2.446   7.067
18084WAT      O54493   6.641   2.339   5.148
18084WAT     H154494   6.591   2.403   5.090
18084WAT     H254495   6.719   2.302   5.098
18085WAT      O54496   8.340   2.485   0.107
18085WAT     H154497   8.330   2.392   0.143
18085WAT     H254498   8.436   2.512   0.111
18086WAT      O54499   4.511   7.376   2.855
18086WAT     H154500   4.568   7.436   2.799
18086WAT     H254501   4.564   7.343   2.933
18087WAT      O54502   2.877   5.801   0.586
18087WAT     H154503   2.879   5.710   0.546
18087WAT     H254504   2.860   5.794   0.685
18088WAT      O54505   3.217   3.224   8.130
18088WAT     H154506   3.198   3.304   8.074
18088WAT     H254507   3.163   3.228   8.214
18089WAT      O54508   3.350   3.161   4.334
18089WAT     H154509   3.379   3.246   4.289
18089WAT     H254510   3.274   3.120   4.283
18090WAT      O54511   8.272   5.244   2.058
18090WAT     H154512   8.258   5.299   1.975
18090WAT     H254513   8.277   5.147   2.034
18091WAT      O54514   9.003   1.951   9.420
18091WAT     H154515   8.980   2.013   9.495
18091WAT     H254516   8.919   1.924   9.373
18092WAT      O54517   2.461   7.092   7.830
18092WAT     H154518   2.409   7.028   7.773
18092WAT     H254519   2.428   7.088   7.924
18093WAT      O54520   3.039   2.457   6.354
18093WAT     H154521   2.985   2.451   6.271
18093WAT     H254522   3.089   2.543   6.355
18094WAT      O54523   5.112   8.629   9.870
18094WAT     H154524   5.045   8.648   9.798
18094WAT     H254525   5.114   8.706   9.935
18095WAT      O54526   9.606   7.859   3.332
18095WAT     H154527   9.654   7.937   3.372
18095WAT     H254528   9.615   7.779   3.392
18096WAT      O54529   1.901   0.365   0.818
18096WAT     H154530   1.874   0.460   0.832
18096WAT     H254531   1.962   0.359   0.738
18097WAT      O54532   5.777   4.963   4.230
18097WAT     H154533   5.865   4.915   4.237
18097WAT     H254534   5.723   4.946   4.313
18098WAT      O54535   2.963   0.964   8.188
18098WAT     H154536   2.971   0.887   8.124
18098WAT     H254537   2.952   0.928   8.281
18099WAT      O54538   0.171   8.172   3.409
18099WAT     H154539   0.270   8.171   3.419
18099WAT     H254540   0.132   8.250   3.458
18100WAT      O54541   5.068   0.249   5.157
18100WAT     H154542   5.002   0.287   5.093
18100WAT     H254543   5.030   0.167   5.200
18101WAT      O54544   7.499   4.512   6.929
18101WAT     H154545   7.539   4.587   6.981
18101WAT     H254546   7.540   4.510   6.838
18102WAT      O54547   9.867   1.807   3.235
18102WAT     H154548   9.887   1.901   3.263
18102WAT     H254549   9.907   1.789   3.145
18103WAT      O54550   5.113   8.494   0.321
18103WAT     H154551   5.159   8.570   0.274
18103WAT     H254552   5.022   8.522   0.350
18104WAT      O54553   8.092   9.421   7.004
18104WAT     H154554   8.183   9.454   7.031
18104WAT     H254555   8.033   9.499   6.984
18105WAT      O54556   7.824   3.135   2.199
18105WAT     H154557   7.780   3.133   2.109
18105WAT     H254558   7.817   3.045   2.242
18106WAT      O54559   8.112   4.778   6.611
18106WAT     H154560   8.037   4.841   6.592
18106WAT     H254561   8.091   4.725   6.693
18107WAT      O54562   6.236   5.939   6.763
18107WAT     H154563   6.156   5.879   6.759
18107WAT     H254564   6.282   5.927   6.852
18108WAT      O54565   8.471   5.439   6.993
18108WAT     H154566   8.531   5.360   7.002
18108WAT     H254567   8.525   5.520   6.973
18109WAT      O54568   6.281   3.872   7.077
18109WAT     H154569   6.320   3.799   7.021
18109WAT     H254570   6.345   3.895   7.150
18110WAT      O54571   9.058   6.222   8.438
18110WAT     H154572   9.054   6.322   8.448
18110WAT     H254573   9.062   6.180   8.528
18111WAT      O54574   9.418   2.775   7.731
18111WAT     H154575   9.459   2.764   7.822
18111WAT     H254576   9.477   2.732   7.662
18112WAT      O54577   1.288   6.443   7.721
18112WAT     H154578   1.267   6.350   7.753
18112WAT     H254579   1.264   6.451   7.625
18113WAT      O54580   8.380   1.675   7.425
18113WAT     H154581   8.394   1.576   7.438
18113WAT     H254582   8.465   1.723   7.446
18114WAT      O54583   6.826   8.328   4.444
18114WAT     H154584   6.888   8.309   4.520
18114WAT     H254585   6.862   8.404   4.390
18115WAT      O54586   5.503   6.816   7.542
18115WAT     H154587   5.562   6.766   7.478
18115WAT     H254588   5.425   6.854   7.493
18116WAT      O54589   5.872   9.167   1.187
18116WAT     H154590   5.921   9.085   1.159
18116WAT     H254591   5.934   9.245   1.186
18117WAT      O54592   5.467   9.829   1.633
18117WAT     H154593   5.438   9.922   1.654
18117WAT     H254594   5.498   9.785   1.717
18118WAT      O54595   0.535   6.194   9.000
18118WAT     H154596   0.614   6.195   8.939
18118WAT     H254597   0.561   6.149   9.086
18119WAT      O54598   0.659   2.150   0.183
18119WAT     H154599   0.572   2.156   0.232
18119WAT     H254600   0.660   2.217   0.108
18120WAT      O54601   4.854   5.465   1.412
18120WAT     H154602   4.945   5.438   1.441
18120WAT     H254603   4.861   5.534   1.340
18121WAT      O54604   4.868   4.766   0.467
18121WAT     H154605   4.839   4.844   0.412
18121WAT     H254606   4.908   4.799   0.552
18122WAT      O54607   0.232   1.127   1.045
18122WAT     H154608   0.143   1.083   1.060
18122WAT     H254609   0.298   1.059   1.013
18123WAT      O54610   5.054   9.545   6.730
18123WAT     H154611   5.103   9.472   6.682
18123WAT     H254612   4.961   9.514   6.753
18124WAT      O54613   0.833   4.137   8.859
18124WAT     H154614   0.845   4.052   8.807
18124WAT     H254615   0.754   4.187   8.823
18125WAT      O54616   7.518   3.339   0.964
18125WAT     H154617   7.448   3.383   0.907
18125WAT     H254618   7.607   3.348   0.919
18126WAT      O54619   4.254   9.326   7.625
18126WAT     H154620   4.282   9.243   7.671
18126WAT     H254621   4.158   9.347   7.647
18127WAT      O54622   4.795   3.576   9.054
18127WAT     H154623   4.714   3.517   9.060
18127WAT     H254624   4.849   3.566   9.137
18128WAT      O54625   7.225   0.568   5.557
18128WAT     H154626   7.246   0.646   5.498
18128WAT     H254627   7.222   0.597   5.652
18129WAT      O54628   7.634   1.744   6.652
18129WAT     H154629   7.650   1.715   6.746
18129WAT     H254630   7.668   1.838   6.640
18130WAT      O54631   6.066   9.081   2.370
18130WAT     H154632   6.088   9.130   2.455
18130WAT     H254633   6.150   9.067   2.317
18131WAT      O54634   0.795   9.395   0.778
18131WAT     H154635   0.797   9.493   0.799
18131WAT     H254636   0.728   9.350   0.838
18132WAT      O54637   0.047   7.288   5.025
18132WAT     H154638  -0.023   7.302   5.096
18132WAT     H254639   0.097   7.374   5.010
18133WAT      O54640   1.759   6.123   5.484
18133WAT     H154641   1.776   6.221   5.489
18133WAT     H254642   1.765   6.083   5.575
18134WAT      O54643   0.049   0.979   9.527
18134WAT     H154644   0.032   0.943   9.435
18134WAT     H254645   0.063   0.903   9.590
18135WAT      O54646   6.221   2.305   3.109
18135WAT     H154647   6.213   2.227   3.047
18135WAT     H254648   6.318   2.321   3.129
18136WAT      O54649   5.481   7.631   6.227
18136WAT     H154650   5.524   7.696   6.164
18136WAT     H254651   5.411   7.677   6.280
18137WAT      O54652   6.924   9.554   6.100
18137WAT     H154653   6.846   9.602   6.140
18137WAT     H254654   6.980   9.619   6.048
18138WAT      O54655   3.899   9.464   6.204
18138WAT     H154656   3.917   9.550   6.251
18138WAT     H254657   3.851   9.482   6.118
18139WAT      O54658   0.984   6.208   2.568
18139WAT     H154659   0.908   6.144   2.577
18139WAT     H254660   0.979   6.276   2.641
18140WAT      O54661   2.602   0.463   7.703
18140WAT     H154662   2.677   0.445   7.766
18140WAT     H254663   2.629   0.535   7.639
18141WAT      O54664   4.717   6.044   7.931
18141WAT     H154665   4.741   5.962   7.983
18141WAT     H254666   4.621   6.039   7.903
18142WAT      O54667   9.595   0.639   5.452
18142WAT     H154668   9.601   0.551   5.405
18142WAT     H254669   9.534   0.630   5.530
18143WAT      O54670   0.618   0.741   0.607
18143WAT     H154671   0.531   0.791   0.615
18143WAT     H254672   0.611   0.673   0.535
18144WAT      O54673   5.104   8.972   3.288
18144WAT     H154674   5.075   9.062   3.318
18144WAT     H254675   5.107   8.969   3.188
18145WAT      O54676   9.173   7.614   2.359
18145WAT     H154677   9.135   7.620   2.451
18145WAT     H254678   9.105   7.574   2.298
18146WAT      O54679   6.411   5.584   3.766
18146WAT     H154680   6.399   5.588   3.667
18146WAT     H254681   6.353   5.512   3.804
18147WAT      O54682   9.698   0.741   0.914
18147WAT     H154683   9.763   0.667   0.928
18147WAT     H254684   9.621   0.731   0.978
18148WAT      O54685   3.573   7.339   7.240
18148WAT     H154686   3.590   7.278   7.162
18148WAT     H254687   3.497   7.304   7.294
18149WAT      O54688   1.126   5.273   9.782
18149WAT     H154689   1.202   5.258   9.845
18149WAT     H254690   1.152   5.340   9.712
18150WAT      O54691   3.821   0.831   6.844
18150WAT     H154692   3.825   0.928   6.821
18150WAT     H254693   3.907   0.786   6.818
18151WAT      O54694   5.050   4.535   1.392
18151WAT     H154695   5.031   4.633   1.397
18151WAT     H254696   4.987   4.486   1.452
18152WAT      O54697   2.012   1.000   0.535
18152WAT     H154698   2.000   0.940   0.457
18152WAT     H254699   2.109   1.003   0.560
18153WAT      O54700   7.020   3.263   7.832
18153WAT     H154701   7.006   3.352   7.875
18153WAT     H254702   6.932   3.227   7.802
18154WAT      O54703   4.469   5.032   8.393
18154WAT     H154704   4.448   5.055   8.298
18154WAT     H254705   4.511   4.941   8.396
18155WAT      O54706   1.925   3.701   6.501
18155WAT     H154707   1.959   3.724   6.592
18155WAT     H254708   1.990   3.641   6.455
18156WAT      O54709   1.842   8.572   1.335
18156WAT     H154710   1.889   8.519   1.406
18156WAT     H254711   1.758   8.526   1.309
18157WAT      O54712   7.365   4.848   2.357
18157WAT     H154713   7.334   4.780   2.424
18157WAT     H254714   7.288   4.906   2.331
18158WAT      O54715   7.774   7.783   2.629
18158WAT     H154716   7.772   7.684   2.641
18158WAT     H254717   7.869   7.815   2.632
18159WAT      O54718   4.299   7.260   2.774
18159WAT     H154719   4.391   7.296   2.792
18159WAT     H254720   4.231   7.330   2.796
18160WAT      O54721   6.478   8.614   8.439
18160WAT     H154722   6.542   8.636   8.365
18160WAT     H254723   6.395   8.574   8.399
18161WAT      O54724   6.851   0.772   0.798
18161WAT     H154725   6.879   0.848   0.740
18161WAT     H254726   6.893   0.687   0.764
18162WAT      O54727   0.719   4.522   9.682
18162WAT     H154728   0.785   4.563   9.618
18162WAT     H254729   0.667   4.595   9.727
18163WAT      O54730   5.787   8.162   9.857
18163WAT     H154731   5.738   8.244   9.828
18163WAT     H254732   5.822   8.176   9.950
18164WAT      O54733   6.099   5.260   1.158
18164WAT     H154734   6.135   5.323   1.226
18164WAT     H254735   6.001   5.274   1.147
18165WAT      O54736   2.958   4.668   8.824
18165WAT     H154737   3.006   4.620   8.897
18165WAT     H254738   2.960   4.612   8.741
18166WAT      O54739   2.489   8.826   1.811
18166WAT     H154740   2.454   8.868   1.895
18166WAT     H254741   2.428   8.847   1.735
18167WAT      O54742   1.127   9.620   3.731
18167WAT     H154743   1.065   9.641   3.807
18167WAT     H254744   1.083   9.554   3.670
18168WAT      O54745   7.641   7.976   7.770
18168WAT     H154746   7.572   8.019   7.828
18168WAT     H254747   7.621   7.994   7.674
18169WAT      O54748   7.968   6.308   1.593
18169WAT     H154749   7.929   6.322   1.684
18169WAT     H254750   8.041   6.240   1.598
18170WAT      O54751   9.778   2.238   1.614
18170WAT     H154752   9.825   2.325   1.597
18170WAT     H254753   9.843   2.173   1.653
18171WAT      O54754   8.915   0.053   9.252
18171WAT     H154755   8.964   0.111   9.318
18171WAT     H254756   8.952   0.067   9.161
18172WAT      O54757   8.230   4.956   4.966
18172WAT     H154758   8.163   4.927   4.897
18172WAT     H254759   8.287   5.029   4.929
18173WAT      O54760   9.113   1.289   1.485
18173WAT     H154761   9.155   1.345   1.556
18173WAT     H254762   9.021   1.262   1.513
18174WAT      O54763   3.454   4.403   5.302
18174WAT     H154764   3.486   4.498   5.296
18174WAT     H254765   3.525   4.342   5.267
18175WAT      O54766   4.030   6.261   4.830
18175WAT     H154767   4.084   6.322   4.887
18175WAT     H254768   3.980   6.196   4.887
18176WAT      O54769   0.339   9.823   8.029
18176WAT     H154770   0.292   9.794   7.946
18176WAT     H254771   0.438   9.817   8.015
18177WAT      O54772   2.112   4.544   2.231
18177WAT     H154773   2.203   4.511   2.253
18177WAT     H254774   2.044   4.490   2.280
18178WAT      O54775   0.855   3.237   8.116
18178WAT     H154776   0.913   3.246   8.197
18178WAT     H254777   0.845   3.140   8.092
18179WAT      O54778   1.595   5.200   4.451
18179WAT     H154779   1.620   5.242   4.364
18179WAT     H254780   1.615   5.264   4.526
18180WAT      O54781   9.192   4.621   1.030
18180WAT     H154782   9.190   4.710   1.076
18180WAT     H254783   9.119   4.563   1.067
18181WAT      O54784   2.628   6.533   0.827
18181WAT     H154785   2.666   6.535   0.734
18181WAT     H254786   2.703   6.536   0.893
18182WAT      O54787   2.696   1.165   3.688
18182WAT     H154788   2.713   1.260   3.716
18182WAT     H254789   2.783   1.121   3.667
18183WAT      O54790   9.110   4.949   8.415
18183WAT     H154791   9.148   4.863   8.381
18183WAT     H254792   9.030   4.974   8.360
18184WAT      O54793   5.483   0.262   8.874
18184WAT     H154794   5.459   0.167   8.894
18184WAT     H254795   5.450   0.320   8.948
18185WAT      O54796   2.772   3.346   5.074
18185WAT     H154797   2.683   3.390   5.067
18185WAT     H254798   2.777   3.270   5.009
18186WAT      O54799   7.573   4.271   7.333
18186WAT     H154800   7.655   4.242   7.284
18186WAT     H254801   7.508   4.195   7.338
18187WAT      O54802   6.955   1.228   8.834
18187WAT     H154803   6.903   1.296   8.782
18187WAT     H254804   7.053   1.245   8.823
18188WAT      O54805   0.384   5.172   7.364
18188WAT     H154806   0.430   5.201   7.280
18188WAT     H254807   0.288   5.152   7.345
18189WAT      O54808   1.281   8.775   7.883
18189WAT     H154809   1.254   8.743   7.792
18189WAT     H254810   1.212   8.837   7.919
18190WAT      O54811   1.431   0.596   8.888
18190WAT     H154812   1.372   0.666   8.847
18190WAT     H254813   1.445   0.617   8.984
18191WAT      O54814   7.107   5.633   3.360
18191WAT     H154815   7.142   5.596   3.274
18191WAT     H254816   7.170   5.611   3.434
18192WAT      O54817   6.511   9.194   2.519
18192WAT     H154818   6.593   9.250   2.529
18192WAT     H254819   6.502   9.133   2.598
18193WAT      O54820   8.536   8.875   6.409
18193WAT     H154821   8.544   8.800   6.475
18193WAT     H254822   8.521   8.961   6.457
18194WAT      O54823   3.980   7.390   2.366
18194WAT     H154824   3.958   7.435   2.453
18194WAT     H254825   3.975   7.457   2.292
18195WAT      O54826   0.011   6.629   1.839
18195WAT     H154827  -0.081   6.591   1.831
18195WAT     H254828   0.011   6.701   1.908
18196WAT      O54829   0.431   7.603   7.253
18196WAT     H154830   0.359   7.549   7.209
18196WAT     H254831   0.427   7.698   7.221
18197WAT      O54832   3.506   7.685   5.596
18197WAT     H154833   3.445   7.708   5.520
18197WAT     H254834   3.601   7.693   5.566
18198WAT      O54835   6.824   4.539   3.561
18198WAT     H154836   6.895   4.606   3.542
18198WAT     H254837   6.864   4.461   3.610
18199WAT      O54838   4.220   0.952   8.452
18199WAT     H154839   4.185   0.859   8.459
18199WAT     H254840   4.166   1.003   8.386
18200WAT      O54841   6.098   6.568   3.562
18200WAT     H154842   6.075   6.635   3.493
18200WAT     H254843   6.036   6.577   3.640
18201WAT      O54844   1.160   3.024   0.222
18201WAT     H154845   1.180   2.956   0.292
18201WAT     H254846   1.062   3.023   0.203
18202WAT      O54847   7.521   3.770   3.115
18202WAT     H154848   7.593   3.722   3.064
18202WAT     H254849   7.528   3.868   3.097
18203WAT      O54850   0.551   0.937   3.704
18203WAT     H154851   0.574   1.034   3.705
18203WAT     H254852   0.482   0.918   3.774
18204WAT      O54853   4.270   9.342   0.598
18204WAT     H154854   4.326   9.273   0.645
18204WAT     H254855   4.326   9.390   0.531
18205WAT      O54856   7.671   3.575   9.840
18205WAT     H154857   7.706   3.596   9.931
18205WAT     H254858   7.699   3.647   9.776
18206WAT      O54859   4.529   3.813   8.583
18206WAT     H154860   4.500   3.811   8.487
18206WAT     H254861   4.536   3.720   8.618
18207WAT      O54862   3.112   5.307   2.483
18207WAT     H154863   3.203   5.265   2.488
18207WAT     H254864   3.108   5.369   2.405
18208WAT      O54865   6.781   1.257   9.796
18208WAT     H154866   6.703   1.218   9.844
18208WAT     H254867   6.836   1.183   9.757
18209WAT      O54868   1.062   4.651   4.608
18209WAT     H154869   1.012   4.730   4.641
18209WAT     H254870   1.020   4.567   4.644
18210WAT      O54871   8.289   3.241   1.137
18210WAT     H154872   8.215   3.236   1.204
18210WAT     H254873   8.340   3.326   1.149
18211WAT      O54874   2.114   7.112   0.246
18211WAT     H154875   2.207   7.142   0.264
18211WAT     H254876   2.113   7.052   0.166
18212WAT      O54877   5.959   7.671   4.862
18212WAT     H154878   5.860   7.685   4.857
18212WAT     H254879   5.997   7.676   4.770
18213WAT      O54880   2.424   8.360   0.530
18213WAT     H154881   2.477   8.300   0.470
18213WAT     H254882   2.339   8.315   0.556
18214WAT      O54883   3.401   4.016   8.614
18214WAT     H154884   3.381   4.072   8.694
18214WAT     H254885   3.404   4.075   8.533
18215WAT      O54886   1.060   3.611   6.789
18215WAT     H154887   1.029   3.619   6.694
18215WAT     H254888   1.145   3.559   6.792
18216WAT      O54889   8.683   7.745   7.689
18216WAT     H154890   8.609   7.781   7.745
18216WAT     H254891   8.681   7.789   7.599
18217WAT      O54892   1.939   6.592   9.331
18217WAT     H154893   1.950   6.690   9.318
18217WAT     H254894   1.973   6.544   9.250
18218WAT      O54895   9.243   9.786   7.135
18218WAT     H154896   9.277   9.760   7.044
18218WAT     H254897   9.143   9.790   7.132
18219WAT      O54898   2.062   6.708   5.573
18219WAT     H154899   1.990   6.671   5.632
18219WAT     H254900   2.150   6.701   5.620
18220WAT      O54901   3.167   6.554   2.531
18220WAT     H154902   3.118   6.513   2.454
18220WAT     H254903   3.232   6.488   2.569
18221WAT      O54904   2.947   3.821   0.923
18221WAT     H154905   2.934   3.807   1.021
18221WAT     H254906   3.042   3.800   0.899
18222WAT      O54907   0.893   1.957   5.783
18222WAT     H154908   0.880   1.884   5.849
18222WAT     H254909   0.810   2.012   5.777
18223WAT      O54910   7.446   3.923   6.952
18223WAT     H154911   7.463   3.865   7.032
18223WAT     H254912   7.454   4.019   6.978
18224WAT      O54913   7.690   0.981   4.592
18224WAT     H154914   7.736   1.030   4.519
18224WAT     H254915   7.609   1.033   4.622
18225WAT      O54916   0.137   5.009   8.481
18225WAT     H154917   0.085   4.930   8.449
18225WAT     H254918   0.133   5.014   8.580
18226WAT      O54919   2.721   5.857   0.131
18226WAT     H154920   2.711   5.871   0.229
18226WAT     H254921   2.635   5.880   0.085
18227WAT      O54922   5.251   7.837   2.026
18227WAT     H154923   5.223   7.843   1.930
18227WAT     H254924   5.225   7.921   2.074
18228WAT      O54925   2.994   2.946   5.266
18228WAT     H154926   3.061   2.880   5.233
18228WAT     H254927   3.041   3.022   5.312
18229WAT      O54928   3.425   0.934   7.011
18229WAT     H154929   3.325   0.932   7.003
18229WAT     H254930   3.452   1.006   7.076
18230WAT      O54931   2.989   4.917   8.845
18230WAT     H154932   2.906   4.963   8.878
18230WAT     H254933   2.969   4.821   8.827
18231WAT      O54934   0.447   2.096   4.826
18231WAT     H154935   0.422   2.011   4.779
18231WAT     H254936   0.546   2.108   4.822
18232WAT      O54937   9.280   8.098   1.050
18232WAT     H154938   9.207   8.135   1.107
18232WAT     H254939   9.269   8.131   0.956
18233WAT      O54940   3.030   8.803   7.836
18233WAT     H154941   2.974   8.850   7.905
18233WAT     H254942   3.127   8.820   7.855
18234WAT      O54943   4.976   6.804   8.614
18234WAT     H154944   4.955   6.896   8.582
18234WAT     H254945   4.909   6.777   8.683
18235WAT      O54946   6.286   5.723   5.064
18235WAT     H154947   6.326   5.762   5.147
18235WAT     H254948   6.282   5.623   5.073
18236WAT      O54949   1.035   2.234   7.519
18236WAT     H154950   1.133   2.253   7.519
18236WAT     H254951   0.993   2.279   7.597
18237WAT      O54952   2.226   5.275   2.376
18237WAT     H154953   2.202   5.347   2.312
18237WAT     H254954   2.152   5.263   2.443
18238WAT      O54955   1.579   6.975   8.659
18238WAT     H154956   1.560   6.884   8.624
18238WAT     H254957   1.641   7.023   8.596
18239WAT      O54958   8.062   7.479   1.962
18239WAT     H154959   8.141   7.498   2.021
18239WAT     H254960   8.037   7.562   1.913
18240WAT      O54961   5.107   2.311   0.263
18240WAT     H154962   5.191   2.274   0.302
18240WAT     H254963   5.101   2.409   0.285
18241WAT      O54964   3.764   9.102   1.678
18241WAT     H154965   3.852   9.098   1.726
18241WAT     H254966   3.722   9.011   1.679
18242WAT      O54967   7.613   6.502   9.891
18242WAT     H154968   7.592   6.451   9.807
18242WAT     H254969   7.687   6.456   9.940
18243WAT      O54970   7.541   8.378   4.355
18243WAT     H154971   7.613   8.336   4.411
18243WAT     H254972   7.529   8.324   4.272
18244WAT      O54973   3.593   1.780   8.855
18244WAT     H154974   3.660   1.854   8.849
18244WAT     H254975   3.632   1.696   8.818
18245WAT      O54976   7.547   4.115   0.379
18245WAT     H154977   7.488   4.101   0.459
18245WAT     H254978   7.594   4.203   0.387
18246WAT      O54979   1.315   5.030   6.403
18246WAT     H154980   1.307   5.079   6.316
18246WAT     H254981   1.272   5.084   6.475
18247WAT      O54982   6.699   4.398   8.056
18247WAT     H154983   6.618   4.429   8.007
18247WAT     H254984   6.709   4.451   8.141
18248WAT      O54985   0.928   4.513   1.431
18248WAT     H154986   0.950   4.417   1.451
18248WAT     H254987   0.984   4.545   1.355
18249WAT      O54988   5.002   7.257   2.453
18249WAT     H154989   5.013   7.334   2.391
18249WAT     H254990   5.065   7.183   2.427
18250WAT      O54991   5.354   9.836   5.806
18250WAT     H154992   5.311   9.890   5.878
18250WAT     H254993   5.355   9.740   5.833
18251WAT      O54994   2.417   1.874   5.416
18251WAT     H154995   2.373   1.849   5.502
18251WAT     H254996   2.456   1.792   5.373
18252WAT      O54997   8.485   6.720   1.833
18252WAT     H154998   8.491   6.729   1.932
18252WAT     H254999   8.413   6.653   1.810
18253WAT      O55000   9.804   2.445   3.456
18253WAT     H155001   9.816   2.365   3.397
18253WAT     H255002   9.707   2.458   3.477
18254WAT      O55003   4.394   9.440   7.864
18254WAT     H155004   4.325   9.426   7.934
18254WAT     H255005   4.416   9.353   7.821
18255WAT      O55006   4.695   2.766   6.182
18255WAT     H155007   4.778   2.734   6.228
18255WAT     H255008   4.637   2.815   6.247
18256WAT      O55009   5.975   5.613   4.660
18256WAT     H155010   5.931   5.555   4.728
18256WAT     H255011   6.074   5.600   4.665
18257WAT      O55012   0.725   1.566   9.233
18257WAT     H155013   0.754   1.657   9.263
18257WAT     H255014   0.633   1.571   9.194
18258WAT      O55015   0.622   1.475   6.759
18258WAT     H155016   0.606   1.565   6.800
18258WAT     H255017   0.614   1.404   6.828
18259WAT      O55018   3.654   2.254   0.665
18259WAT     H155019   3.606   2.305   0.736
18259WAT     H255020   3.753   2.264   0.677
18260WAT      O55021   8.491   7.861   1.973
18260WAT     H155022   8.551   7.894   1.900
18260WAT     H255023   8.483   7.761   1.968
18261WAT      O55024   2.849   2.371   8.696
18261WAT     H155025   2.755   2.399   8.674
18261WAT     H255026   2.913   2.423   8.639
18262WAT      O55027   8.479   9.629   8.238
18262WAT     H155028   8.401   9.692   8.238
18262WAT     H255029   8.559   9.676   8.274
18263WAT      O55030   1.372   8.339   6.440
18263WAT     H155031   1.325   8.351   6.528
18263WAT     H255032   1.462   8.384   6.444
18264WAT      O55033   9.432   6.189   1.597
18264WAT     H155034   9.528   6.205   1.621
18264WAT     H255035   9.413   6.231   1.508
18265WAT      O55036   3.575   7.641   9.433
18265WAT     H155037   3.638   7.699   9.485
18265WAT     H255038   3.554   7.559   9.486
18266WAT      O55039   0.747   7.485   2.272
18266WAT     H155040   0.829   7.533   2.303
18266WAT     H255041   0.744   7.484   2.172
18267WAT      O55042   8.115   9.725   4.957
18267WAT     H155043   8.101   9.688   5.049
18267WAT     H255044   8.029   9.718   4.906
18268WAT      O55045   1.056   3.859   5.119
18268WAT     H155046   1.107   3.798   5.179
18268WAT     H255047   0.959   3.835   5.121
18269WAT      O55048   6.273   2.781   6.372
18269WAT     H155049   6.326   2.808   6.292
18269WAT     H255050   6.202   2.850   6.390
18270WAT      O55051   1.587   2.425   7.992
18270WAT     H155052   1.643   2.350   8.028
18270WAT     H255053   1.646   2.502   7.969
18271WAT      O55054   0.613   4.870   7.118
18271WAT     H155055   0.593   4.891   7.022
18271WAT     H255056   0.596   4.773   7.135
18272WAT      O55057   0.458   2.748   4.877
18272WAT     H155058   0.470   2.701   4.789
18272WAT     H255059   0.462   2.847   4.862
18273WAT      O55060   6.322   0.239   6.143
18273WAT     H155061   6.326   0.140   6.134
18273WAT     H255062   6.402   0.279   6.099
18274WAT      O55063   5.290   8.951   6.375
18274WAT     H155064   5.212   8.952   6.313
18274WAT     H255065   5.344   9.034   6.361
18275WAT      O55066   9.489   2.800   9.138
18275WAT     H155067   9.513   2.863   9.212
18275WAT     H255068   9.433   2.725   9.174
18276WAT      O55069   5.117   3.993   1.700
18276WAT     H155070   5.151   4.040   1.619
18276WAT     H255071   5.150   3.899   1.701
18277WAT      O55072   7.814   3.400   7.354
18277WAT     H155073   7.751   3.461   7.403
18277WAT     H255074   7.908   3.424   7.376
18278WAT      O55075   2.641   3.196   6.562
18278WAT     H155076   2.608   3.210   6.469
18278WAT     H255077   2.740   3.214   6.565
18279WAT      O55078   5.247   5.886   8.249
18279WAT     H155079   5.159   5.840   8.243
18279WAT     H255080   5.261   5.920   8.342
18280WAT      O55081   7.794   2.271   0.517
18280WAT     H155082   7.819   2.294   0.423
18280WAT     H255083   7.708   2.220   0.517
18281WAT      O55084   0.579   4.560   5.220
18281WAT     H155085   0.613   4.479   5.267
18281WAT     H255086   0.648   4.632   5.223
18282WAT      O55087   3.579   5.646   2.418
18282WAT     H155088   3.583   5.679   2.513
18282WAT     H255089   3.672   5.638   2.382
18283WAT      O55090   3.597   4.194   3.819
18283WAT     H155091   3.628   4.287   3.835
18283WAT     H255092   3.517   4.175   3.878
18284WAT      O55093   6.223   0.061   9.050
18284WAT     H155094   6.290   0.089   9.119
18284WAT     H255095   6.260   0.077   8.959
18285WAT      O55096   5.748   0.654   9.609
18285WAT     H155097   5.656   0.676   9.577
18285WAT     H255098   5.790   0.587   9.548
18286WAT      O55099   4.097   7.706   7.750
18286WAT     H155100   4.105   7.785   7.689
18286WAT     H255101   4.055   7.735   7.837
18287WAT      O55102   4.086   3.361   3.037
18287WAT     H155103   4.083   3.273   3.084
18287WAT     H255104   4.012   3.366   2.970
18288WAT      O55105   6.707   1.429   6.256
18288WAT     H155106   6.695   1.523   6.225
18288WAT     H255107   6.618   1.387   6.272
18289WAT      O55108   6.973   5.169   0.558
18289WAT     H155109   7.022   5.119   0.487
18289WAT     H255110   6.875   5.164   0.541
18290WAT      O55111   7.665   2.254   2.438
18290WAT     H155112   7.585   2.239   2.381
18290WAT     H255113   7.656   2.202   2.523
18291WAT      O55114   0.796   1.344   3.321
18291WAT     H155115   0.768   1.250   3.344
18291WAT     H255116   0.891   1.344   3.290
18292WAT      O55117   5.979   3.256   9.659
18292WAT     H155118   6.009   3.332   9.716
18292WAT     H255119   6.024   3.261   9.569
18293WAT      O55120   0.270   5.024   2.323
18293WAT     H155121   0.348   4.981   2.278
18293WAT     H255122   0.301   5.102   2.377
18294WAT      O55123   6.919   6.589   4.242
18294WAT     H155124   6.894   6.621   4.150
18294WAT     H255125   7.013   6.616   4.262
18295WAT      O55126   3.846   4.276   2.247
18295WAT     H155127   3.896   4.363   2.242
18295WAT     H255128   3.764   4.289   2.303
18296WAT      O55129   0.835   3.904   5.793
18296WAT     H155130   0.871   3.954   5.715
18296WAT     H255131   0.895   3.916   5.872
18297WAT      O55132   5.387   5.512   1.818
18297WAT     H155133   5.324   5.560   1.757
18297WAT     H255134   5.336   5.472   1.894
18298WAT      O55135   4.707   2.007   1.937
18298WAT     H155136   4.705   2.106   1.947
18298WAT     H255137   4.718   1.964   2.027
18299WAT      O55138   7.517   1.210   4.470
18299WAT     H155139   7.447   1.245   4.533
18299WAT     H255140   7.602   1.261   4.484
18300WAT      O55141   6.131   8.175   3.332
18300WAT     H155142   6.220   8.174   3.288
18300WAT     H255143   6.060   8.193   3.264
18301WAT      O55144   9.263   0.531   3.934
18301WAT     H155145   9.243   0.516   4.031
18301WAT     H255146   9.193   0.488   3.878
18302WAT      O55147   2.495   2.296   3.153
18302WAT     H155148   2.551   2.214   3.142
18302WAT     H255149   2.486   2.342   3.065
18303WAT      O55150   9.369   0.966   3.851
18303WAT     H155151   9.431   1.019   3.793
18303WAT     H255152   9.285   1.017   3.867
18304WAT      O55153   1.570   7.203   4.250
18304WAT     H155154   1.623   7.151   4.317
18304WAT     H255155   1.595   7.172   4.158
18305WAT      O55156   9.806   3.829   3.338
18305WAT     H155157   9.717   3.830   3.291
18305WAT     H255158   9.812   3.907   3.400
18306WAT      O55159   7.469   9.157   5.825
18306WAT     H155160   7.536   9.147   5.751
18306WAT     H255161   7.377   9.161   5.786
18307WAT      O55162   8.250   7.451   7.610
18307WAT     H155163   8.276   7.544   7.584
18307WAT     H255164   8.327   7.406   7.655
18308WAT      O55165   4.086   3.303   9.573
18308WAT     H155166   4.145   3.346   9.641
18308WAT     H255167   4.142   3.266   9.499
18309WAT      O55168   4.042   1.992   8.316
18309WAT     H155169   4.074   2.076   8.358
18309WAT     H255170   4.026   2.007   8.218
18310WAT      O55171   9.636   2.041   5.900
18310WAT     H155172   9.665   1.971   5.835
18310WAT     H255173   9.716   2.088   5.936
18311WAT      O55174   5.733   2.870   3.760
18311WAT     H155175   5.707   2.937   3.828
18311WAT     H255176   5.756   2.916   3.674
18312WAT      O55177   4.176   4.970   0.915
18312WAT     H155178   4.140   4.932   1.001
18312WAT     H255179   4.215   5.060   0.932
18313WAT      O55180   4.557   9.597   4.360
18313WAT     H155181   4.637   9.649   4.330
18313WAT     H255182   4.530   9.532   4.289
18314WAT      O55183   1.554   7.833   6.240
18314WAT     H155184   1.495   7.774   6.294
18314WAT     H255185   1.636   7.856   6.293
18315WAT      O55186   9.459   0.624   4.923
18315WAT     H155187   9.398   0.598   4.847
18315WAT     H255188   9.411   0.688   4.983
18316WAT      O55189   8.496   2.212   1.600
18316WAT     H155190   8.408   2.253   1.626
18316WAT     H255191   8.522   2.242   1.509
18317WAT      O55192   9.520   2.823   3.949
18317WAT     H155193   9.620   2.827   3.943
18317WAT     H255194   9.494   2.756   4.018
18318WAT      O55195   5.344   3.661   9.363
18318WAT     H155196   5.354   3.760   9.362
18318WAT     H255197   5.299   3.632   9.447
18319WAT      O55198   9.414   4.685   8.521
18319WAT     H155199   9.360   4.658   8.601
18319WAT     H255200   9.352   4.714   8.448
18320WAT      O55201   1.217   6.200   9.285
18320WAT     H155202   1.271   6.168   9.363
18320WAT     H255203   1.166   6.281   9.312
18321WAT      O55204   5.548   8.577   2.498
18321WAT     H155205   5.513   8.489   2.532
18321WAT     H255206   5.562   8.639   2.575
18322WAT      O55207   6.667   0.403   8.417
18322WAT     H155208   6.628   0.484   8.460
18322WAT     H255209   6.603   0.327   8.424
18323WAT      O55210   5.375   9.578   5.872
18323WAT     H155211   5.377   9.518   5.793
18323WAT     H255212   5.468   9.593   5.906
18324WAT      O55213   3.097   4.875   1.839
18324WAT     H155214   3.168   4.892   1.771
18324WAT     H255215   3.072   4.778   1.837
18325WAT      O55216   2.743   4.776   2.714
18325WAT     H155217   2.696   4.848   2.765
18325WAT     H255218   2.791   4.716   2.778
18326WAT      O55219   4.282   4.043   7.541
18326WAT     H155220   4.372   4.029   7.500
18326WAT     H255221   4.211   4.013   7.477
18327WAT      O55222   3.470   4.394   4.864
18327WAT     H155223   3.493   4.355   4.775
18327WAT     H255224   3.373   4.377   4.883
18328WAT      O55225   8.252   3.655   5.368
18328WAT     H155226   8.250   3.577   5.306
18328WAT     H255227   8.343   3.696   5.368
18329WAT      O55228   1.506   7.816   4.609
18329WAT     H155229   1.538   7.773   4.693
18329WAT     H255230   1.456   7.749   4.554
18330WAT      O55231   6.770   9.411   9.848
18330WAT     H155232   6.759   9.330   9.906
18330WAT     H255233   6.798   9.489   9.905
18331WAT      O55234   2.086   1.959   1.167
18331WAT     H155235   2.130   2.043   1.135
18331WAT     H255236   2.149   1.909   1.226
18332WAT      O55237   0.770   9.615   1.520
18332WAT     H155238   0.798   9.520   1.503
18332WAT     H255239   0.679   9.629   1.482
18333WAT      O55240   1.297   7.795   9.465
18333WAT     H155241   1.380   7.740   9.460
18333WAT     H255242   1.290   7.836   9.556
18334WAT      O55243   8.907   4.120   1.669
18334WAT     H155244   8.923   4.038   1.614
18334WAT     H255245   8.833   4.102   1.734
18335WAT      O55246   1.482   5.633   2.158
18335WAT     H155247   1.403   5.603   2.104
18335WAT     H255248   1.479   5.589   2.247
18336WAT      O55249   3.418   3.611   8.166
18336WAT     H155250   3.470   3.695   8.181
18336WAT     H255251   3.434   3.577   8.074
18337WAT      O55252   2.095   1.542   4.592
18337WAT     H155253   2.106   1.444   4.572
18337WAT     H255254   2.014   1.577   4.545
18338WAT      O55255   9.523   7.129   2.163
18338WAT     H155256   9.482   7.094   2.078
18338WAT     H255257   9.512   7.061   2.235
18339WAT      O55258   8.747   1.708   3.108
18339WAT     H155259   8.695   1.793   3.117
18339WAT     H255260   8.817   1.719   3.038
18340WAT      O55261   7.840   0.404   3.776
18340WAT     H155262   7.805   0.380   3.686
18340WAT     H255263   7.797   0.489   3.807
18341WAT      O55264   1.795   7.504   3.376
18341WAT     H155265   1.719   7.498   3.312
18341WAT     H255266   1.878   7.531   3.326
18342WAT      O55267   9.390   4.513   5.375
18342WAT     H155268   9.327   4.585   5.344
18342WAT     H255269   9.472   4.514   5.318
18343WAT      O55270   3.075   8.697   1.748
18343WAT     H155271   3.068   8.742   1.837
18343WAT     H255272   3.163   8.720   1.707
18344WAT      O55273   6.652   3.936   5.010
18344WAT     H155274   6.738   3.892   4.985
18344WAT     H255275   6.608   3.883   5.083
18345WAT      O55276   3.658   8.840   5.884
18345WAT     H155277   3.742   8.894   5.885
18345WAT     H255278   3.657   8.778   5.962
18346WAT      O55279   9.434   7.051   9.468
18346WAT     H155280   9.361   7.112   9.440
18346WAT     H255281   9.415   6.958   9.436
18347WAT      O55282   6.420   9.012   5.173
18347WAT     H155283   6.520   9.010   5.180
18347WAT     H255284   6.381   9.046   5.259
18348WAT      O55285   9.881   3.810   3.672
18348WAT     H155286   9.948   3.742   3.704
18348WAT     H255287   9.804   3.813   3.736
18349WAT      O55288   0.401   0.368   5.372
18349WAT     H155289   0.417   0.412   5.460
18349WAT     H255290   0.303   0.362   5.355
18350WAT      O55291   6.754   7.306   1.142
18350WAT     H155292   6.828   7.370   1.119
18350WAT     H255293   6.707   7.339   1.224
18351WAT      O55294   1.971   9.113   6.733
18351WAT     H155295   1.902   9.048   6.704
18351WAT     H255296   1.997   9.171   6.655
18352WAT      O55297   8.812   7.753   5.524
18352WAT     H155298   8.723   7.790   5.496
18352WAT     H255299   8.849   7.809   5.598
18353WAT      O55300   5.927   9.056   5.331
18353WAT     H155301   5.866   9.009   5.267
18353WAT     H255302   5.971   9.134   5.285
18354WAT      O55303   8.966   9.509   9.063
18354WAT     H155304   8.891   9.451   9.093
18354WAT     H255305   9.003   9.475   8.976
18355WAT      O55306   7.038   2.809   6.414
18355WAT     H155307   7.113   2.750   6.384
18355WAT     H255308   6.953   2.777   6.374
18356WAT      O55309   9.760   7.311   1.179
18356WAT     H155310   9.666   7.275   1.173
18356WAT     H255311   9.824   7.234   1.182
18357WAT      O55312   7.096   3.767   8.151
18357WAT     H155313   7.151   3.850   8.142
18357WAT     H255314   7.005   3.784   8.112
18358WAT      O55315   6.726   7.325   0.714
18358WAT     H155316   6.707   7.318   0.616
18358WAT     H255317   6.824   7.321   0.730
18359WAT      O55318   5.768   3.236   1.777
18359WAT     H155319   5.712   3.241   1.860
18359WAT     H255320   5.740   3.156   1.723
18360WAT      O55321   7.802   3.236   5.892
18360WAT     H155322   7.746   3.234   5.809
18360WAT     H255323   7.853   3.150   5.900
18361WAT      O55324   7.143   3.942   6.545
18361WAT     H155325   7.100   3.963   6.458
18361WAT     H255326   7.239   3.918   6.530
18362WAT      O55327   6.514   1.085   1.610
18362WAT     H155328   6.614   1.081   1.615
18362WAT     H255329   6.487   1.124   1.522
18363WAT      O55330   4.106   5.418   3.010
18363WAT     H155331   4.156   5.500   2.980
18363WAT     H255332   4.137   5.339   2.956
18364WAT      O55333   6.177   5.014   8.164
18364WAT     H155334   6.094   4.997   8.110
18364WAT     H255335   6.180   4.950   8.241
18365WAT      O55336   6.352   4.589   6.041
18365WAT     H155337   6.352   4.492   6.066
18365WAT     H255338   6.380   4.643   6.120
18366WAT      O55339   9.053   7.699   1.986
18366WAT     H155340   9.153   7.693   1.986
18366WAT     H255341   9.016   7.644   1.910
18367WAT      O55342   1.364   1.254   4.819
18367WAT     H155343   1.355   1.240   4.917
18367WAT     H255344   1.364   1.352   4.799
18368WAT      O55345   8.043   7.433   2.445
18368WAT     H155346   8.124   7.428   2.505
18368WAT     H255347   8.016   7.340   2.419
18369WAT      O55348   7.695   1.980   5.521
18369WAT     H155349   7.769   2.015   5.464
18369WAT     H255350   7.733   1.931   5.599
18370WAT      O55351   6.138   0.035   7.237
18370WAT     H155352   6.131  -0.065   7.227
18370WAT     H255353   6.053   0.071   7.274
18371WAT      O55354   2.611   7.177   3.538
18371WAT     H155355   2.702   7.197   3.501
18371WAT     H255356   2.602   7.217   3.629
18372WAT      O55357   9.708   3.565   2.125
18372WAT     H155358   9.662   3.526   2.046
18372WAT     H255359   9.664   3.651   2.151
18373WAT      O55360   6.025   7.654   7.894
18373WAT     H155361   5.967   7.577   7.919
18373WAT     H255362   6.030   7.718   7.970
18374WAT      O55363   3.861   8.684   3.328
18374WAT     H155364   3.846   8.783   3.333
18374WAT     H255365   3.863   8.655   3.232
18375WAT      O55366   8.880   7.552   7.728
18375WAT     H155367   8.849   7.461   7.700
18375WAT     H255368   8.807   7.618   7.713
18376WAT      O55369   1.179   6.677   4.329
18376WAT     H155370   1.150   6.773   4.335
18376WAT     H255371   1.131   6.623   4.399
18377WAT      O55372   9.546   4.902   3.837
18377WAT     H155373   9.592   4.865   3.918
18377WAT     H255374   9.449   4.881   3.841
18378WAT      O55375   8.921   2.296   2.609
18378WAT     H155376   8.852   2.261   2.671
18378WAT     H255377   8.897   2.389   2.582
18379WAT      O55378   8.204   6.753   6.187
18379WAT     H155379   8.124   6.777   6.242
18379WAT     H255380   8.215   6.819   6.113
18380WAT      O55381   2.682   9.704   8.606
18380WAT     H155382   2.674   9.803   8.598
18380WAT     H255383   2.592   9.664   8.625
18381WAT      O55384   8.957   9.207   8.953
18381WAT     H155385   9.046   9.211   8.908
18381WAT     H255386   8.969   9.186   9.049
18382WAT      O55387   9.453   2.976   2.339
18382WAT     H155388   9.536   3.016   2.379
18382WAT     H255389   9.472   2.948   2.244
18383WAT      O55390   6.891   9.355   1.200
18383WAT     H155391   6.849   9.441   1.170
18383WAT     H255392   6.940   9.314   1.123
18384WAT      O55393   9.321   3.735   9.407
18384WAT     H155394   9.305   3.701   9.315
18384WAT     H255395   9.324   3.835   9.406
18385WAT      O55396   1.327   7.806   9.764
18385WAT     H155397   1.337   7.903   9.789
18385WAT     H255398   1.253   7.766   9.817
18386WAT      O55399   6.877   3.464   0.460
18386WAT     H155400   6.887   3.481   0.362
18386WAT     H255401   6.887   3.550   0.510
18387WAT      O55402   8.881   0.460   0.501
18387WAT     H155403   8.915   0.499   0.586
18387WAT     H255404   8.867   0.361   0.513
18388WAT      O55405   5.772   2.614   7.513
18388WAT     H155406   5.675   2.633   7.526
18388WAT     H255407   5.795   2.526   7.554
18389WAT      O55408   3.501   2.424   8.869
18389WAT     H155409   3.570   2.367   8.825
18389WAT     H255410   3.455   2.480   8.799
18390WAT      O55411   8.256   0.083   7.398
18390WAT     H155412   8.312   0.140   7.338
18390WAT     H255413   8.176   0.135   7.429
18391WAT      O55414   9.064   8.216   9.760
18391WAT     H155415   9.135   8.287   9.760
18391WAT     H255416   9.105   8.127   9.742
18392WAT      O55417   3.434   0.943   1.397
18392WAT     H155418   3.428   0.878   1.473
18392WAT     H255419   3.422   0.894   1.311
18393WAT      O55420   2.234   8.330   1.703
18393WAT     H155421   2.199   8.239   1.680
18393WAT     H255422   2.206   8.353   1.797
18394WAT      O55423   2.647   4.917   4.845
18394WAT     H155424   2.636   4.901   4.747
18394WAT     H255425   2.734   4.962   4.863
18395WAT      O55426   8.621   9.335   4.086
18395WAT     H155427   8.529   9.328   4.049
18395WAT     H255428   8.617   9.337   4.186
18396WAT      O55429   8.101   4.818   3.030
18396WAT     H155430   8.113   4.723   3.060
18396WAT     H255431   8.176   4.844   2.971
18397WAT      O55432   2.419   6.598   0.016
18397WAT     H155433   2.516   6.576   0.031
18397WAT     H255434   2.364   6.515   0.025
18398WAT      O55435   1.631   0.286   2.391
18398WAT     H155436   1.639   0.335   2.304
18398WAT     H255437   1.667   0.193   2.381
18399WAT      O55438   9.234   6.998   7.922
18399WAT     H155439   9.177   7.003   7.840
18399WAT     H255440   9.189   7.046   7.997
18400WAT      O55441   9.360   8.238   3.435
18400WAT     H155442   9.414   8.204   3.358
18400WAT     H255443   9.419   8.250   3.514
18401WAT      O55444   1.129   2.296   5.080
18401WAT     H155445   1.138   2.309   4.981
18401WAT     H255446   1.100   2.382   5.122
18402WAT      O55447   6.007   0.699   9.296
18402WAT     H155448   5.989   0.612   9.342
18402WAT     H255449   6.096   0.695   9.252
18403WAT      O55450   6.435   6.922   4.072
18403WAT     H155451   6.421   6.856   4.145
18403WAT     H255452   6.533   6.944   4.065
18404WAT      O55453   1.425   1.256   3.314
18404WAT     H155454   1.472   1.174   3.281
18404WAT     H255455   1.341   1.230   3.362
18405WAT      O55456   9.643   1.918   7.903
18405WAT     H155457   9.547   1.889   7.896
18405WAT     H255458   9.685   1.916   7.813
18406WAT      O55459   4.713   3.787   3.503
18406WAT     H155460   4.713   3.698   3.458
18406WAT     H255461   4.766   3.782   3.587
18407WAT      O55462   4.509   6.387   7.033
18407WAT     H155463   4.518   6.319   6.960
18407WAT     H255464   4.476   6.473   6.995
18408WAT      O55465   3.204   6.308   7.398
18408WAT     H155466   3.214   6.407   7.387
18408WAT     H255467   3.290   6.270   7.432
18409WAT      O55468   7.873   4.261   5.121
18409WAT     H155469   7.882   4.333   5.052
18409WAT     H255470   7.851   4.302   5.209
18410WAT      O55471   7.554   7.827   0.312
18410WAT     H155472   7.549   7.825   0.213
18410WAT     H255473   7.472   7.785   0.351
18411WAT      O55474   7.396   3.689   9.764
18411WAT     H155475   7.410   3.604   9.714
18411WAT     H255476   7.483   3.740   9.768
18412WAT      O55477   6.263   7.843   0.444
18412WAT     H155478   6.315   7.885   0.370
18412WAT     H255479   6.301   7.871   0.532
18413WAT      O55480   7.478   1.470   4.172
18413WAT     H155481   7.411   1.405   4.208
18413WAT     H255482   7.504   1.534   4.244
18414WAT      O55483   4.030   3.604   1.838
18414WAT     H155484   4.073   3.686   1.876
18414WAT     H255485   4.050   3.598   1.740
18415WAT      O55486   6.750   4.592   1.786
18415WAT     H155487   6.801   4.554   1.863
18415WAT     H255488   6.713   4.517   1.731
18416WAT      O55489   2.000   4.635   4.501
18416WAT     H155490   2.019   4.624   4.598
18416WAT     H255491   2.049   4.566   4.449
18417WAT      O55492   9.853   2.249   6.900
18417WAT     H155493   9.936   2.305   6.897
18417WAT     H255494   9.875   2.156   6.872
18418WAT      O55495   0.382   9.177   8.861
18418WAT     H155496   0.351   9.164   8.767
18418WAT     H255497   0.322   9.126   8.922
18419WAT      O55498   7.826   4.361   5.370
18419WAT     H155499   7.821   4.432   5.440
18419WAT     H255500   7.752   4.295   5.383
18420WAT      O55501   3.808   7.801   5.208
18420WAT     H155502   3.815   7.740   5.287
18420WAT     H255503   3.804   7.746   5.124
18421WAT      O55504   6.437   6.948   2.890
18421WAT     H155505   6.484   6.896   2.962
18421WAT     H255506   6.391   7.027   2.931
18422WAT      O55507   2.142   7.727   7.684
18422WAT     H155508   2.073   7.730   7.757
18422WAT     H255509   2.233   7.722   7.725
18423WAT      O55510   6.497   3.239   8.447
18423WAT     H155511   6.512   3.144   8.422
18423WAT     H255512   6.449   3.243   8.535
18424WAT      O55513   7.799   4.538   5.619
18424WAT     H155514   7.768   4.592   5.697
18424WAT     H255515   7.864   4.592   5.565
18425WAT      O55516   7.263   3.975   9.426
18425WAT     H155517   7.247   3.907   9.355
18425WAT     H255518   7.196   3.964   9.499
18426WAT      O55519   0.044   9.199   8.715
18426WAT     H155520   0.058   9.109   8.757
18426WAT     H255521   0.068   9.271   8.780
18427WAT      O55522   3.510   9.148   3.134
18427WAT     H155523   3.610   9.154   3.128
18427WAT     H255524   3.477   9.215   3.202
18428WAT      O55525   1.339   2.119   5.712
18428WAT     H155526   1.430   2.162   5.719
18428WAT     H255527   1.288   2.161   5.637
18429WAT      O55528   7.486   8.537   6.378
18429WAT     H155529   7.559   8.475   6.348
18429WAT     H255530   7.402   8.485   6.391
18430WAT      O55531   5.044   1.912   7.543
18430WAT     H155532   5.091   1.905   7.455
18430WAT     H255533   5.018   1.821   7.575
18431WAT      O55534   6.379   4.913   8.830
18431WAT     H155535   6.466   4.961   8.815
18431WAT     H255536   6.398   4.820   8.859
18432WAT      O55537   8.373   4.311   2.679
18432WAT     H155538   8.295   4.321   2.740
18432WAT     H255539   8.424   4.397   2.677
18433WAT      O55540   3.861   5.905   8.863
18433WAT     H155541   3.764   5.924   8.849
18433WAT     H255542   3.910   5.917   8.777
18434WAT      O55543   9.540   3.358   5.155
18434WAT     H155544   9.557   3.351   5.057
18434WAT     H255545   9.441   3.369   5.171
18435WAT      O55546   8.067   5.838   9.141
18435WAT     H155547   8.089   5.848   9.237
18435WAT     H255548   8.111   5.756   9.104
18436WAT      O55549   7.821   5.017   4.629
18436WAT     H155550   7.787   4.983   4.541
18436WAT     H255551   7.754   4.996   4.701
18437WAT      O55552   8.635   4.559   2.584
18437WAT     H155553   8.718   4.615   2.576
18437WAT     H255554   8.640   4.483   2.518
18438WAT      O55555   2.740   2.910   7.806
18438WAT     H155556   2.712   2.859   7.725
18438WAT     H255557   2.781   2.997   7.779
18439WAT      O55558   2.947   1.245   5.605
18439WAT     H155559   3.042   1.224   5.625
18439WAT     H255560   2.933   1.245   5.506
18440WAT      O55561   2.493   1.329   0.857
18440WAT     H155562   2.526   1.360   0.769
18440WAT     H255563   2.506   1.230   0.865
18441WAT      O55564   3.323   4.475   0.804
18441WAT     H155565   3.352   4.569   0.788
18441WAT     H255566   3.378   4.435   0.877
18442WAT      O55567   6.114   9.364   9.836
18442WAT     H155568   6.076   9.291   9.892
18442WAT     H255569   6.086   9.453   9.872
18443WAT      O55570   9.457   2.835   8.101
18443WAT     H155571   9.375   2.784   8.125
18443WAT     H255572   9.472   2.907   8.168
18444WAT      O55573   3.898   0.073   1.239
18444WAT     H155574   3.915   0.049   1.334
18444WAT     H255575   3.905   0.173   1.228
18445WAT      O55576   9.595   8.274   3.615
18445WAT     H155577   9.597   8.200   3.682
18445WAT     H255578   9.659   8.254   3.541
18446WAT      O55579   2.865   5.180   7.230
18446WAT     H155580   2.836   5.206   7.138
18446WAT     H255581   2.963   5.199   7.240
18447WAT      O55582   9.694   6.907   8.341
18447WAT     H155583   9.675   6.825   8.396
18447WAT     H255584   9.777   6.952   8.376
18448WAT      O55585   8.088   2.141   1.232
18448WAT     H155586   8.170   2.112   1.183
18448WAT     H255587   8.081   2.241   1.227
18449WAT      O55588   0.196   8.888   2.720
18449WAT     H155589   0.154   8.953   2.657
18449WAT     H255590   0.254   8.936   2.785
18450WAT      O55591   0.136   0.789   9.691
18450WAT     H155592   0.071   0.731   9.741
18450WAT     H255593   0.217   0.804   9.747
18451WAT      O55594   7.971   8.862   5.527
18451WAT     H155595   7.896   8.920   5.496
18451WAT     H255596   8.007   8.897   5.614
18452WAT      O55597   8.804   9.268   6.810
18452WAT     H155598   8.799   9.172   6.837
18452WAT     H255599   8.899   9.294   6.796
18453WAT      O55600   5.270   9.297   6.738
18453WAT     H155601   5.308   9.221   6.687
18453WAT     H255602   5.308   9.297   6.831
18454WAT      O55603   4.365   9.283   5.715
18454WAT     H155604   4.295   9.248   5.653
18454WAT     H255605   4.427   9.209   5.741
18455WAT      O55606   9.139   7.402   7.312
18455WAT     H155607   9.073   7.405   7.237
18455WAT     H255608   9.120   7.323   7.370
18456WAT      O55609   1.196   2.190   8.843
18456WAT     H155610   1.187   2.180   8.744
18456WAT     H255611   1.240   2.109   8.881
18457WAT      O55612   7.253   5.995   9.561
18457WAT     H155613   7.233   5.993   9.659
18457WAT     H255614   7.349   5.972   9.546
18458WAT      O55615   0.247   8.321   6.234
18458WAT     H155616   0.248   8.370   6.146
18458WAT     H255617   0.237   8.387   6.309
18459WAT      O55618   4.518   1.526   7.904
18459WAT     H155619   4.581   1.482   7.840
18459WAT     H255620   4.562   1.607   7.944
18460WAT      O55621   9.728   5.491   8.056
18460WAT     H155622   9.817   5.507   8.013
18460WAT     H255623   9.740   5.478   8.154
18461WAT      O55624   3.372   4.156   3.984
18461WAT     H155625   3.304   4.084   3.996
18461WAT     H255626   3.404   4.188   4.073
18462WAT      O55627   8.236   6.517   6.068
18462WAT     H155628   8.235   6.610   6.104
18462WAT     H255629   8.199   6.454   6.136
18463WAT      O55630   6.849   8.021   7.048
18463WAT     H155631   6.861   8.083   6.971
18463WAT     H255632   6.790   8.063   7.116
18464WAT      O55633   0.440   7.381   2.041
18464WAT     H155634   0.417   7.343   1.951
18464WAT     H255635   0.422   7.313   2.112
18465WAT      O55636   2.869   4.657   1.043
18465WAT     H155637   2.813   4.575   1.057
18465WAT     H255638   2.830   4.733   1.096
18466WAT      O55639   9.473   5.328   7.323
18466WAT     H155640   9.540   5.266   7.281
18466WAT     H255641   9.382   5.304   7.291
18467WAT      O55642   6.818   4.789   7.956
18467WAT     H155643   6.747   4.852   7.923
18467WAT     H255644   6.839   4.810   8.051
18468WAT      O55645   7.899   9.601   6.920
18468WAT     H155646   7.801   9.613   6.901
18468WAT     H255647   7.926   9.662   6.994
18469WAT      O55648   9.840   8.519   7.329
18469WAT     H155649   9.866   8.587   7.260
18469WAT     H255650   9.834   8.429   7.286
18470WAT      O55651   3.289   3.423   1.875
18470WAT     H155652   3.220   3.492   1.895
18470WAT     H255653   3.259   3.367   1.798
18471WAT      O55654   8.802   8.369   7.971
18471WAT     H155655   8.885   8.371   7.916
18471WAT     H255656   8.822   8.329   8.060
18472WAT      O55657   5.185   4.424   2.539
18472WAT     H155658   5.156   4.499   2.479
18472WAT     H255659   5.208   4.344   2.483
18473WAT      O55660   3.173   6.955   9.633
18473WAT     H155661   3.110   6.892   9.677
18473WAT     H255662   3.242   6.986   9.699
18474WAT      O55663   4.217   4.308   6.983
18474WAT     H155664   4.154   4.325   6.907
18474WAT     H255665   4.273   4.388   6.999
18475WAT      O55666   6.549   3.512   0.488
18475WAT     H155667   6.590   3.584   0.432
18475WAT     H255668   6.604   3.499   0.571
18476WAT      O55669   0.219   5.553   5.131
18476WAT     H155670   0.289   5.612   5.171
18476WAT     H255671   0.166   5.510   5.204
18477WAT      O55672   8.360   9.023   9.388
18477WAT     H155673   8.275   9.063   9.353
18477WAT     H255674   8.353   8.924   9.384
18478WAT      O55675   4.139   2.758   4.646
18478WAT     H155676   4.220   2.816   4.638
18478WAT     H255677   4.149   2.679   4.586
18479WAT      O55678   0.330   2.531   8.071
18479WAT     H155679   0.314   2.588   7.990
18479WAT     H255680   0.269   2.561   8.144
18480WAT      O55681   5.530   4.164   6.139
18480WAT     H155682   5.468   4.174   6.061
18480WAT     H255683   5.558   4.068   6.147
18481WAT      O55684   0.351   7.476   8.692
18481WAT     H155685   0.309   7.407   8.633
18481WAT     H255686   0.348   7.444   8.787
18482WAT      O55687   9.362   3.563   6.751
18482WAT     H155688   9.387   3.467   6.739
18482WAT     H255689   9.441   3.614   6.786
18483WAT      O55690   0.515   5.846   0.763
18483WAT     H155691   0.523   5.770   0.698
18483WAT     H255692   0.459   5.817   0.840
18484WAT      O55693   5.365   7.492   7.817
18484WAT     H155694   5.321   7.499   7.906
18484WAT     H255695   5.415   7.405   7.810
18485WAT      O55696   7.726   6.159   3.154
18485WAT     H155697   7.776   6.173   3.068
18485WAT     H255698   7.673   6.074   3.148
18486WAT      O55699   3.860   6.529   6.612
18486WAT     H155700   3.885   6.554   6.518
18486WAT     H255701   3.881   6.432   6.627
18487WAT      O55702   6.799   2.870   7.803
18487WAT     H155703   6.817   2.951   7.748
18487WAT     H255704   6.705   2.840   7.789
18488WAT      O55705   5.579   0.162   3.595
18488WAT     H155706   5.583   0.062   3.595
18488WAT     H255707   5.509   0.193   3.530
18489WAT      O55708   9.300   9.167   7.125
18489WAT     H155709   9.224   9.185   7.062
18489WAT     H255710   9.312   9.069   7.136
18490WAT      O55711   7.899   8.481   0.434
18490WAT     H155712   7.802   8.499   0.450
18490WAT     H255713   7.924   8.515   0.343
18491WAT      O55714   5.635   1.914   6.621
18491WAT     H155715   5.702   1.976   6.663
18491WAT     H255716   5.656   1.903   6.524
18492WAT      O55717   8.223   7.762   3.116
18492WAT     H155718   8.138   7.812   3.096
18492WAT     H255719   8.200   7.668   3.142
18493WAT      O55720   0.970   6.260   7.162
18493WAT     H155721   0.954   6.219   7.251
18493WAT     H255722   0.886   6.252   7.107
18494WAT      O55723   3.688   9.503   5.478
18494WAT     H155724   3.759   9.548   5.423
18494WAT     H255725   3.601   9.506   5.429
18495WAT      O55726   4.821   5.315   6.436
18495WAT     H155727   4.873   5.231   6.418
18495WAT     H255728   4.869   5.392   6.395
18496WAT      O55729   9.610   8.304   5.655
18496WAT     H155730   9.665   8.279   5.575
18496WAT     H255731   9.600   8.224   5.715
18497WAT      O55732   5.891   7.421   6.014
18497WAT     H155733   5.920   7.326   6.022
18497WAT     H255734   5.805   7.426   5.963
18498WAT      O55735   2.716   9.206   8.501
18498WAT     H155736   2.744   9.279   8.439
18498WAT     H255737   2.789   9.189   8.567
18499WAT      O55738   4.840   6.995   5.443
18499WAT     H155739   4.816   6.903   5.412
18499WAT     H255740   4.871   6.992   5.538
18500WAT      O55741   1.573   4.963   2.230
18500WAT     H155742   1.477   4.943   2.248
18500WAT     H255743   1.580   5.041   2.166
18501WAT      O55744   7.721   6.696   8.379
18501WAT     H155745   7.683   6.754   8.306
18501WAT     H255746   7.713   6.744   8.466
18502WAT      O55747   5.692   2.001   8.747
18502WAT     H155748   5.777   2.054   8.748
18502WAT     H255749   5.626   2.042   8.810
18503WAT      O55750   1.054   4.178   8.583
18503WAT     H155751   1.102   4.137   8.661
18503WAT     H255752   0.960   4.143   8.580
18504WAT      O55753   7.356   4.499   8.618
18504WAT     H155754   7.424   4.437   8.578
18504WAT     H255755   7.383   4.594   8.600
18505WAT      O55756   3.103   9.602   3.401
18505WAT     H155757   3.050   9.686   3.406
18505WAT     H255758   3.156   9.591   3.485
18506WAT      O55759   0.329   6.534   1.606
18506WAT     H155760   0.247   6.480   1.621
18506WAT     H255761   0.384   6.493   1.533
18507WAT      O55762   5.011   8.285   0.033
18507WAT     H155763   5.098   8.334   0.031
18507WAT     H255764   4.975   8.278  -0.060
18508WAT      O55765   9.637   9.723   8.358
18508WAT     H155766   9.624   9.770   8.271
18508WAT     H255767   9.657   9.627   8.342
18509WAT      O55768   1.282   8.097   3.075
18509WAT     H155769   1.336   8.100   3.159
18509WAT     H255770   1.320   8.029   3.013
18510WAT      O55771   9.185   2.705   0.810
18510WAT     H155772   9.091   2.726   0.835
18510WAT     H255773   9.240   2.788   0.813
18511WAT      O55774   1.671   6.614   3.861
18511WAT     H155775   1.670   6.713   3.880
18511WAT     H255776   1.732   6.568   3.925
18512WAT      O55777   5.347   1.022   1.540
18512WAT     H155778   5.289   1.058   1.467
18512WAT     H255779   5.397   1.097   1.583
18513WAT      O55780   6.443   5.989   5.079
18513WAT     H155781   6.397   6.077   5.084
18513WAT     H255782   6.375   5.916   5.076
18514WAT      O55783   7.152   4.458   1.803
18514WAT     H155784   7.213   4.478   1.727
18514WAT     H255785   7.076   4.522   1.803
18515WAT      O55786   8.421   8.815   0.452
18515WAT     H155787   8.390   8.846   0.362
18515WAT     H255788   8.520   8.831   0.460
18516WAT      O55789   6.874   4.606   6.283
18516WAT     H155790   6.835   4.660   6.208
18516WAT     H255791   6.865   4.658   6.369
18517WAT      O55792   6.063   6.616   0.795
18517WAT     H155793   5.976   6.654   0.763
18517WAT     H255794   6.077   6.526   0.754
18518WAT      O55795   3.624   3.026   4.751
18518WAT     H155796   3.586   3.085   4.822
18518WAT     H255797   3.582   3.048   4.663
18519WAT      O55798   0.351   4.525   1.566
18519WAT     H155799   0.421   4.459   1.539
18519WAT     H255800   0.261   4.483   1.558
18520WAT      O55801   7.485   6.794   1.694
18520WAT     H155802   7.416   6.734   1.735
18520WAT     H255803   7.451   6.889   1.694
18521WAT      O55804   6.686   1.605   9.500
18521WAT     H155805   6.773   1.611   9.450
18521WAT     H255806   6.646   1.515   9.485
18522WAT      O55807   1.106   5.217   1.248
18522WAT     H155808   1.116   5.130   1.296
18522WAT     H255809   1.091   5.291   1.314
18523WAT      O55810   7.454   8.441   4.031
18523WAT     H155811   7.371   8.459   4.083
18523WAT     H255812   7.482   8.346   4.045
18524WAT      O55813   9.611   6.394   2.115
18524WAT     H155814   9.701   6.390   2.158
18524WAT     H255815   9.550   6.328   2.158
18525WAT      O55816   4.150   2.059   5.778
18525WAT     H155817   4.200   2.001   5.714
18525WAT     H255818   4.159   2.023   5.871
18526WAT      O55819   2.756   8.878   7.118
18526WAT     H155820   2.782   8.880   7.021
18526WAT     H255821   2.749   8.783   7.148
18527WAT      O55822   7.396   6.794   2.584
18527WAT     H155823   7.347   6.854   2.521
18527WAT     H255824   7.337   6.716   2.608
18528WAT      O55825   1.057   9.197   2.669
18528WAT     H155826   1.063   9.234   2.576
18528WAT     H255827   0.981   9.133   2.675
18529WAT      O55828   9.621   5.773   8.721
18529WAT     H155829   9.652   5.808   8.809
18529WAT     H255830   9.592   5.850   8.663
18530WAT      O55831   4.008   3.154   2.402
18530WAT     H155832   4.003   3.214   2.482
18530WAT     H255833   3.982   3.206   2.320
18531WAT      O55834   8.270   4.345   6.292
18531WAT     H155835   8.364   4.378   6.279
18531WAT     H255836   8.206   4.416   6.262
18532WAT      O55837   0.959   6.834   0.367
18532WAT     H155838   0.861   6.827   0.349
18532WAT     H255839   0.979   6.798   0.459
18533WAT      O55840   9.031   6.213   0.354
18533WAT     H155841   8.977   6.130   0.357
18533WAT     H255842   9.093   6.215   0.433
18534WAT      O55843   4.436   6.085   7.904
18534WAT     H155844   4.354   6.065   7.850
18534WAT     H255845   4.437   6.183   7.926
18535WAT      O55846   7.678   5.571   2.853
18535WAT     H155847   7.645   5.547   2.762
18535WAT     H255848   7.664   5.669   2.869
18536WAT      O55849   7.379   6.729   9.816
18536WAT     H155850   7.327   6.670   9.878
18536WAT     H255851   7.448   6.676   9.768
18537WAT      O55852   0.231   8.762   4.470
18537WAT     H155853   0.250   8.698   4.396
18537WAT     H255854   0.160   8.826   4.442
18538WAT      O55855   3.515   9.277   3.735
18538WAT     H155856   3.590   9.247   3.675
18538WAT     H255857   3.529   9.240   3.827
18539WAT      O55858   5.584   6.189   4.639
18539WAT     H155859   5.517   6.115   4.645
18539WAT     H255860   5.668   6.156   4.597
18540WAT      O55861   3.513   4.224   4.207
18540WAT     H155862   3.580   4.158   4.240
18540WAT     H255863   3.545   4.317   4.226
18541WAT      O55864   8.621   4.758   4.774
18541WAT     H155865   8.653   4.852   4.767
18541WAT     H255866   8.542   4.745   4.713
18542WAT      O55867   1.493   8.971   3.984
18542WAT     H155868   1.580   8.940   3.947
18542WAT     H255869   1.421   8.954   3.916
18543WAT      O55870   1.964   7.406   5.577
18543WAT     H155871   1.996   7.321   5.534
18543WAT     H255872   2.035   7.476   5.569
18544WAT      O55873   4.444   3.752   8.337
18544WAT     H155874   4.353   3.767   8.299
18544WAT     H255875   4.477   3.662   8.311
18545WAT      O55876   9.321   2.602   2.066
18545WAT     H155877   9.366   2.566   2.148
18545WAT     H255878   9.224   2.579   2.069
18546WAT      O55879   2.834   2.806   2.995
18546WAT     H155880   2.801   2.725   3.044
18546WAT     H255881   2.805   2.801   2.900
18547WAT      O55882   6.698   9.286   1.726
18547WAT     H155883   6.643   9.228   1.665
18547WAT     H255884   6.638   9.345   1.779
18548WAT      O55885   2.755   2.232   9.089
18548WAT     H155886   2.706   2.318   9.074
18548WAT     H255887   2.845   2.251   9.128
18549WAT      O55888   6.180   9.441   8.114
18549WAT     H155889   6.254   9.505   8.096
18549WAT     H255890   6.092   9.488   8.102
18550WAT      O55891   6.674   8.399   5.019
18550WAT     H155892   6.755   8.415   5.075
18550WAT     H255893   6.702   8.391   4.923
18551WAT      O55894   5.885   3.409   3.467
18551WAT     H155895   5.801   3.463   3.474
18551WAT     H255896   5.900   3.358   3.552
18552WAT      O55897   4.594   8.477   4.350
18552WAT     H155898   4.645   8.395   4.379
18552WAT     H255899   4.496   8.460   4.360
18553WAT      O55900   1.130   8.748   2.498
18553WAT     H155901   1.189   8.816   2.455
18553WAT     H255902   1.052   8.727   2.439
18554WAT      O55903   8.169   8.003   5.918
18554WAT     H155904   8.177   7.927   5.982
18554WAT     H255905   8.253   8.058   5.921
18555WAT      O55906   4.875   8.479   4.031
18555WAT     H155907   4.840   8.397   4.075
18555WAT     H255908   4.925   8.535   4.097
18556WAT      O55909   9.881   2.092   8.569
18556WAT     H155910   9.897   2.002   8.529
18556WAT     H255911   9.962   2.121   8.620
18557WAT      O55912   6.447   2.835   5.778
18557WAT     H155913   6.400   2.918   5.747
18557WAT     H255914   6.388   2.756   5.761
18558WAT      O55915   6.367   1.930   6.050
18558WAT     H155916   6.431   2.004   6.031
18558WAT     H255917   6.281   1.968   6.083
18559WAT      O55918   4.998   5.458   1.876
18559WAT     H155919   5.006   5.520   1.953
18559WAT     H255920   4.926   5.391   1.894
18560WAT      O55921   2.408   1.337   8.928
18560WAT     H155922   2.314   1.343   8.961
18560WAT     H255923   2.424   1.406   8.858
18561WAT      O55924   0.383   7.116   2.846
18561WAT     H155925   0.368   7.143   2.750
18561WAT     H255926   0.456   7.172   2.885
18562WAT      O55927   2.049   5.435   4.803
18562WAT     H155928   2.090   5.351   4.766
18562WAT     H255929   1.979   5.411   4.870
18563WAT      O55930   3.429   5.401   9.485
18563WAT     H155931   3.428   5.461   9.405
18563WAT     H255932   3.418   5.456   9.568
18564WAT      O55933   9.549   8.836   8.470
18564WAT     H155934   9.573   8.904   8.402
18564WAT     H255935   9.547   8.745   8.428
18565WAT      O55936   8.566   0.434   3.851
18565WAT     H155937   8.612   0.431   3.940
18565WAT     H255938   8.625   0.392   3.782
18566WAT      O55939   1.519   8.355   1.803
18566WAT     H155940   1.448   8.302   1.757
18566WAT     H255941   1.523   8.329   1.899
18567WAT      O55942   5.912   2.297   7.074
18567WAT     H155943   5.897   2.377   7.131
18567WAT     H255944   5.988   2.243   7.110
18568WAT      O55945   6.673   1.626   0.246
18568WAT     H155946   6.597   1.614   0.182
18568WAT     H255947   6.637   1.645   0.338
18569WAT      O55948   7.656   9.010   2.840
18569WAT     H155949   7.579   9.003   2.903
18569WAT     H255950   7.709   8.925   2.842
18570WAT      O55951   4.848   1.888   6.402
18570WAT     H155952   4.864   1.930   6.313
18570WAT     H255953   4.835   1.960   6.470
18571WAT      O55954   3.068   6.589   3.151
18571WAT     H155955   3.118   6.669   3.186
18571WAT     H255956   3.030   6.538   3.228
18572WAT      O55957   1.386   3.558   1.743
18572WAT     H155958   1.295   3.523   1.762
18572WAT     H255959   1.443   3.550   1.826
18573WAT      O55960   2.068   4.981   2.030
18573WAT     H155961   1.973   4.998   2.003
18573WAT     H255962   2.070   4.907   2.098
18574WAT      O55963   2.008   1.058   4.006
18574WAT     H155964   1.916   1.086   4.036
18574WAT     H255965   2.066   1.139   3.998
18575WAT      O55966   1.061   8.043   4.681
18575WAT     H155967   1.007   7.970   4.723
18575WAT     H255968   1.146   8.006   4.644
18576WAT      O55969   1.923   2.582   6.914
18576WAT     H155970   1.845   2.642   6.896
18576WAT     H255971   1.898   2.487   6.893
18577WAT      O55972   7.119   1.906   9.896
18577WAT     H155973   7.070   1.992   9.884
18577WAT     H255974   7.106   1.849   9.815
18578WAT      O55975   1.006   6.050   0.122
18578WAT     H155976   0.979   6.067   0.216
18578WAT     H255977   1.019   6.137   0.074
18579WAT      O55978   1.639   3.725   8.991
18579WAT     H155979   1.623   3.732   8.892
18579WAT     H255980   1.651   3.816   9.029
18580WAT      O55981   3.462   4.189   6.239
18580WAT     H155982   3.422   4.250   6.308
18580WAT     H255983   3.558   4.213   6.226
18581WAT      O55984   9.555   9.713   8.030
18581WAT     H155985   9.485   9.762   8.082
18581WAT     H255986   9.537   9.615   8.033
18582WAT      O55987   6.901   9.281   2.889
18582WAT     H155988   6.978   9.325   2.843
18582WAT     H255989   6.932   9.196   2.932
18583WAT      O55990   0.361   3.063   9.142
18583WAT     H155991   0.381   2.967   9.123
18583WAT     H255992   0.439   3.105   9.189
18584WAT      O55993   4.239   1.671   9.640
18584WAT     H155994   4.191   1.605   9.698
18584WAT     H255995   4.211   1.764   9.665
18585WAT      O55996   1.061   5.115   6.699
18585WAT     H155997   1.048   5.106   6.798
18585WAT     H255998   0.986   5.070   6.652
18586WAT      O55999   4.224   5.655   2.894
18586WAT     H156000   4.264   5.649   2.986
18586WAT     H256001   4.198   5.749   2.876
18587WAT      O56002   0.619   5.664   9.222
18587WAT     H156003   0.663   5.753   9.227
18587WAT     H256004   0.665   5.601   9.285
18588WAT      O56005   4.601   9.526   7.195
18588WAT     H156006   4.598   9.534   7.294
18588WAT     H256007   4.688   9.484   7.167
18589WAT      O56008   2.696   4.453   8.264
18589WAT     H156009   2.750   4.403   8.197
18589WAT     H256010   2.725   4.429   8.356
18590WAT      O56011   3.296   0.216   1.063
18590WAT     H156012   3.263   0.265   1.143
18590WAT     H256013   3.318   0.281   0.991
18591WAT      O56014   5.094   1.314   6.860
18591WAT     H156015   5.122   1.288   6.952
18591WAT     H256016   5.147   1.394   6.831
18592WAT      O56017   9.864   3.068   9.698
18592WAT     H156018   9.902   3.094   9.787
18592WAT     H256019   9.894   2.975   9.675
18593WAT      O56020   5.799   2.997   7.919
18593WAT     H156021   5.809   2.903   7.887
18593WAT     H256022   5.744   3.049   7.854
18594WAT      O56023   7.862   5.666   9.239
18594WAT     H156024   7.783   5.724   9.258
18594WAT     H256025   7.932   5.719   9.192
18595WAT      O56026   8.692   8.122   5.842
18595WAT     H156027   8.736   8.033   5.830
18595WAT     H256028   8.696   8.172   5.755
18596WAT      O56029   7.019   3.900   0.030
18596WAT     H156030   7.107   3.860   0.005
18596WAT     H256031   7.013   3.993  -0.007
18597WAT      O56032   0.978   0.268   0.047
18597WAT     H156033   1.070   0.232   0.034
18597WAT     H256034   0.933   0.279  -0.042
18598WAT      O56035   2.947   9.435   8.728
18598WAT     H156036   3.001   9.352   8.714
18598WAT     H256037   2.915   9.438   8.822
18599WAT      O56038   0.338   8.218   9.796
18599WAT     H156039   0.421   8.256   9.756
18599WAT     H256040   0.264   8.222   9.730
18600WAT      O56041   5.655   0.993   3.884
18600WAT     H156042   5.613   0.970   3.796
18600WAT     H256043   5.725   0.926   3.906
18601WAT      O56044   9.811   8.452   4.147
18601WAT     H156045   9.830   8.542   4.187
18601WAT     H256046   9.885   8.389   4.170
18602WAT      O56047   3.481   4.985   4.270
18602WAT     H156048   3.431   4.985   4.357
18602WAT     H256049   3.425   4.941   4.200
18603WAT      O56050   6.909   7.308   5.800
18603WAT     H156051   6.844   7.358   5.857
18603WAT     H256052   6.948   7.232   5.853
18604WAT      O56053   9.061   4.549   4.137
18604WAT     H156054   8.973   4.548   4.089
18604WAT     H256055   9.105   4.460   4.129
18605WAT      O56056   6.398   6.237   1.370
18605WAT     H156057   6.468   6.231   1.441
18605WAT     H256058   6.307   6.233   1.412
18606WAT      O56059   8.612   7.732   4.129
18606WAT     H156060   8.515   7.706   4.135
18606WAT     H256061   8.668   7.659   4.168
18607WAT      O56062   9.754   9.149   3.943
18607WAT     H156063   9.684   9.162   3.872
18607WAT     H256064   9.783   9.053   3.945
18608WAT      O56065   7.259   7.011   2.720
18608WAT     H156066   7.299   7.102   2.721
18608WAT     H256067   7.330   6.943   2.704
18609WAT      O56068   6.060   2.461   1.305
18609WAT     H156069   6.148   2.421   1.279
18609WAT     H256070   6.028   2.521   1.232
18610WAT      O56071   7.261   1.912   1.266
18610WAT     H156072   7.186   1.976   1.250
18610WAT     H256073   7.241   1.825   1.221
18611WAT      O56074   6.187   2.450   4.802
18611WAT     H156075   6.144   2.398   4.729
18611WAT     H256076   6.116   2.490   4.861
18612WAT      O56077   0.232   1.927   8.958
18612WAT     H156078   0.148   1.948   9.007
18612WAT     H256079   0.302   1.897   9.023
18613WAT      O56080   1.374   3.246   1.545
18613WAT     H156081   1.428   3.162   1.548
18613WAT     H256082   1.314   3.250   1.625
18614WAT      O56083   9.218   5.568   7.572
18614WAT     H156084   9.172   5.518   7.499
18614WAT     H256085   9.315   5.541   7.575
18615WAT      O56086   4.501   8.321   9.383
18615WAT     H156087   4.469   8.288   9.472
18615WAT     H256088   4.467   8.260   9.311
18616WAT      O56089   0.981   4.111   5.221
18616WAT     H156090   0.884   4.084   5.218
18616WAT     H256091   1.037   4.037   5.186
18617WAT      O56092   4.660   2.338   2.231
18617WAT     H156093   4.649   2.426   2.185
18617WAT     H256094   4.757   2.312   2.231
18618WAT      O56095   8.927   4.659   3.235
18618WAT     H156096   8.912   4.588   3.304
18618WAT     H256097   8.852   4.660   3.170
18619WAT      O56098   6.847   1.444   3.573
18619WAT     H156099   6.816   1.462   3.667
18619WAT     H256100   6.934   1.396   3.576
18620WAT      O56101   6.570   4.294   1.285
18620WAT     H156102   6.536   4.216   1.338
18620WAT     H256103   6.661   4.273   1.249
18621WAT      O56104   2.241   6.508   3.852
18621WAT     H156105   2.259   6.524   3.949
18621WAT     H256106   2.322   6.469   3.809
18622WAT      O56107   2.819   5.766   0.881
18622WAT     H156108   2.893   5.776   0.947
18622WAT     H256109   2.748   5.706   0.919
18623WAT      O56110   2.590   9.175   6.458
18623WAT     H156111   2.678   9.182   6.412
18623WAT     H256112   2.520   9.223   6.406
18624WAT      O56113   6.006   7.424   9.704
18624WAT     H156114   6.034   7.517   9.727
18624WAT     H256115   5.947   7.425   9.623
18625WAT      O56116   7.558   1.329   2.473
18625WAT     H156117   7.578   1.392   2.398
18625WAT     H256118   7.503   1.376   2.542
18626WAT      O56119   7.563   3.025   1.144
18626WAT     H156120   7.614   3.048   1.226
18626WAT     H256121   7.482   3.084   1.137
18627WAT      O56122   6.382   7.636   4.102
18627WAT     H156123   6.480   7.645   4.123
18627WAT     H256124   6.367   7.554   4.048
18628WAT      O56125   4.757   5.129   1.757
18628WAT     H156126   4.675   5.072   1.764
18628WAT     H256127   4.755   5.180   1.672
18629WAT      O56128   4.033   1.231   7.403
18629WAT     H156129   3.990   1.319   7.425
18629WAT     H256130   4.121   1.248   7.357
18630WAT      O56131   0.380   8.299   4.070
18630WAT     H156132   0.449   8.368   4.048
18630WAT     H256133   0.424   8.224   4.120
18631WAT      O56134   0.290   4.967   3.101
18631WAT     H156135   0.198   4.996   3.076
18631WAT     H256136   0.354   5.042   3.082
18632WAT      O56137   1.267   7.632   2.373
18632WAT     H156138   1.285   7.680   2.459
18632WAT     H256139   1.352   7.595   2.337
18633WAT      O56140   1.656   6.868   0.888
18633WAT     H156141   1.617   6.806   0.820
18633WAT     H256142   1.721   6.929   0.843
18634WAT      O56143   6.260   1.465   2.157
18634WAT     H156144   6.359   1.450   2.165
18634WAT     H256145   6.220   1.391   2.103
18635WAT      O56146   2.646   0.054   5.569
18635WAT     H156147   2.744   0.062   5.586
18635WAT     H256148   2.595   0.097   5.644
18636WAT      O56149   5.602   1.467   0.967
18636WAT     H156150   5.675   1.513   0.918
18636WAT     H256151   5.636   1.381   1.005
18637WAT      O56152   2.053   4.872   4.318
18637WAT     H156153   2.058   4.833   4.410
18637WAT     H256154   2.014   4.805   4.256
18638WAT      O56155   3.840   3.118   0.312
18638WAT     H156156   3.916   3.116   0.247
18638WAT     H256157   3.812   3.212   0.328
18639WAT      O56158   4.665   9.836   0.805
18639WAT     H156159   4.699   9.770   0.739
18639WAT     H256160   4.569   9.815   0.827
18640WAT      O56161   1.840   2.851   5.702
18640WAT     H156162   1.903   2.929   5.702
18640WAT     H256163   1.787   2.851   5.617
18641WAT      O56164   9.502   3.879   5.474
18641WAT     H156165   9.519   3.825   5.392
18641WAT     H256166   9.590   3.907   5.514
18642WAT      O56167   4.222   2.474   3.863
18642WAT     H156168   4.169   2.434   3.938
18642WAT     H256169   4.189   2.567   3.845
18643WAT      O56170   1.713   5.488   2.052
18643WAT     H156171   1.724   5.426   2.129
18643WAT     H256172   1.636   5.549   2.069
18644WAT      O56173   7.029   9.676   1.857
18644WAT     H156174   7.053   9.588   1.815
18644WAT     H256175   6.931   9.678   1.877
18645WAT      O56176   5.764   1.809   5.096
18645WAT     H156177   5.853   1.810   5.052
18645WAT     H256178   5.753   1.724   5.147
18646WAT      O56179   3.365   7.286   1.933
18646WAT     H156180   3.327   7.324   2.017
18646WAT     H256181   3.291   7.256   1.873
18647WAT      O56182   5.065   8.190   2.237
18647WAT     H156183   5.045   8.156   2.328
18647WAT     H256184   5.027   8.282   2.227
18648WAT      O56185   6.773   4.358   0.478
18648WAT     H156186   6.709   4.288   0.445
18648WAT     H256187   6.867   4.326   0.467
18649WAT      O56188   4.287   5.463   5.030
18649WAT     H156189   4.355   5.526   4.990
18649WAT     H256190   4.332   5.404   5.097
18650WAT      O56191   2.526   4.520   8.651
18650WAT     H156192   2.476   4.544   8.568
18650WAT     H256193   2.563   4.603   8.692
18651WAT      O56194   3.117   8.529   0.751
18651WAT     H156195   3.182   8.573   0.689
18651WAT     H256196   3.055   8.472   0.698
18652WAT      O56197   2.424   2.112   6.396
18652WAT     H156198   2.495   2.100   6.327
18652WAT     H256199   2.411   2.209   6.415
18653WAT      O56200   8.610   4.163   6.322
18653WAT     H156201   8.708   4.163   6.300
18653WAT     H256202   8.568   4.247   6.285
18654WAT      O56203   1.060   3.067   2.175
18654WAT     H156204   1.110   3.126   2.238
18654WAT     H256205   0.971   3.108   2.155
18655WAT      O56206   9.390   5.615   6.207
18655WAT     H156207   9.320   5.637   6.139
18655WAT     H256208   9.364   5.655   6.295
18656WAT      O56209   3.852   1.792   7.210
18656WAT     H156210   3.839   1.770   7.113
18656WAT     H256211   3.778   1.852   7.241
18657WAT      O56212   0.571   4.777   9.066
18657WAT     H156213   0.583   4.686   9.027
18657WAT     H256214   0.620   4.784   9.152
18658WAT      O56215   3.289   1.964   2.552
18658WAT     H156216   3.348   1.988   2.629
18658WAT     H256217   3.271   2.045   2.497
18659WAT      O56218   1.130   8.617   9.699
18659WAT     H156219   1.122   8.714   9.675
18659WAT     H256220   1.153   8.564   9.618
18660WAT      O56221   5.724   2.049   0.398
18660WAT     H156222   5.804   2.102   0.428
18660WAT     H256223   5.751   1.988   0.324
18661WAT      O56224   0.754   6.535   6.547
18661WAT     H156225   0.782   6.631   6.540
18661WAT     H256226   0.654   6.529   6.540
18662WAT      O56227   4.232   1.575   7.347
18662WAT     H156228   4.214   1.605   7.254
18662WAT     H256229   4.228   1.475   7.352
18663WAT      O56230   1.852   7.327   0.030
18663WAT     H156231   1.918   7.351   0.102
18663WAT     H256232   1.815   7.411  -0.010
18664WAT      O56233   8.114   5.636   6.720
18664WAT     H156234   8.163   5.557   6.757
18664WAT     H256235   8.051   5.671   6.789
18665WAT      O56236   0.229   9.712   7.804
18665WAT     H156237   0.175   9.779   7.754
18665WAT     H256238   0.316   9.697   7.757
18666WAT      O56239   1.341   2.064   3.831
18666WAT     H156240   1.436   2.047   3.856
18666WAT     H256241   1.283   1.994   3.874
18667WAT      O56242   4.055   7.326  -0.004
18667WAT     H156243   4.056   7.301   0.093
18667WAT     H256244   4.040   7.425  -0.012
18668WAT      O56245   5.282   3.945   8.867
18668WAT     H156246   5.363   3.900   8.904
18668WAT     H256247   5.291   4.044   8.878
18669WAT      O56248   4.975   5.400   0.762
18669WAT     H156249   4.892   5.358   0.726
18669WAT     H256250   4.983   5.379   0.860
18670WAT      O56251   2.361   9.468   1.363
18670WAT     H156252   2.271   9.509   1.351
18670WAT     H256253   2.392   9.482   1.457
18671WAT      O56254   7.249   5.169   2.053
18671WAT     H156255   7.162   5.176   2.005
18671WAT     H256256   7.247   5.228   2.134
18672WAT      O56257   1.236   1.252   6.306
18672WAT     H156258   1.312   1.187   6.314
18672WAT     H256259   1.215   1.289   6.397
18673WAT      O56260   7.396   6.937   6.472
18673WAT     H156261   7.467   6.986   6.524
18673WAT     H256262   7.395   6.971   6.378
18674WAT      O56263   5.411   5.002   9.114
18674WAT     H156264   5.384   4.908   9.092
18674WAT     H256265   5.438   5.050   9.031
18675WAT      O56266   8.262   7.182   1.782
18675WAT     H156267   8.266   7.142   1.691
18675WAT     H256268   8.342   7.153   1.834
18676WAT      O56269   7.561   2.890   9.263
18676WAT     H156270   7.598   2.982   9.278
18676WAT     H256271   7.534   2.880   9.167
18677WAT      O56272   5.795   5.934   5.519
18677WAT     H156273   5.784   5.837   5.540
18677WAT     H256274   5.892   5.959   5.525
18678WAT      O56275   1.448   1.786   4.140
18678WAT     H156276   1.434   1.759   4.235
18678WAT     H256277   1.401   1.873   4.123
18679WAT      O56278   4.432   1.930   7.115
18679WAT     H156279   4.333   1.939   7.126
18679WAT     H256280   4.470   1.876   7.190
18680WAT      O56281   5.417   1.623   6.381
18680WAT     H156282   5.382   1.701   6.433
18680WAT     H256283   5.444   1.550   6.445
18681WAT      O56284   7.810   3.264   8.712
18681WAT     H156285   7.804   3.164   8.718
18681WAT     H256286   7.728   3.304   8.752
18682WAT      O56287   4.068   3.922   2.132
18682WAT     H156288   3.968   3.914   2.134
18682WAT     H256289   4.100   3.908   2.038
18683WAT      O56290   1.245   5.379   0.428
18683WAT     H156291   1.262   5.405   0.333
18683WAT     H256292   1.171   5.311   0.431
18684WAT      O56293   3.056   7.908   3.924
18684WAT     H156294   3.072   7.809   3.925
18684WAT     H256295   3.068   7.942   3.831
18685WAT      O56296   5.349   7.670   9.567
18685WAT     H156297   5.355   7.664   9.667
18685WAT     H256298   5.315   7.583   9.531
18686WAT      O56299   5.451   0.355   3.944
18686WAT     H156300   5.542   0.338   3.905
18686WAT     H256301   5.397   0.271   3.943
18687WAT      O56302   7.760   8.655   3.231
18687WAT     H156303   7.737   8.570   3.277
18687WAT     H256304   7.768   8.639   3.132
18688WAT      O56305   2.534   3.854   4.585
18688WAT     H156306   2.613   3.829   4.529
18688WAT     H256307   2.503   3.773   4.636
18689WAT      O56308   3.710   6.843   8.697
18689WAT     H156309   3.753   6.813   8.612
18689WAT     H256310   3.762   6.919   8.736
18690WAT      O56311   7.134   0.309   1.174
18690WAT     H156312   7.080   0.320   1.258
18690WAT     H256313   7.194   0.388   1.163
18691WAT      O56314   5.709   8.829   4.920
18691WAT     H156315   5.802   8.837   4.884
18691WAT     H256316   5.647   8.802   4.847
18692WAT      O56317   0.774   5.583   8.713
18692WAT     H156318   0.680   5.548   8.717
18692WAT     H256319   0.814   5.580   8.805
18693WAT      O56320   7.226   8.472   2.328
18693WAT     H156321   7.254   8.389   2.280
18693WAT     H256322   7.169   8.448   2.406
18694WAT      O56323   2.575   0.534   2.223
18694WAT     H156324   2.509   0.589   2.273
18694WAT     H256325   2.586   0.446   2.269
18695WAT      O56326   7.435   0.723   2.647
18695WAT     H156327   7.503   0.680   2.706
18695WAT     H256328   7.481   0.767   2.570
18696WAT      O56329   2.696   6.258   2.247
18696WAT     H156330   2.782   6.272   2.298
18696WAT     H256331   2.640   6.340   2.255
18697WAT      O56332   7.643   0.298   3.203
18697WAT     H156333   7.723   0.239   3.191
18697WAT     H256334   7.659   0.386   3.158
18698WAT      O56335   2.096   9.639   9.038
18698WAT     H156336   2.048   9.726   9.038
18698WAT     H256337   2.161   9.637   9.114
18699WAT      O56338   5.270   8.152   4.770
18699WAT     H156339   5.354   8.200   4.744
18699WAT     H256340   5.267   8.063   4.724
18700WAT      O56341   9.693   5.163   7.767
18700WAT     H156342   9.701   5.245   7.711
18700WAT     H256343   9.672   5.189   7.861
18701WAT      O56344   0.866   2.681   8.179
18701WAT     H156345   0.910   2.711   8.094
18701WAT     H256346   0.904   2.593   8.207
18702WAT      O56347   8.001   3.024   6.011
18702WAT     H156348   8.016   3.025   6.110
18702WAT     H256349   7.941   2.947   5.988
18703WAT      O56350   0.392   6.880   8.351
18703WAT     H156351   0.435   6.884   8.261
18703WAT     H256352   0.411   6.791   8.393
18704WAT      O56353   0.136   0.961   7.219
18704WAT     H156354   0.063   1.016   7.179
18704WAT     H256355   0.218   1.017   7.230
18705WAT      O56356   0.314   3.242   8.831
18705WAT     H156357   0.404   3.261   8.793
18705WAT     H256358   0.260   3.326   8.832
18706WAT      O56359   1.996   6.983   1.897
18706WAT     H156360   1.990   6.883   1.901
18706WAT     H256361   1.922   7.019   1.839
18707WAT      O56362   6.786   8.380   9.085
18707WAT     H156363   6.696   8.406   9.050
18707WAT     H256364   6.812   8.291   9.048
18708WAT      O56365   2.824   9.588   0.116
18708WAT     H156366   2.880   9.652   0.064
18708WAT     H256367   2.884   9.518   0.156
18709WAT      O56368   6.709   4.032   3.977
18709WAT     H156369   6.705   3.934   3.957
18709WAT     H256370   6.802   4.066   3.964
18710WAT      O56371   6.095   0.094   2.975
18710WAT     H156372   6.072   0.027   3.046
18710WAT     H256373   6.035   0.174   2.983
18711WAT      O56374   8.454   8.581   8.198
18711WAT     H156375   8.447   8.625   8.287
18711WAT     H256376   8.370   8.532   8.178
18712WAT      O56377   8.793   1.877   8.430
18712WAT     H156378   8.780   1.780   8.447
18712WAT     H256379   8.709   1.915   8.392
18713WAT      O56380   4.795   2.502   6.685
18713WAT     H156381   4.786   2.601   6.676
18713WAT     H256382   4.829   2.480   6.777
18714WAT      O56383   8.196   5.655   6.043
18714WAT     H156384   8.250   5.703   6.112
18714WAT     H256385   8.251   5.640   5.961
18715WAT      O56386   7.495   0.105   8.550
18715WAT     H156387   7.463   0.010   8.542
18715WAT     H256388   7.459   0.158   8.472
18716WAT      O56389   7.885   0.283   7.229
18716WAT     H156390   7.919   0.285   7.323
18716WAT     H256391   7.842   0.370   7.208
18717WAT      O56392   8.890   6.383   9.741
18717WAT     H156393   8.933   6.335   9.665
18717WAT     H256394   8.958   6.436   9.791
18718WAT      O56395   5.475   8.921   1.911
18718WAT     H156396   5.530   8.838   1.900
18718WAT     H256397   5.396   8.916   1.850
18719WAT      O56398   0.436   0.509   5.620
18719WAT     H156399   0.512   0.457   5.660
18719WAT     H256400   0.370   0.532   5.691
18720WAT      O56401   4.940   4.129   9.453
18720WAT     H156402   4.976   4.168   9.369
18720WAT     H256403   4.959   4.031   9.455
18721WAT      O56404   5.556   0.813   3.208
18721WAT     H156405   5.633   0.822   3.146
18721WAT     H256406   5.552   0.892   3.269
18722WAT      O56407   5.432   6.873   0.371
18722WAT     H156408   5.501   6.935   0.335
18722WAT     H256409   5.420   6.890   0.469
18723WAT      O56410   8.721   0.320   6.112
18723WAT     H156411   8.677   0.244   6.063
18723WAT     H256412   8.820   0.305   6.114
18724WAT      O56413   1.072   3.307   8.290
18724WAT     H156414   1.138   3.347   8.225
18724WAT     H256415   1.068   3.363   8.372
18725WAT      O56416   0.473   5.575   2.210
18725WAT     H156417   0.491   5.541   2.118
18725WAT     H256418   0.510   5.667   2.219
18726WAT      O56419   1.573   6.257   6.884
18726WAT     H156420   1.477   6.234   6.900
18726WAT     H256421   1.631   6.184   6.919
18727WAT      O56422   9.134   7.153   3.892
18727WAT     H156423   9.082   7.069   3.877
18727WAT     H256424   9.100   7.225   3.831
18728WAT      O56425   9.229   8.289   7.791
18728WAT     H156426   9.257   8.203   7.748
18728WAT     H256427   9.309   8.338   7.825
18729WAT      O56428   2.210   9.562   3.837
18729WAT     H156429   2.191   9.472   3.798
18729WAT     H256430   2.291   9.556   3.896
18730WAT      O56431   6.610   5.825   9.476
18730WAT     H156432   6.603   5.737   9.430
18730WAT     H256433   6.526   5.840   9.530
18731WAT      O56434   9.550   1.091   7.562
18731WAT     H156435   9.535   1.190   7.571
18731WAT     H256436   9.647   1.071   7.572
18732WAT      O56437   6.807   0.400   1.996
18732WAT     H156438   6.758   0.314   2.012
18732WAT     H256439   6.744   0.466   1.956
18733WAT      O56440   8.757   4.379   5.462
18733WAT     H156441   8.679   4.367   5.401
18733WAT     H256442   8.761   4.474   5.493
18734WAT      O56443   3.398   1.217   1.061
18734WAT     H156444   3.316   1.211   1.117
18734WAT     H256445   3.479   1.203   1.119
18735WAT      O56446   6.096   3.141   1.895
18735WAT     H156447   6.190   3.139   1.926
18735WAT     H256448   6.059   3.048   1.895
18736WAT      O56449   0.764   5.317   7.481
18736WAT     H156450   0.711   5.397   7.451
18736WAT     H256451   0.830   5.292   7.410
18737WAT      O56452   6.388   9.412   5.316
18737WAT     H156453   6.304   9.456   5.285
18737WAT     H256454   6.424   9.352   5.245
18738WAT      O56455   8.812   8.748   0.130
18738WAT     H156456   8.823   8.676   0.198
18738WAT     H256457   8.877   8.821   0.148
18739WAT      O56458   4.393   6.907   6.233
18739WAT     H156459   4.431   6.814   6.225
18739WAT     H256460   4.467   6.970   6.258
18740WAT      O56461   2.742   6.198   2.641
18740WAT     H156462   2.792   6.244   2.568
18740WAT     H256463   2.664   6.254   2.668
18741WAT      O56464   0.175   2.941   9.572
18741WAT     H156465   0.177   2.993   9.487
18741WAT     H256466   0.258   2.961   9.625
18742WAT      O56467   3.731   7.625   2.205
18742WAT     H156468   3.826   7.610   2.177
18742WAT     H256469   3.708   7.722   2.195
18743WAT      O56470   7.535   3.912   5.044
18743WAT     H156471   7.478   3.855   5.104
18743WAT     H256472   7.538   4.006   5.080
18744WAT      O56473   1.474   8.096   6.172
18744WAT     H156474   1.383   8.116   6.208
18744WAT     H256475   1.498   8.001   6.194
18745WAT      O56476   5.854   4.334   6.837
18745WAT     H156477   5.788   4.408   6.844
18745WAT     H256478   5.933   4.365   6.783
18746WAT      O56479   8.929   6.951   8.278
18746WAT     H156480   9.010   6.929   8.332
18746WAT     H256481   8.930   7.047   8.252
18747WAT      O56482   5.227   1.714   2.694
18747WAT     H156483   5.201   1.634   2.639
18747WAT     H256484   5.182   1.708   2.783
18748WAT      O56485   4.867   1.462   7.421
18748WAT     H156486   4.828   1.553   7.405
18748WAT     H256487   4.794   1.395   7.432
18749WAT      O56488   4.021   9.284   5.826
18749WAT     H156489   3.925   9.282   5.800
18749WAT     H256490   4.071   9.343   5.762
18750WAT      O56491   9.671   8.371   6.994
18750WAT     H156492   9.738   8.356   6.921
18750WAT     H256493   9.627   8.284   7.018
18751WAT      O56494   2.617   2.817   8.753
18751WAT     H156495   2.585   2.896   8.806
18751WAT     H256496   2.648   2.848   8.663
18752WAT      O56497   1.248   4.070   7.030
18752WAT     H156498   1.327   4.129   7.014
18752WAT     H256499   1.186   4.076   6.951
18753WAT      O56500   6.616   9.070   8.553
18753WAT     H156501   6.521   9.076   8.584
18753WAT     H256502   6.671   9.138   8.601
18754WAT      O56503   6.874   7.788   4.776
18754WAT     H156504   6.916   7.697   4.779
18754WAT     H256505   6.929   7.853   4.828
18755WAT      O56506   1.888   5.098   5.869
18755WAT     H156507   1.879   5.186   5.915
18755WAT     H256508   1.807   5.042   5.888
18756WAT      O56509   6.472   3.509   1.136
18756WAT     H156510   6.534   3.585   1.155
18756WAT     H256511   6.523   3.424   1.132
18757WAT      O56512   0.522   5.578   4.358
18757WAT     H156513   0.443   5.561   4.417
18757WAT     H256514   0.507   5.536   4.269
18758WAT      O56515   0.544   7.082   8.042
18758WAT     H156516   0.602   7.048   7.968
18758WAT     H256517   0.593   7.154   8.092
18759WAT      O56518   5.547   2.325   8.735
18759WAT     H156519   5.524   2.236   8.696
18759WAT     H256520   5.466   2.384   8.736
18760WAT      O56521   9.858   2.239   8.057
18760WAT     H156522   9.930   2.193   8.108
18760WAT     H256523   9.841   2.329   8.098
18761WAT      O56524   3.204   5.943   7.196
18761WAT     H156525   3.106   5.948   7.217
18761WAT     H256526   3.253   5.908   7.275
18762WAT      O56527   3.456   4.935   4.715
18762WAT     H156528   3.428   4.926   4.620
18762WAT     H256529   3.445   4.847   4.762
18763WAT      O56530   3.839   5.557   3.378
18763WAT     H156531   3.862   5.501   3.458
18763WAT     H256532   3.741   5.577   3.379
18764WAT      O56533   3.925   6.919   2.948
18764WAT     H156534   3.997   6.988   2.939
18764WAT     H256535   3.837   6.960   2.923
18765WAT      O56536   8.703   9.100   5.156
18765WAT     H156537   8.647   9.020   5.173
18765WAT     H256538   8.672   9.146   5.072
18766WAT      O56539   8.992   4.493   0.479
18766WAT     H156540   8.955   4.412   0.435
18766WAT     H256541   9.001   4.477   0.577
18767WAT      O56542   0.323   4.444   9.070
18767WAT     H156543   0.343   4.525   9.126
18767WAT     H256544   0.407   4.389   9.061
18768WAT      O56545   0.807   1.557   4.213
18768WAT     H156546   0.768   1.484   4.158
18768WAT     H256547   0.854   1.518   4.293
18769WAT      O56548   7.048   9.416   7.094
18769WAT     H156549   7.056   9.514   7.073
18769WAT     H256550   7.121   9.390   7.158
18770WAT      O56551   2.977   4.656   0.791
18770WAT     H156552   2.954   4.578   0.732
18770WAT     H256553   2.949   4.635   0.885
18771WAT      O56554   3.744   8.662   6.940
18771WAT     H156555   3.721   8.612   6.857
18771WAT     H256556   3.828   8.715   6.924
18772WAT      O56557   8.724   7.110   5.382
18772WAT     H156558   8.716   7.186   5.317
18772WAT     H256559   8.804   7.124   5.440
18773WAT      O56560   9.734   5.690   9.610
18773WAT     H156561   9.766   5.754   9.540
18773WAT     H256562   9.715   5.602   9.567
18774WAT      O56563   3.863   7.684   6.843
18774WAT     H156564   3.893   7.770   6.885
18774WAT     H256565   3.765   7.672   6.859
18775WAT      O56566   3.216   6.412   6.044
18775WAT     H156567   3.267   6.346   6.099
18775WAT     H256568   3.208   6.379   5.950
18776WAT      O56569   7.252   7.569   7.648
18776WAT     H156570   7.309   7.649   7.628
18776WAT     H256571   7.202   7.543   7.566
18777WAT      O56572   5.291   1.343   6.411
18777WAT     H156573   5.387   1.356   6.437
18777WAT     H256574   5.263   1.417   6.350
18778WAT      O56575   9.856   0.302   6.359
18778WAT     H156576   9.930   0.234   6.352
18778WAT     H256577   9.895   0.394   6.362
18779WAT      O56578   2.920   5.785   4.353
18779WAT     H156579   2.867   5.716   4.303
18779WAT     H256580   3.009   5.748   4.378
18780WAT      O56581   2.143   2.084   7.338
18780WAT     H156582   2.045   2.067   7.338
18780WAT     H256583   2.185   2.038   7.260
18781WAT      O56584   6.203   7.216   6.456
18781WAT     H156585   6.207   7.155   6.536
18781WAT     H256586   6.213   7.311   6.486
18782WAT      O56587   2.390   8.617   5.497
18782WAT     H156588   2.444   8.677   5.556
18782WAT     H256589   2.385   8.655   5.405
18783WAT      O56590   1.953   3.350   0.831
18783WAT     H156591   2.026   3.300   0.785
18783WAT     H256592   1.865   3.308   0.808
18784WAT      O56593   1.958   3.279   4.561
18784WAT     H156594   2.043   3.288   4.509
18784WAT     H256595   1.979   3.257   4.657
18785WAT      O56596   7.003   2.419   8.510
18785WAT     H156597   7.036   2.360   8.584
18785WAT     H256598   6.956   2.364   8.442
18786WAT      O56599   9.207   1.675   5.361
18786WAT     H156600   9.141   1.741   5.399
18786WAT     H256601   9.186   1.661   5.264
18787WAT      O56602   3.945   3.114   8.689
18787WAT     H156603   3.974   3.035   8.744
18787WAT     H256604   3.868   3.159   8.733
18788WAT      O56605   0.735   8.224   5.442
18788WAT     H156606   0.773   8.134   5.418
18788WAT     H256607   0.771   8.253   5.530
18789WAT      O56608   4.370   3.805   9.289
18789WAT     H156609   4.291   3.778   9.233
18789WAT     H256610   4.454   3.787   9.238
18790WAT      O56611   1.414   9.590   7.283
18790WAT     H156612   1.450   9.681   7.301
18790WAT     H256613   1.314   9.593   7.279
18791WAT      O56614   0.547   5.735   1.791
18791WAT     H156615   0.480   5.691   1.852
18791WAT     H256616   0.635   5.742   1.838
18792WAT      O56617   3.361   5.682   1.868
18792WAT     H156618   3.290   5.673   1.797
18792WAT     H256619   3.451   5.680   1.825
18793WAT      O56620   3.431   5.155   6.719
18793WAT     H156621   3.471   5.067   6.691
18793WAT     H256622   3.479   5.189   6.800
18794WAT      O56623   6.146   1.978   4.430
18794WAT     H156624   6.051   1.948   4.428
18794WAT     H256625   6.150   2.077   4.445
18795WAT      O56626   3.347   2.771   4.876
18795WAT     H156627   3.285   2.848   4.889
18795WAT     H256628   3.382   2.771   4.783
18796WAT      O56629   6.781   3.511   4.636
18796WAT     H156630   6.727   3.570   4.577
18796WAT     H256631   6.854   3.565   4.680
18797WAT      O56632   1.401   1.149   5.091
18797WAT     H156633   1.354   1.143   5.179
18797WAT     H256634   1.496   1.178   5.106
18798WAT      O56635   8.798   9.723   7.843
18798WAT     H156636   8.746   9.657   7.897
18798WAT     H256637   8.769   9.816   7.868
18799WAT      O56638   9.889   2.195   7.542
18799WAT     H156639   9.850   2.269   7.596
18799WAT     H256640   9.908   2.227   7.450
18800WAT      O56641   6.574   8.600   1.782
18800WAT     H156642   6.616   8.583   1.693
18800WAT     H256643   6.599   8.526   1.845
18801WAT      O56644   7.417   7.790   6.676
18801WAT     H156645   7.456   7.853   6.744
18801WAT     H256646   7.470   7.796   6.591
18802WAT      O56647   9.417   2.862   2.023
18802WAT     H156648   9.380   2.775   2.055
18802WAT     H256649   9.510   2.848   1.989
18803WAT      O56650   7.448   5.917   7.591
18803WAT     H156651   7.521   5.963   7.540
18803WAT     H256652   7.368   5.976   7.596
18804WAT      O56653   3.666   7.470   9.844
18804WAT     H156654   3.686   7.377   9.875
18804WAT     H256655   3.674   7.475   9.745
18805WAT      O56656   1.492   2.552   6.224
18805WAT     H156657   1.429   2.622   6.191
18805WAT     H256658   1.476   2.466   6.176
18806WAT      O56659   9.035   3.538   0.585
18806WAT     H156660   8.969   3.467   0.564
18806WAT     H256661   9.005   3.588   0.667
18807WAT      O56662   4.944   0.059   0.468
18807WAT     H156663   4.989   0.106   0.392
18807WAT     H256664   5.013   0.025   0.532
18808WAT      O56665   4.454   6.300   6.707
18808WAT     H156666   4.474   6.392   6.741
18808WAT     H256667   4.427   6.306   6.611
18809WAT      O56668   3.727   1.290   1.580
18809WAT     H156669   3.688   1.336   1.501
18809WAT     H256670   3.729   1.192   1.564
18810WAT      O56671   6.443   4.952   8.299
18810WAT     H156672   6.349   4.980   8.322
18810WAT     H256673   6.491   4.924   8.382
18811WAT      O56674   4.123   2.210   8.445
18811WAT     H156675   4.157   2.178   8.533
18811WAT     H256676   4.105   2.308   8.450
18812WAT      O56677   6.205   8.132   9.823
18812WAT     H156678   6.217   8.175   9.912
18812WAT     H256679   6.161   8.043   9.834
18813WAT      O56680   1.652   2.548   7.295
18813WAT     H156681   1.727   2.507   7.244
18813WAT     H256682   1.647   2.646   7.274
18814WAT      O56683   5.456   6.415   1.439
18814WAT     H156684   5.517   6.493   1.424
18814WAT     H256685   5.506   6.343   1.487
18815WAT      O56686   9.281   3.358   1.813
18815WAT     H156687   9.269   3.458   1.813
18815WAT     H256688   9.225   3.318   1.741
18816WAT      O56689   4.742   0.385   6.045
18816WAT     H156690   4.812   0.358   5.979
18816WAT     H256691   4.677   0.311   6.058
18817WAT      O56692   7.726   2.647   5.724
18817WAT     H156693   7.654   2.595   5.771
18817WAT     H256694   7.699   2.662   5.629
18818WAT      O56695   3.184   8.600   4.230
18818WAT     H156696   3.159   8.696   4.243
18818WAT     H256697   3.202   8.583   4.133
18819WAT      O56698   0.195   6.172   8.240
18819WAT     H156699   0.142   6.246   8.199
18819WAT     H256700   0.132   6.108   8.285
18820WAT      O56701   0.115   7.013   2.948
18820WAT     H156702   0.099   7.110   2.963
18820WAT     H256703   0.187   7.001   2.880
18821WAT      O56704   1.169   5.279   1.645
18821WAT     H156705   1.166   5.361   1.702
18821WAT     H256706   1.256   5.276   1.595
18822WAT      O56707   9.562   0.393   5.333
18822WAT     H156708   9.610   0.309   5.358
18822WAT     H256709   9.577   0.414   5.237
18823WAT      O56710   5.197   0.450   2.446
18823WAT     H156711   5.290   0.428   2.477
18823WAT     H256712   5.195   0.544   2.413
18824WAT      O56713   3.297   1.371   2.380
18824WAT     H156714   3.383   1.347   2.336
18824WAT     H256715   3.284   1.470   2.375
18825WAT      O56716   8.871   0.825   9.468
18825WAT     H156717   8.866   0.859   9.562
18825WAT     H256718   8.963   0.789   9.450
18826WAT      O56719   1.853   0.241   8.069
18826WAT     H156720   1.763   0.251   8.111
18826WAT     H256721   1.923   0.280   8.129
18827WAT      O56722   1.047   1.363   7.620
18827WAT     H156723   1.086   1.425   7.552
18827WAT     H256724   1.026   1.414   7.704
18828WAT      O56725   6.796   0.392   8.179
18828WAT     H156726   6.761   0.398   8.272
18828WAT     H256727   6.792   0.482   8.136
18829WAT      O56728   4.742   3.113   0.526
18829WAT     H156729   4.822   3.126   0.584
18829WAT     H256730   4.668   3.073   0.580
18830WAT      O56731   2.553   4.064   1.988
18830WAT     H156732   2.598   4.138   2.039
18830WAT     H256733   2.598   4.053   1.900
18831WAT      O56734   0.568   3.844   5.882
18831WAT     H156735   0.529   3.920   5.934
18831WAT     H256736   0.650   3.875   5.834
18832WAT      O56737   1.494   6.338   6.522
18832WAT     H156738   1.553   6.410   6.558
18832WAT     H256739   1.545   6.252   6.517
18833WAT      O56740   6.677   3.094   3.541
18833WAT     H156741   6.687   3.016   3.479
18833WAT     H256742   6.630   3.168   3.493
18834WAT      O56743   1.192   4.220   8.350
18834WAT     H156744   1.126   4.215   8.424
18834WAT     H256745   1.244   4.135   8.344
18835WAT      O56746   2.440   1.153   6.796
18835WAT     H156747   2.512   1.197   6.851
18835WAT     H256748   2.406   1.217   6.728
18836WAT      O56749   0.953   6.982   9.121
18836WAT     H156750   1.018   7.017   9.187
18836WAT     H256751   0.888   6.921   9.166
18837WAT      O56752   0.118   0.268   2.469
18837WAT     H156753   0.099   0.315   2.555
18837WAT     H256754   0.105   0.169   2.482
18838WAT      O56755   1.091   7.589   2.095
18838WAT     H156756   1.055   7.562   2.185
18838WAT     H256757   1.115   7.686   2.097
18839WAT      O56758   5.908   1.076   1.076
18839WAT     H156759   5.910   1.023   0.991
18839WAT     H256760   5.965   1.158   1.066
18840WAT      O56761   1.639   2.459   8.455
18840WAT     H156762   1.657   2.363   8.480
18840WAT     H256763   1.712   2.517   8.491
18841WAT      O56764   9.232   0.046   1.740
18841WAT     H156765   9.305   0.096   1.693
18841WAT     H256766   9.191   0.105   1.809
18842WAT      O56767   0.964   6.900   2.523
18842WAT     H156768   0.894   6.915   2.452
18842WAT     H256769   1.054   6.899   2.481
18843WAT      O56770   2.509   0.188   3.571
18843WAT     H156771   2.552   0.137   3.646
18843WAT     H256772   2.428   0.139   3.539
18844WAT      O56773   3.859   5.217   6.873
18844WAT     H156774   3.906   5.140   6.916
18844WAT     H256775   3.901   5.303   6.904
18845WAT      O56776   7.025   6.379   5.773
18845WAT     H156777   7.043   6.405   5.868
18845WAT     H256778   7.054   6.451   5.712
18846WAT      O56779   6.161   9.087   8.482
18846WAT     H156780   6.105   9.163   8.514
18846WAT     H256781   6.107   9.028   8.422
18847WAT      O56782   4.799   4.678   7.364
18847WAT     H156783   4.738   4.754   7.340
18847WAT     H256784   4.746   4.594   7.373
18848WAT      O56785   0.246   3.548   0.502
18848WAT     H156786   0.280   3.641   0.486
18848WAT     H256787   0.174   3.549   0.571
18849WAT      O56788   8.372   7.640   7.265
18849WAT     H156789   8.449   7.593   7.221
18849WAT     H256790   8.311   7.676   7.195
18850WAT      O56791   4.641   4.056   3.460
18850WAT     H156792   4.699   3.976   3.447
18850WAT     H256793   4.550   4.038   3.422
18851WAT      O56794   7.733   4.333   0.396
18851WAT     H156795   7.814   4.280   0.422
18851WAT     H256796   7.747   4.429   0.420
18852WAT      O56797   3.273   7.779   4.826
18852WAT     H156798   3.191   7.835   4.820
18852WAT     H256799   3.320   7.779   4.737
18853WAT      O56800   4.580   2.160   7.154
18853WAT     H156801   4.572   2.158   7.054
18853WAT     H256802   4.503   2.111   7.194
18854WAT      O56803   5.868   0.308   5.457
18854WAT     H156804   5.813   0.341   5.380
18854WAT     H256805   5.810   0.261   5.522
18855WAT      O56806   9.595   6.225   4.832
18855WAT     H156807   9.607   6.273   4.745
18855WAT     H256808   9.602   6.291   4.907
18856WAT      O56809   1.874   3.300   1.660
18856WAT     H156810   1.953   3.354   1.690
18856WAT     H256811   1.898   3.251   1.576
18857WAT      O56812   0.296   8.386   0.655
18857WAT     H156813   0.212   8.388   0.709
18857WAT     H256814   0.358   8.457   0.688
18858WAT      O56815   2.814   3.722   7.083
18858WAT     H156816   2.857   3.811   7.070
18858WAT     H256817   2.725   3.721   7.037
18859WAT      O56818   1.884   3.565   2.045
18859WAT     H156819   1.923   3.563   1.953
18859WAT     H256820   1.956   3.556   2.112
18860WAT      O56821   5.798   0.345   6.890
18860WAT     H156822   5.776   0.327   6.794
18860WAT     H256823   5.859   0.274   6.925
18861WAT      O56824   3.102   8.657   5.189
18861WAT     H156825   3.021   8.630   5.242
18861WAT     H256826   3.174   8.589   5.203
18862WAT      O56827   4.654   3.129   6.467
18862WAT     H156828   4.752   3.115   6.450
18862WAT     H256829   4.642   3.166   6.559
18863WAT      O56830   1.744   4.664   5.275
18863WAT     H156831   1.705   4.601   5.341
18863WAT     H256832   1.837   4.635   5.251
18864WAT      O56833   3.018   4.894   8.347
18864WAT     H156834   2.962   4.876   8.266
18864WAT     H256835   2.961   4.933   8.419
18865WAT      O56836   6.358   2.133   3.803
18865WAT     H156837   6.367   2.040   3.838
18865WAT     H256838   6.405   2.140   3.715
18866WAT      O56839   4.379   2.318   0.145
18866WAT     H156840   4.398   2.400   0.198
18866WAT     H256841   4.437   2.317   0.064
18867WAT      O56842   9.759   6.167   2.216
18867WAT     H156843   9.664   6.143   2.234
18867WAT     H256844   9.803   6.196   2.301
18868WAT      O56845   2.487   6.242   4.961
18868WAT     H156846   2.450   6.260   5.052
18868WAT     H256847   2.536   6.155   4.961
18869WAT      O56848   0.448   0.435   3.028
18869WAT     H156849   0.505   0.517   3.038
18869WAT     H256850   0.485   0.362   3.085
18870WAT      O56851   2.981   1.061   5.151
18870WAT     H156852   3.078   1.054   5.126
18870WAT     H256853   2.970   1.132   5.220
18871WAT      O56854   8.932   7.993   6.710
18871WAT     H156855   8.833   7.981   6.707
18871WAT     H256856   8.956   8.080   6.667
18872WAT      O56857   9.850   1.020   2.831
18872WAT     H156858   9.845   0.922   2.850
18872WAT     H256859   9.773   1.067   2.875
18873WAT      O56860   1.927   6.642   5.833
18873WAT     H156861   1.830   6.663   5.846
18873WAT     H256862   1.982   6.706   5.888
18874WAT      O56863   2.612   2.454   8.575
18874WAT     H156864   2.614   2.469   8.476
18874WAT     H256865   2.518   2.457   8.607
18875WAT      O56866   1.394   0.237   4.392
18875WAT     H156867   1.326   0.225   4.464
18875WAT     H256868   1.463   0.164   4.399
18876WAT      O56869   8.544   1.810   5.861
18876WAT     H156870   8.602   1.744   5.813
18876WAT     H256871   8.601   1.887   5.892
18877WAT      O56872   2.516   1.235   9.328
18877WAT     H156873   2.593   1.252   9.389
18877WAT     H256874   2.536   1.272   9.237
18878WAT      O56875   4.307   1.894   3.070
18878WAT     H156876   4.296   1.811   3.016
18878WAT     H256877   4.333   1.970   3.009
18879WAT      O56878   7.271   1.077   6.997
18879WAT     H156879   7.282   1.036   7.087
18879WAT     H256880   7.272   1.006   6.927
18880WAT      O56881   7.104   7.631   8.358
18880WAT     H156882   7.118   7.715   8.410
18880WAT     H256883   7.024   7.642   8.298
18881WAT      O56884   1.303   8.077   6.476
18881WAT     H156885   1.342   8.167   6.459
18881WAT     H256886   1.206   8.085   6.495
18882WAT      O56887   8.710   3.917   5.387
18882WAT     H156888   8.624   3.903   5.339
18882WAT     H256889   8.705   3.999   5.444
18883WAT      O56890   7.629   3.678   9.171
18883WAT     H156891   7.624   3.701   9.074
18883WAT     H256892   7.633   3.761   9.226
18884WAT      O56893   7.948   5.182   1.147
18884WAT     H156894   7.856   5.154   1.176
18884WAT     H256895   7.945   5.277   1.118
18885WAT      O56896   5.905   8.707   7.169
18885WAT     H156897   5.950   8.709   7.080
18885WAT     H256898   5.938   8.629   7.221
18886WAT      O56899   3.351   4.133   3.209
18886WAT     H156900   3.291   4.213   3.196
18886WAT     H256901   3.436   4.163   3.252
18887WAT      O56902   6.788   6.915   5.753
18887WAT     H156903   6.768   6.971   5.833
18887WAT     H256904   6.767   6.968   5.670
18888WAT      O56905   4.409   4.862   4.750
18888WAT     H156906   4.430   4.765   4.737
18888WAT     H256907   4.478   4.903   4.810
18889WAT      O56908   1.363   2.492   4.935
18889WAT     H156909   1.346   2.531   5.026
18889WAT     H256910   1.452   2.447   4.935
18890WAT      O56911   3.074   6.389   5.315
18890WAT     H156912   3.142   6.416   5.383
18890WAT     H256913   3.030   6.303   5.345
18891WAT      O56914   0.631   5.011   9.430
18891WAT     H156915   0.662   5.039   9.521
18891WAT     H256916   0.533   5.031   9.421
18892WAT      O56917   7.763   7.095   6.768
18892WAT     H156918   7.812   7.017   6.806
18892WAT     H256919   7.824   7.175   6.766
18893WAT      O56920   1.654   4.262   2.690
18893WAT     H156921   1.675   4.256   2.592
18893WAT     H256922   1.563   4.302   2.702
18894WAT      O56923   1.596   8.564   5.751
18894WAT     H156924   1.521   8.517   5.798
18894WAT     H256925   1.587   8.552   5.652
18895WAT      O56926   4.641   9.422   2.880
18895WAT     H156927   4.564   9.458   2.828
18895WAT     H256928   4.681   9.344   2.831
18896WAT      O56929   5.821   8.868   1.849
18896WAT     H156930   5.731   8.826   1.838
18896WAT     H256931   5.833   8.941   1.782
18897WAT      O56932   0.057   7.916   4.346
18897WAT     H156933   0.019   7.850   4.281
18897WAT     H256934   0.014   8.005   4.334
18898WAT      O56935   7.777   3.341   9.400
18898WAT     H156936   7.706   3.323   9.468
18898WAT     H256937   7.867   3.337   9.445
18899WAT      O56938   1.279   2.765   2.005
18899WAT     H156939   1.198   2.806   1.961
18899WAT     H256940   1.251   2.685   2.057
18900WAT      O56941   6.755   8.461   6.361
18900WAT     H156942   6.659   8.487   6.366
18900WAT     H256943   6.770   8.379   6.416
18901WAT      O56944   3.720   2.234   2.395
18901WAT     H156945   3.723   2.137   2.373
18901WAT     H256946   3.765   2.250   2.483
18902WAT      O56947   6.871   7.903   1.594
18902WAT     H156948   6.958   7.872   1.631
18902WAT     H256949   6.880   7.996   1.561
18903WAT      O56950   3.407   1.672   5.903
18903WAT     H156951   3.386   1.769   5.889
18903WAT     H256952   3.396   1.650   6.000
18904WAT      O56953   6.853   1.317   5.409
18904WAT     H156954   6.761   1.283   5.431
18904WAT     H256955   6.880   1.385   5.478
18905WAT      O56956   4.445   0.486   5.040
18905WAT     H156957   4.510   0.422   5.001
18905WAT     H256958   4.490   0.542   5.109
18906WAT      O56959   4.127   3.909   2.436
18906WAT     H156960   4.106   3.969   2.359
18906WAT     H256961   4.186   3.835   2.405
18907WAT      O56962   0.535   1.216   5.432
18907WAT     H156963   0.507   1.202   5.527
18907WAT     H256964   0.546   1.314   5.415
18908WAT      O56965   5.714   0.703   1.156
18908WAT     H156966   5.630   0.750   1.130
18908WAT     H256967   5.711   0.608   1.123
18909WAT      O56968   3.664   7.079   2.900
18909WAT     H156969   3.672   7.054   2.804
18909WAT     H256970   3.571   7.109   2.919
18910WAT      O56971   1.657   3.303   8.172
18910WAT     H156972   1.597   3.293   8.251
18910WAT     H256973   1.740   3.249   8.186
18911WAT      O56974   4.617   3.544   0.789
18911WAT     H156975   4.530   3.517   0.749
18911WAT     H256976   4.610   3.638   0.823
18912WAT      O56977   7.760   6.652   4.655
18912WAT     H156978   7.788   6.673   4.749
18912WAT     H256979   7.834   6.603   4.609
18913WAT      O56980   0.295   3.508   6.994
18913WAT     H156981   0.313   3.605   6.984
18913WAT     H256982   0.264   3.489   7.088
18914WAT      O56983   8.342   7.625   8.965
18914WAT     H156984   8.336   7.704   8.904
18914WAT     H256985   8.431   7.626   9.012
18915WAT      O56986   7.552   7.390   5.162
18915WAT     H156987   7.511   7.376   5.252
18915WAT     H256988   7.480   7.385   5.092
18916WAT      O56989   3.740   4.935   0.758
18916WAT     H156990   3.659   4.894   0.798
18916WAT     H256991   3.775   4.876   0.685
18917WAT      O56992   2.636   1.611   2.023
18917WAT     H156993   2.568   1.679   2.051
18917WAT     H256994   2.646   1.542   2.094
18918WAT      O56995   1.176   2.212   8.228
18918WAT     H156996   1.267   2.188   8.193
18918WAT     H256997   1.177   2.305   8.264
18919WAT      O56998   1.492   0.282   6.386
18919WAT     H156999   1.564   0.213   6.371
18919WAT     H257000   1.418   0.267   6.321
18920WAT      O57001   7.321   2.627   9.245
18920WAT     H157002   7.415   2.598   9.261
18920WAT     H257003   7.315   2.674   9.157
18921WAT      O57004   4.598   5.812   8.339
18921WAT     H157005   4.563   5.724   8.306
18921WAT     H257006   4.676   5.796   8.401
18922WAT      O57007   0.748   1.027   1.184
18922WAT     H157008   0.683   1.074   1.125
18922WAT     H257009   0.802   0.963   1.129
18923WAT      O57010   1.123   5.994   5.644
18923WAT     H157011   1.092   6.087   5.623
18923WAT     H257012   1.046   5.942   5.682
18924WAT      O57013   8.879   2.048   9.672
18924WAT     H157014   8.832   1.959   9.673
18924WAT     H257015   8.824   2.114   9.724
18925WAT      O57016   9.157   7.165   6.705
18925WAT     H157017   9.167   7.219   6.621
18925WAT     H257018   9.075   7.108   6.700
18926WAT      O57019   2.520   9.005   5.203
18926WAT     H157020   2.527   9.081   5.139
18926WAT     H257021   2.609   8.960   5.210
18927WAT      O57022   4.338   9.538   3.116
18927WAT     H157023   4.431   9.530   3.151
18927WAT     H257024   4.302   9.629   3.135
18928WAT      O57025   1.894   7.673   0.257
18928WAT     H157026   1.865   7.705   0.348
18928WAT     H257027   1.943   7.586   0.267
18929WAT      O57028   3.254   9.496   1.626
18929WAT     H157029   3.222   9.514   1.533
18929WAT     H257030   3.183   9.447   1.677
18930WAT      O57031   6.363   8.270   5.388
18930WAT     H157032   6.403   8.347   5.339
18930WAT     H257033   6.273   8.250   5.351
18931WAT      O57034   9.722   6.034   7.217
18931WAT     H157035   9.659   6.049   7.292
18931WAT     H257036   9.675   5.987   7.142
18932WAT      O57037   0.524   6.139   3.847
18932WAT     H157038   0.498   6.195   3.925
18932WAT     H257039   0.516   6.042   3.870
18933WAT      O57040   1.397   6.841   2.167
18933WAT     H157041   1.318   6.873   2.219
18933WAT     H257042   1.446   6.920   2.129
18934WAT      O57043   5.077   5.624   0.634
18934WAT     H157044   5.013   5.557   0.673
18934WAT     H257045   5.031   5.674   0.560
18935WAT      O57046   3.440   1.842   4.439
18935WAT     H157047   3.353   1.829   4.486
18935WAT     H257048   3.432   1.916   4.372
18936WAT      O57049   0.670   2.872   7.935
18936WAT     H157050   0.753   2.909   7.976
18936WAT     H257051   0.598   2.865   8.005
18937WAT      O57052   4.466   7.170   7.069
18937WAT     H157053   4.519   7.229   7.008
18937WAT     H257054   4.470   7.207   7.162
18938WAT      O57055   5.943   2.143   3.879
18938WAT     H157056   6.020   2.081   3.896
18938WAT     H257057   5.859   2.089   3.871
18939WAT      O57058   1.590   6.556   3.240
18939WAT     H157059   1.631   6.539   3.330
18939WAT     H257060   1.500   6.511   3.235
18940WAT      O57061   0.316   8.501   2.607
18940WAT     H157062   0.304   8.466   2.700
18940WAT     H257063   0.346   8.596   2.611
18941WAT      O57064   5.858   9.161   8.739
18941WAT     H157065   5.834   9.166   8.835
18941WAT     H257066   5.796   9.099   8.691
18942WAT      O57067   1.619   0.350   9.743
18942WAT     H157068   1.565   0.269   9.720
18942WAT     H257069   1.561   0.431   9.734
18943WAT      O57070   4.372   8.979   7.174
18943WAT     H157071   4.364   9.038   7.094
18943WAT     H257072   4.386   8.885   7.145
18944WAT      O57073   2.957   8.240   0.072
18944WAT     H157074   2.938   8.338   0.073
18944WAT     H257075   3.042   8.223   0.021
18945WAT      O57076   5.414   7.945   9.590
18945WAT     H157077   5.401   7.847   9.583
18945WAT     H257078   5.493   7.965   9.649
18946WAT      O57079   8.522   9.261   8.614
18946WAT     H157080   8.514   9.164   8.589
18946WAT     H257081   8.443   9.311   8.578
18947WAT      O57082   1.682   2.994   3.190
18947WAT     H157083   1.680   3.088   3.157
18947WAT     H257084   1.658   2.932   3.114
18948WAT      O57085   0.710   1.419   2.941
18948WAT     H157086   0.759   1.481   3.002
18948WAT     H257087   0.637   1.373   2.992
18949WAT      O57088   7.055   7.710   8.798
18949WAT     H157089   7.059   7.766   8.881
18949WAT     H257090   7.083   7.617   8.819
18950WAT      O57091   6.636   9.336   1.314
18950WAT     H157092   6.611   9.432   1.312
18950WAT     H257093   6.730   9.325   1.282
18951WAT      O57094   3.848   5.087   9.559
18951WAT     H157095   3.800   5.150   9.498
18951WAT     H257096   3.873   5.135   9.644
18952WAT      O57097   3.690   8.803   4.471
18952WAT     H157098   3.615   8.743   4.444
18952WAT     H257099   3.732   8.768   4.555
18953WAT      O57100   7.879   8.803   4.165
18953WAT     H157101   7.889   8.717   4.115
18953WAT     H257102   7.854   8.783   4.260
18954WAT      O57103   4.601   1.279   6.489
18954WAT     H157104   4.604   1.378   6.477
18954WAT     H257105   4.693   1.242   6.484
18955WAT      O57106   2.049   3.970   7.707
18955WAT     H157107   2.141   3.931   7.714
18955WAT     H257108   2.047   4.039   7.635
18956WAT      O57109   3.810   7.365   5.421
18956WAT     H157110   3.753   7.327   5.494
18956WAT     H257111   3.890   7.307   5.407
18957WAT      O57112   1.257   4.322   1.481
18957WAT     H157113   1.214   4.267   1.409
18957WAT     H257114   1.235   4.283   1.570
18958WAT      O57115   5.805   7.757   3.733
18958WAT     H157116   5.812   7.759   3.633
18958WAT     H257117   5.793   7.663   3.764
18959WAT      O57118   7.158   5.395   0.246
18959WAT     H157119   7.118   5.486   0.234
18959WAT     H257120   7.092   5.326   0.214
18960WAT      O57121   4.793   3.594   3.996
18960WAT     H157122   4.888   3.573   4.020
18960WAT     H257123   4.787   3.616   3.898
18961WAT      O57124   4.013   3.559   9.526
18961WAT     H157125   3.980   3.474   9.568
18961WAT     H257126   3.994   3.635   9.588
18962WAT      O57127   6.721   6.525   8.859
18962WAT     H157128   6.808   6.528   8.909
18962WAT     H257129   6.667   6.446   8.890
18963WAT      O57130   9.206   5.521   2.794
18963WAT     H157131   9.294   5.475   2.789
18963WAT     H257132   9.207   5.602   2.735
18964WAT      O57133   0.126   6.750   8.249
18964WAT     H157134   0.095   6.830   8.299
18964WAT     H257135   0.219   6.726   8.277
18965WAT      O57136   7.115   6.128   5.835
18965WAT     H157137   7.041   6.188   5.803
18965WAT     H257138   7.080   6.068   5.907
18966WAT      O57139   6.698   2.780   6.949
18966WAT     H157140   6.769   2.800   6.881
18966WAT     H257141   6.669   2.864   6.993
18967WAT      O57142   2.113   4.012   0.365
18967WAT     H157143   2.175   4.032   0.441
18967WAT     H257144   2.106   4.093   0.306
18968WAT      O57145   4.221   8.708   3.387
18968WAT     H157146   4.184   8.618   3.409
18968WAT     H257147   4.259   8.749   3.469
18969WAT      O57148   1.642   2.179   9.030
18969WAT     H157149   1.715   2.237   8.993
18969WAT     H257150   1.639   2.187   9.130
18970WAT      O57151   3.361   2.582   8.158
18970WAT     H157152   3.342   2.678   8.137
18970WAT     H257153   3.302   2.553   8.233
18971WAT      O57154   5.656   1.591   1.203
18971WAT     H157155   5.629   1.684   1.228
18971WAT     H257156   5.632   1.574   1.108
18972WAT      O57157   0.954   3.560   1.242
18972WAT     H157158   0.964   3.469   1.202
18972WAT     H257159   0.985   3.559   1.337
18973WAT      O57160   7.881   9.711   8.088
18973WAT     H157161   7.835   9.674   8.007
18973WAT     H257162   7.980   9.700   8.077
18974WAT      O57163   7.785   8.196   9.484
18974WAT     H157164   7.851   8.223   9.413
18974WAT     H257165   7.806   8.245   9.569
18975WAT      O57166   4.619   6.526   2.207
18975WAT     H157167   4.684   6.534   2.283
18975WAT     H257168   4.574   6.437   2.212
18976WAT      O57169   8.171   4.784   1.453
18976WAT     H157170   8.153   4.770   1.550
18976WAT     H257171   8.216   4.872   1.440
18977WAT      O57172   6.902   9.143   1.879
18977WAT     H157173   6.965   9.091   1.821
18977WAT     H257174   6.828   9.180   1.822
18978WAT      O57175   5.637   4.907   4.462
18978WAT     H157176   5.601   4.815   4.478
18978WAT     H257177   5.593   4.971   4.525
18979WAT      O57178   3.818   2.196   6.095
18979WAT     H157179   3.885   2.143   6.148
18979WAT     H257180   3.840   2.294   6.102
18980WAT      O57181   6.264   6.564   4.391
18980WAT     H157182   6.285   6.659   4.370
18980WAT     H257183   6.174   6.541   4.354
18981WAT      O57184   1.198   1.286   8.854
18981WAT     H157185   1.125   1.218   8.848
18981WAT     H257186   1.168   1.371   8.810
18982WAT      O57187   4.933   3.385   6.315
18982WAT     H157188   4.906   3.480   6.301
18982WAT     H257189   4.932   3.337   6.228
18983WAT      O57190   6.009   4.834   5.384
18983WAT     H157191   6.018   4.820   5.285
18983WAT     H257192   5.914   4.820   5.411
18984WAT      O57193   8.867   6.491   7.667
18984WAT     H157194   8.943   6.525   7.722
18984WAT     H257195   8.836   6.404   7.703
18985WAT      O57196   5.282   0.032   2.260
18985WAT     H157197   5.350   0.017   2.332
18985WAT     H257198   5.192   0.002   2.292
18986WAT      O57199   6.365   1.432   8.343
18986WAT     H157200   6.330   1.441   8.436
18986WAT     H257201   6.463   1.412   8.346
18987WAT      O57202   0.432   1.180   6.919
18987WAT     H157203   0.513   1.143   6.964
18987WAT     H257204   0.438   1.165   6.820
18988WAT      O57205   7.452   5.294   3.688
18988WAT     H157206   7.502   5.272   3.605
18988WAT     H257207   7.364   5.335   3.664
18989WAT      O57208   2.313   1.890   0.884
18989WAT     H157209   2.344   1.796   0.886
18989WAT     H257210   2.389   1.951   0.907
18990WAT      O57211   2.124   5.547   3.290
18990WAT     H157212   2.057   5.597   3.235
18990WAT     H257213   2.166   5.609   3.356
18991WAT      O57214   4.812   2.472   6.955
18991WAT     H157215   4.814   2.454   7.054
18991WAT     H257216   4.784   2.566   6.939
18992WAT      O57217   3.627   7.310   6.708
18992WAT     H157218   3.533   7.314   6.741
18992WAT     H257219   3.665   7.220   6.726
18993WAT      O57220   5.959   6.419   8.615
18993WAT     H157221   6.050   6.378   8.602
18993WAT     H257222   5.889   6.355   8.581
18994WAT      O57223   0.315   0.611   5.827
18994WAT     H157224   0.370   0.660   5.894
18994WAT     H257225   0.282   0.676   5.758
18995WAT      O57226   3.761   4.187   0.006
18995WAT     H157227   3.799   4.096  -0.012
18995WAT     H257228   3.686   4.179   0.072
18996WAT      O57229   5.547   6.540   0.851
18996WAT     H157230   5.526   6.539   0.948
18996WAT     H257231   5.476   6.591   0.802
18997WAT      O57232   8.415   1.532   0.378
18997WAT     H157233   8.473   1.571   0.305
18997WAT     H257234   8.417   1.432   0.370
18998WAT      O57235   1.175   5.478   9.608
18998WAT     H157236   1.188   5.563   9.660
18998WAT     H257237   1.127   5.498   9.523
18999WAT      O57238   2.583   1.580   0.970
18999WAT     H157239   2.545   1.488   0.960
18999WAT     H257240   2.678   1.579   0.938
19000WAT      O57241   4.590   1.659   0.854
19000WAT     H157242   4.527   1.593   0.893
19000WAT     H257243   4.540   1.741   0.825
19001WAT      O57244   5.106   3.238   0.392
19001WAT     H157245   5.202   3.259   0.411
19001WAT     H257246   5.067   3.310   0.334
19002WAT      O57247   5.458   4.937   1.743
19002WAT     H157248   5.501   5.017   1.701
19002WAT     H257249   5.511   4.909   1.823
19003WAT      O57250   9.449   2.883   7.169
19003WAT     H157251   9.484   2.961   7.220
19003WAT     H257252   9.446   2.906   7.071
19004WAT      O57253   9.369   4.925   5.481
19004WAT     H157254   9.312   4.845   5.461
19004WAT     H257255   9.409   4.915   5.572
19005WAT      O57256   8.278   1.490   5.394
19005WAT     H157257   8.343   1.507   5.468
19005WAT     H257258   8.279   1.568   5.331
19006WAT      O57259   7.902   0.129   3.797
19006WAT     H157260   7.964   0.098   3.724
19006WAT     H257261   7.889   0.228   3.790
19007WAT      O57262   6.263   1.902   1.256
19007WAT     H157263   6.313   1.984   1.285
19007WAT     H257264   6.165   1.922   1.254
19008WAT      O57265   8.252   7.936   0.986
19008WAT     H157266   8.215   8.026   1.008
19008WAT     H257267   8.196   7.894   0.916
19009WAT      O57268   5.105   0.967   5.919
19009WAT     H157269   5.111   0.882   5.867
19009WAT     H257270   5.060   0.949   6.007
19010WAT      O57271   2.708   6.369   4.444
19010WAT     H157272   2.808   6.376   4.439
19010WAT     H257273   2.672   6.444   4.498
19011WAT      O57274   6.671   9.475   5.218
19011WAT     H157275   6.737   9.404   5.244
19011WAT     H257276   6.603   9.436   5.155
19012WAT      O57277   1.950   7.844   3.909
19012WAT     H157278   2.042   7.882   3.921
19012WAT     H257279   1.940   7.761   3.963
19013WAT      O57280   1.532   9.183   4.156
19013WAT     H157281   1.512   9.099   4.105
19013WAT     H257282   1.559   9.254   4.092
19014WAT      O57283   8.338   8.977   0.185
19014WAT     H157284   8.406   8.920   0.140
19014WAT     H257285   8.379   9.066   0.206
19015WAT      O57286   6.274   9.187   4.595
19015WAT     H157287   6.372   9.184   4.618
19015WAT     H257288   6.264   9.191   4.496
19016WAT      O57289   6.822   2.091   2.527
19016WAT     H157290   6.914   2.063   2.502
19016WAT     H257291   6.817   2.108   2.626
19017WAT      O57292   5.101   3.613   7.695
19017WAT     H157293   5.131   3.677   7.624
19017WAT     H257294   5.179   3.558   7.725
19018WAT      O57295   0.472   2.682   5.787
19018WAT     H157296   0.395   2.699   5.725
19018WAT     H257297   0.438   2.635   5.869
19019WAT      O57298   9.674   1.132   9.878
19019WAT     H157299   9.594   1.119   9.819
19019WAT     H257300   9.693   1.230   9.886
19020WAT      O57301   5.563   2.886   3.262
19020WAT     H157302   5.543   2.893   3.164
19020WAT     H257303   5.500   2.945   3.312
19021WAT      O57304   8.196   5.892   6.750
19021WAT     H157305   8.175   5.795   6.761
19021WAT     H257306   8.118   5.946   6.783
19022WAT      O57307   1.824   6.564   2.463
19022WAT     H157308   1.765   6.579   2.384
19022WAT     H257309   1.782   6.605   2.544
19023WAT      O57310   3.404   1.570   7.370
19023WAT     H157311   3.452   1.577   7.283
19023WAT     H257312   3.315   1.526   7.356
19024WAT      O57313   7.410   5.702   4.699
19024WAT     H157314   7.320   5.738   4.677
19024WAT     H257315   7.434   5.726   4.793
19025WAT      O57316   1.432   8.258   2.851
19025WAT     H157317   1.465   8.268   2.945
19025WAT     H257318   1.509   8.244   2.789
19026WAT      O57319   3.265   3.102   9.275
19026WAT     H157320   3.348   3.051   9.252
19026WAT     H257321   3.205   3.106   9.196
19027WAT      O57322   7.234   2.312   7.317
19027WAT     H157323   7.259   2.405   7.344
19027WAT     H257324   7.317   2.259   7.300
19028WAT      O57325   1.290   3.920   6.017
19028WAT     H157326   1.195   3.951   6.023
19028WAT     H257327   1.342   3.959   6.092
19029WAT      O57328   1.851   7.466   6.958
19029WAT     H157329   1.932   7.495   6.909
19029WAT     H257330   1.788   7.543   6.968
19030WAT      O57331   0.015   1.568   9.191
19030WAT     H157332   0.006   1.473   9.224
19030WAT     H257333   0.045   1.626   9.266
19031WAT      O57334   1.315   6.868   3.357
19031WAT     H157335   1.241   6.897   3.298
19031WAT     H257336   1.350   6.946   3.409
19032WAT      O57337   9.737   5.253   0.012
19032WAT     H157338   9.834   5.264  -0.007
19032WAT     H257339   9.718   5.157   0.034
19033WAT      O57340   4.992   2.185   1.880
19033WAT     H157341   5.082   2.220   1.904
19033WAT     H257342   4.935   2.261   1.848
19034WAT      O57343   9.493   3.017   5.072
19034WAT     H157344   9.576   3.043   5.022
19034WAT     H257345   9.502   2.923   5.105
19035WAT      O57346   2.784   9.728   6.816
19035WAT     H157347   2.776   9.764   6.723
19035WAT     H257348   2.802   9.630   6.812
19036WAT      O57349   2.945   9.716   8.767
19036WAT     H157350   2.969   9.642   8.704
19036WAT     H257351   2.857   9.756   8.739
19037WAT      O57352   3.128   1.529   4.684
19037WAT     H157353   3.222   1.495   4.675
19037WAT     H257354   3.084   1.487   4.763
19038WAT      O57355   3.617   0.944   1.917
19038WAT     H157356   3.590   1.027   1.964
19038WAT     H257357   3.619   0.961   1.818
19039WAT      O57358   5.575   4.729   3.254
19039WAT     H157359   5.578   4.816   3.203
19039WAT     H257360   5.664   4.683   3.245
19040WAT      O57361   4.888   3.681   6.233
19040WAT     H157362   4.941   3.689   6.149
19040WAT     H257363   4.916   3.754   6.297
19041WAT      O57364   9.559   4.484   0.850
19041WAT     H157365   9.528   4.487   0.945
19041WAT     H257366   9.635   4.421   0.841
19042WAT      O57367   4.480   6.269   2.187
19042WAT     H157368   4.381   6.263   2.196
19042WAT     H257369   4.514   6.187   2.140
19043WAT      O57370   2.508   1.169   0.179
19043WAT     H157371   2.532   1.080   0.215
19043WAT     H257372   2.591   1.219   0.154
19044WAT      O57373   7.632   2.799   8.626
19044WAT     H157374   7.728   2.773   8.638
19044WAT     H257375   7.575   2.717   8.631
19045WAT      O57376   2.643   8.986   7.340
19045WAT     H157377   2.621   8.896   7.377
19045WAT     H257378   2.705   8.976   7.262
19046WAT      O57379   2.183   7.426   4.473
19046WAT     H157380   2.155   7.370   4.551
19046WAT     H257381   2.119   7.413   4.397
19047WAT      O57382   6.803   7.607   6.732
19047WAT     H157383   6.852   7.690   6.703
19047WAT     H257384   6.838   7.578   6.821
19048WAT      O57385   9.345   2.866   5.631
19048WAT     H157386   9.352   2.766   5.638
19048WAT     H257387   9.412   2.899   5.564
19049WAT      O57388   9.616   9.104   7.138
19049WAT     H157389   9.550   9.171   7.172
19049WAT     H257390   9.601   9.088   7.040
19050WAT      O57391   6.800   8.116   4.249
19050WAT     H157392   6.828   8.020   4.245
19050WAT     H257393   6.844   8.160   4.328
19051WAT      O57394   0.260   4.828   3.349
19051WAT     H157395   0.170   4.785   3.342
19051WAT     H257396   0.291   4.854   3.258
19052WAT      O57397   3.115   8.902   8.647
19052WAT     H157398   3.100   8.962   8.568
19052WAT     H257399   3.119   8.807   8.617
19053WAT      O57400   5.676   4.037   1.035
19053WAT     H157401   5.768   3.998   1.038
19053WAT     H257402   5.679   4.131   1.070
19054WAT      O57403   1.082   3.057   2.721
19054WAT     H157404   1.014   3.127   2.701
19054WAT     H257405   1.160   3.098   2.768
19055WAT      O57406   3.611   1.462   3.141
19055WAT     H157407   3.523   1.415   3.151
19055WAT     H257408   3.673   1.431   3.213
19056WAT      O57409   3.880   6.154   4.296
19056WAT     H157410   3.970   6.112   4.307
19056WAT     H257411   3.843   6.178   4.386
19057WAT      O57412   3.374   2.789   7.074
19057WAT     H157413   3.321   2.706   7.055
19057WAT     H257414   3.406   2.829   6.989
19058WAT      O57415   6.384   3.007   4.606
19058WAT     H157416   6.305   3.065   4.625
19058WAT     H257417   6.390   2.989   4.508
19059WAT      O57418   6.274   2.946   0.876
19059WAT     H157419   6.231   2.863   0.911
19059WAT     H257420   6.297   2.933   0.780
19060WAT      O57421   0.925   4.088   1.086
19060WAT     H157422   0.876   4.154   1.144
19060WAT     H257423   0.961   4.014   1.142
19061WAT      O57424   1.824   5.625   8.135
19061WAT     H157425   1.894   5.611   8.204
19061WAT     H257426   1.797   5.537   8.096
19062WAT      O57427   3.528   8.936   7.929
19062WAT     H157428   3.573   9.021   7.905
19062WAT     H257429   3.576   8.859   7.886
19063WAT      O57430   5.476   2.347   5.465
19063WAT     H157431   5.503   2.265   5.416
19063WAT     H257432   5.429   2.322   5.550
19064WAT      O57433   0.195   8.731   6.813
19064WAT     H157434   0.175   8.663   6.884
19064WAT     H257435   0.278   8.704   6.764
19065WAT      O57436   2.186   4.491   9.208
19065WAT     H157437   2.149   4.457   9.121
19065WAT     H257438   2.274   4.447   9.227
19066WAT      O57439   0.881   8.604   3.181
19066WAT     H157440   0.880   8.577   3.278
19066WAT     H257441   0.909   8.700   3.175
19067WAT      O57442   1.390   2.329   7.846
19067WAT     H157443   1.452   2.368   7.914
19067WAT     H257444   1.438   2.263   7.789
19068WAT      O57445   8.516   0.088   9.576
19068WAT     H157446   8.565   0.052   9.497
19068WAT     H257447   8.582   0.131   9.638
19069WAT      O57448   0.208   6.940   9.063
19069WAT     H157449   0.251   6.919   8.976
19069WAT     H257450   0.207   7.039   9.077
19070WAT      O57451   3.912   2.517   6.920
19070WAT     H157452   3.949   2.498   7.012
19070WAT     H257453   3.813   2.526   6.925
19071WAT      O57454   6.120   5.649   5.425
19071WAT     H157455   6.069   5.592   5.359
19071WAT     H257456   6.119   5.604   5.514
19072WAT      O57457   8.737   5.070   8.013
19072WAT     H157458   8.711   5.166   8.004
19072WAT     H257459   8.797   5.044   7.937
19073WAT      O57460   5.414   5.934   3.451
19073WAT     H157461   5.426   5.835   3.459
19073WAT     H257462   5.494   5.981   3.487
19074WAT      O57463   1.184   5.994   9.641
19074WAT     H157464   1.200   6.074   9.700
19074WAT     H257465   1.228   6.008   9.553
19075WAT      O57466   5.673   1.711   7.889
19075WAT     H157467   5.765   1.686   7.858
19075WAT     H257468   5.608   1.696   7.815
19076WAT      O57469   4.996   9.036   3.695
19076WAT     H157470   4.981   8.954   3.640
19076WAT     H257471   5.086   9.074   3.674
19077WAT      O57472   1.243   4.933   4.949
19077WAT     H157473   1.231   4.848   5.002
19077WAT     H257474   1.240   5.011   5.011
19078WAT      O57475   5.371   5.239   7.043
19078WAT     H157476   5.334   5.319   6.996
19078WAT     H257477   5.412   5.267   7.129
19079WAT      O57478   2.413   0.228   6.456
19079WAT     H157479   2.367   0.240   6.369
19079WAT     H257480   2.480   0.301   6.469
19080WAT      O57481   9.297   1.072   5.068
19080WAT     H157482   9.245   1.129   5.004
19080WAT     H257483   9.254   1.075   5.158
19081WAT      O57484   3.477   8.008   1.423
19081WAT     H157485   3.559   8.047   1.380
19081WAT     H257486   3.487   7.909   1.429
19082WAT      O57487   3.196   9.034   6.834
19082WAT     H157488   3.258   8.956   6.833
19082WAT     H257489   3.213   9.092   6.754
19083WAT      O57490   3.991   6.286   5.990
19083WAT     H157491   4.005   6.312   6.085
19083WAT     H257492   3.906   6.327   5.956
19084WAT      O57493   3.604   2.775   3.062
19084WAT     H157494   3.522   2.733   3.104
19084WAT     H257495   3.686   2.738   3.106
19085WAT      O57496   2.890   3.066   1.121
19085WAT     H157497   2.951   3.092   1.195
19085WAT     H257498   2.848   2.978   1.142
19086WAT      O57499   3.273   6.086   3.944
19086WAT     H157500   3.234   6.046   4.027
19086WAT     H257501   3.331   6.164   3.969
19087WAT      O57502   8.975   1.796   5.359
19087WAT     H157503   8.888   1.815   5.404
19087WAT     H257504   8.971   1.829   5.265
19088WAT      O57505   7.509   7.187   5.669
19088WAT     H157506   7.472   7.215   5.580
19088WAT     H257507   7.496   7.089   5.681
19089WAT      O57508   2.647   2.270   5.976
19089WAT     H157509   2.634   2.364   6.008
19089WAT     H257510   2.569   2.242   5.921
19090WAT      O57511   0.474   2.316   4.657
19090WAT     H157512   0.477   2.285   4.751
19090WAT     H257513   0.430   2.247   4.599
19091WAT      O57514   1.040   2.650   0.182
19091WAT     H157515   1.070   2.621   0.091
19091WAT     H257516   1.115   2.699   0.227
19092WAT      O57517   6.830   2.650   5.581
19092WAT     H157518   6.913   2.617   5.625
19092WAT     H257519   6.758   2.660   5.649
19093WAT      O57520   8.543   5.126   9.091
19093WAT     H157521   8.596   5.197   9.138
19093WAT     H257522   8.447   5.134   9.116
19094WAT      O57523   4.308   6.795   9.619
19094WAT     H157524   4.364   6.846   9.553
19094WAT     H257525   4.235   6.747   9.570
19095WAT      O57526   6.999   1.543   8.827
19095WAT     H157527   6.963   1.610   8.893
19095WAT     H257528   6.924   1.512   8.767
19096WAT      O57529   8.259   7.140   9.374
19096WAT     H157530   8.278   7.058   9.320
19096WAT     H257531   8.163   7.141   9.401
19097WAT      O57532   2.639   2.967   6.701
19097WAT     H157533   2.553   2.921   6.679
19097WAT     H257534   2.645   3.054   6.652
19098WAT      O57535   3.089   3.875   6.153
19098WAT     H157536   3.156   3.807   6.125
19098WAT     H257537   3.114   3.964   6.116
19099WAT      O57538   7.230   3.622   5.765
19099WAT     H157539   7.183   3.656   5.846
19099WAT     H257540   7.178   3.547   5.725
19100WAT      O57541   0.953   6.765   6.002
19100WAT     H157542   1.005   6.801   6.080
19100WAT     H257543   0.885   6.832   5.974
19101WAT      O57544   1.633   7.512   3.162
19101WAT     H157545   1.658   7.534   3.068
19101WAT     H257546   1.551   7.563   3.188
19102WAT      O57547   0.131   5.059   9.479
19102WAT     H157548   0.128   4.995   9.555
19102WAT     H257549   0.039   5.068   9.440
19103WAT      O57550   2.944   6.206   4.661
19103WAT     H157551   2.936   6.241   4.568
19103WAT     H257552   2.965   6.109   4.659
19104WAT      O57553   8.206   7.704   7.062
19104WAT     H157554   8.269   7.639   7.021
19104WAT     H257555   8.194   7.782   7.001
19105WAT      O57556   7.152   5.181   4.264
19105WAT     H157557   7.195   5.213   4.349
19105WAT     H257558   7.176   5.086   4.248
19106WAT      O57559   5.829   5.847   3.529
19106WAT     H157560   5.830   5.755   3.569
19106WAT     H257561   5.778   5.844   3.443
19107WAT      O57562   9.699   3.151   6.240
19107WAT     H157563   9.785   3.184   6.279
19107WAT     H257564   9.678   3.203   6.156
19108WAT      O57565   2.814   3.748   9.023
19108WAT     H157566   2.811   3.717   9.118
19108WAT     H257567   2.908   3.744   8.989
19109WAT      O57568   1.182   8.703   7.654
19109WAT     H157569   1.181   8.611   7.616
19109WAT     H257570   1.219   8.767   7.586
19110WAT      O57571   3.509   7.460   4.552
19110WAT     H157572   3.577   7.394   4.585
19110WAT     H257573   3.497   7.448   4.454
19111WAT      O57574   3.926   4.285   4.121
19111WAT     H157575   4.015   4.331   4.126
19111WAT     H257576   3.882   4.308   4.034
19112WAT      O57577   5.946   0.066   6.104
19112WAT     H157578   6.000   0.129   6.048
19112WAT     H257579   5.848   0.079   6.084
19113WAT      O57580   6.347   5.659   6.587
19113WAT     H157581   6.368   5.713   6.668
19113WAT     H257582   6.427   5.605   6.561
19114WAT      O57583   8.308   0.827   7.998
19114WAT     H157584   8.355   0.914   7.981
19114WAT     H257585   8.233   0.817   7.933
19115WAT      O57586   4.831   4.563   1.838
19115WAT     H157587   4.930   4.579   1.839
19115WAT     H257588   4.790   4.603   1.920
19116WAT      O57589   1.309   4.450   9.050
19116WAT     H157590   1.211   4.436   9.064
19116WAT     H257591   1.325   4.544   9.020
19117WAT      O57592   4.792   4.127   1.811
19117WAT     H157593   4.767   4.046   1.758
19117WAT     H257594   4.719   4.195   1.806
19118WAT      O57595   1.306   0.776   8.208
19118WAT     H157596   1.391   0.783   8.260
19118WAT     H257597   1.238   0.726   8.262
19119WAT      O57598   3.933   1.403   0.588
19119WAT     H157599   3.975   1.491   0.611
19119WAT     H257600   3.836   1.416   0.567
19120WAT      O57601   8.102   9.231   5.880
19120WAT     H157602   8.034   9.303   5.893
19120WAT     H257603   8.192   9.272   5.872
19121WAT      O57604   4.367   2.027   3.822
19121WAT     H157605   4.404   2.054   3.910
19121WAT     H257606   4.299   2.094   3.792
19122WAT      O57607   1.199   6.889   4.723
19122WAT     H157608   1.248   6.925   4.644
19122WAT     H257609   1.243   6.921   4.807
19123WAT      O57610   8.243   7.797   9.861
19123WAT     H157611   8.156   7.767   9.899
19123WAT     H257612   8.318   7.750   9.907
19124WAT      O57613   9.000   9.745   1.749
19124WAT     H157614   8.925   9.790   1.798
19124WAT     H257615   9.085   9.794   1.766
19125WAT      O57616   8.557   4.191   2.127
19125WAT     H157617   8.537   4.178   2.224
19125WAT     H257618   8.478   4.232   2.082
19126WAT      O57619   0.908   8.186   8.453
19126WAT     H157620   0.880   8.124   8.526
19126WAT     H257621   0.920   8.278   8.490
19127WAT      O57622   5.099   2.571   2.569
19127WAT     H157623   5.164   2.546   2.497
19127WAT     H257624   5.112   2.668   2.592
19128WAT      O57625   3.913   5.217   4.996
19128WAT     H157626   3.954   5.175   5.077
19128WAT     H257627   3.813   5.217   5.005
19129WAT      O57628   8.192   8.680   3.905
19129WAT     H157629   8.151   8.770   3.918
19129WAT     H257630   8.274   8.672   3.961
19130WAT      O57631   9.091   9.382   5.596
19130WAT     H157632   9.127   9.352   5.508
19130WAT     H257633   8.991   9.392   5.590
19131WAT      O57634   9.031   6.008   2.508
19131WAT     H157635   9.079   5.979   2.425
19131WAT     H257636   9.082   6.083   2.551
19132WAT      O57637   3.033   0.298   6.200
19132WAT     H157638   3.088   0.264   6.123
19132WAT     H257639   3.094   0.336   6.270
19133WAT      O57640   0.096   5.342   2.269
19133WAT     H157641   0.113   5.308   2.176
19133WAT     H257642   0.150   5.426   2.283
19134WAT      O57643   7.490   8.153   3.227
19134WAT     H157644   7.568   8.168   3.288
19134WAT     H257645   7.417   8.218   3.249
19135WAT      O57646   4.834   0.024   9.715
19135WAT     H157647   4.790  -0.004   9.630
19135WAT     H257648   4.871  -0.056   9.762
19136WAT      O57649   5.269   0.828   4.007
19136WAT     H157650   5.338   0.899   4.022
19136WAT     H257651   5.189   0.848   4.063
19137WAT      O57652   6.360   7.886   8.394
19137WAT     H157653   6.271   7.844   8.412
19137WAT     H257654   6.360   7.981   8.426
19138WAT      O57655   0.429   3.718   1.955
19138WAT     H157656   0.417   3.628   1.913
19138WAT     H257657   0.473   3.780   1.890
19139WAT      O57658   7.861   6.693   7.742
19139WAT     H157659   7.901   6.784   7.735
19139WAT     H257660   7.932   6.624   7.733
19140WAT      O57661   2.177   4.972   8.594
19140WAT     H157662   2.177   4.905   8.669
19140WAT     H257663   2.211   5.059   8.628
19141WAT      O57664   1.637   6.790   1.336
19141WAT     H157665   1.548   6.813   1.376
19141WAT     H257666   1.639   6.694   1.311
19142WAT      O57667   2.731   7.154   9.013
19142WAT     H157668   2.662   7.085   9.031
19142WAT     H257669   2.704   7.240   9.056
19143WAT      O57670   6.104   2.329   0.250
19143WAT     H157671   6.099   2.426   0.272
19143WAT     H257672   6.105   2.318   0.151
19144WAT      O57673   3.772   2.945   0.925
19144WAT     H157674   3.751   2.948   1.022
19144WAT     H257675   3.823   3.028   0.899
19145WAT      O57676   5.150   3.700   1.666
19145WAT     H157677   5.067   3.716   1.719
19145WAT     H257678   5.194   3.616   1.697
19146WAT      O57679   2.742   7.064   7.131
19146WAT     H157680   2.780   6.973   7.147
19146WAT     H257681   2.810   7.133   7.158
19147WAT      O57682   2.724   5.661   7.785
19147WAT     H157683   2.813   5.692   7.752
19147WAT     H257684   2.657   5.668   7.711
19148WAT      O57685   1.807   7.899   2.759
19148WAT     H157686   1.830   7.946   2.674
19148WAT     H257687   1.871   7.927   2.831
19149WAT      O57688   7.017   0.206   4.445
19149WAT     H157689   7.018   0.107   4.438
19149WAT     H257690   6.948   0.244   4.383
19150WAT      O57691   3.573   5.712   1.677
19150WAT     H157692   3.560   5.806   1.645
19150WAT     H257693   3.651   5.672   1.630
19151WAT      O57694   4.643   3.785   6.815
19151WAT     H157695   4.597   3.699   6.791
19151WAT     H257696   4.677   3.829   6.731
19152WAT      O57697   7.336   8.507   4.502
19152WAT     H157698   7.413   8.468   4.453
19152WAT     H257699   7.370   8.573   4.569
19153WAT      O57700   9.497   9.650   4.613
19153WAT     H157701   9.406   9.682   4.587
19153WAT     H257702   9.514   9.561   4.572
19154WAT      O57703   1.933   8.449   1.567
19154WAT     H157704   1.976   8.373   1.518
19154WAT     H257705   1.835   8.430   1.578
19155WAT      O57706   7.009   4.596   3.902
19155WAT     H157707   6.943   4.551   3.963
19155WAT     H257708   6.999   4.695   3.910
19156WAT      O57709   3.849   8.012   4.988
19156WAT     H157710   3.861   7.932   5.046
19156WAT     H257711   3.755   8.046   4.996
19157WAT      O57712   6.717   0.896   2.851
19157WAT     H157713   6.755   0.808   2.878
19157WAT     H257714   6.777   0.970   2.884
19158WAT      O57715   8.952   3.726   1.022
19158WAT     H157716   8.894   3.768   1.091
19158WAT     H257717   9.047   3.755   1.035
19159WAT      O57718   7.451   2.619   4.478
19159WAT     H157719   7.539   2.667   4.488
19159WAT     H257720   7.451   2.538   4.536
19160WAT      O57721   8.372   3.846   3.361
19160WAT     H157722   8.345   3.804   3.274
19160WAT     H257723   8.468   3.874   3.357
19161WAT      O57724   1.454   7.479   8.648
19161WAT     H157725   1.378   7.427   8.608
19161WAT     H257726   1.422   7.526   8.730
19162WAT      O57727   2.387   6.831   3.979
19162WAT     H157728   2.303   6.860   3.934
19162WAT     H257729   2.372   6.742   4.023
19163WAT      O57730   2.544   6.019   2.280
19163WAT     H157731   2.445   6.005   2.284
19163WAT     H257732   2.564   6.116   2.273
19164WAT      O57733   6.265   0.545   5.939
19164WAT     H157734   6.221   0.575   5.855
19164WAT     H257735   6.357   0.512   5.919
19165WAT      O57736   2.985   6.350   1.301
19165WAT     H157737   3.051   6.393   1.240
19165WAT     H257738   2.945   6.419   1.361
19166WAT      O57739   4.583   1.491   5.818
19166WAT     H157740   4.528   1.488   5.902
19166WAT     H257741   4.679   1.504   5.842
19167WAT      O57742   7.363   9.162   2.312
19167WAT     H157743   7.363   9.180   2.410
19167WAT     H257744   7.320   9.238   2.263
19168WAT      O57745   8.953   5.226   6.240
19168WAT     H157746   8.919   5.136   6.265
19168WAT     H257747   8.923   5.293   6.307
19169WAT      O57748   1.971   2.089   7.098
19169WAT     H157749   1.925   2.068   7.184
19169WAT     H257750   2.059   2.041   7.094
19170WAT      O57751   7.632   9.105   7.152
19170WAT     H157752   7.623   9.202   7.130
19170WAT     H257753   7.580   9.084   7.235
19171WAT      O57754   7.709   3.950   3.540
19171WAT     H157755   7.687   4.019   3.609
19171WAT     H257756   7.677   3.861   3.571
19172WAT      O57757   0.620   1.308   8.929
19172WAT     H157758   0.637   1.210   8.918
19172WAT     H257759   0.547   1.336   8.867
19173WAT      O57760   9.770   6.960   6.129
19173WAT     H157761   9.863   6.947   6.165
19173WAT     H257762   9.766   6.926   6.035
19174WAT      O57763   0.552   3.570   3.927
19174WAT     H157764   0.636   3.521   3.905
19174WAT     H257765   0.554   3.597   4.024
19175WAT      O57766   1.940   5.347   6.286
19175WAT     H157767   2.036   5.355   6.261
19175WAT     H257768   1.927   5.378   6.380
19176WAT      O57769   5.048   4.673   2.973
19176WAT     H157770   5.099   4.588   2.981
19176WAT     H257771   5.040   4.716   3.063
19177WAT      O57772   8.594   9.777   6.123
19177WAT     H157773   8.673   9.837   6.141
19177WAT     H257774   8.541   9.765   6.206
19178WAT      O57775   0.827   5.860   4.151
19178WAT     H157776   0.847   5.932   4.085
19178WAT     H257777   0.792   5.779   4.103
19179WAT      O57778   7.543   0.451   4.040
19179WAT     H157779   7.466   0.474   4.100
19179WAT     H257780   7.508   0.416   3.953
19180WAT      O57781   8.870   2.517   3.685
19180WAT     H157782   8.865   2.608   3.725
19180WAT     H257783   8.885   2.524   3.586
19181WAT      O57784   7.435   5.936   6.726
19181WAT     H157785   7.449   6.033   6.747
19181WAT     H257786   7.442   5.883   6.811
19182WAT      O57787   3.493   5.660   5.574
19182WAT     H157788   3.414   5.719   5.590
19182WAT     H257789   3.500   5.638   5.476
19183WAT      O57790   8.873   2.445   7.330
19183WAT     H157791   8.843   2.365   7.381
19183WAT     H257792   8.849   2.528   7.380
19184WAT      O57793   8.289   3.139   1.895
19184WAT     H157794   8.190   3.141   1.879
19184WAT     H257795   8.317   3.223   1.942
19185WAT      O57796   7.193   4.446   8.859
19185WAT     H157797   7.165   4.473   8.767
19185WAT     H257798   7.143   4.365   8.887
19186WAT      O57799   9.580   4.066   7.980
19186WAT     H157800   9.528   3.981   7.989
19186WAT     H257801   9.673   4.052   8.015
19187WAT      O57802   2.005   1.720   8.738
19187WAT     H157803   2.037   1.744   8.830
19187WAT     H257804   1.992   1.621   8.733
19188WAT      O57805   2.134   8.249   4.730
19188WAT     H157806   2.140   8.322   4.798
19188WAT     H257807   2.219   8.198   4.727
19189WAT      O57808   0.174   3.279   0.444
19189WAT     H157809   0.185   3.376   0.464
19189WAT     H257810   0.230   3.254   0.365
19190WAT      O57811   3.108   1.926   9.340
19190WAT     H157812   3.118   2.006   9.281
19190WAT     H257813   3.149   1.945   9.429
19191WAT      O57814   3.925   9.243   1.878
19191WAT     H157815   3.932   9.341   1.860
19191WAT     H257816   4.008   9.197   1.847
19192WAT      O57817   3.667   6.741   3.311
19192WAT     H157818   3.700   6.653   3.278
19192WAT     H257819   3.744   6.805   3.318
19193WAT      O57820   8.247   5.921   3.230
19193WAT     H157821   8.262   6.008   3.184
19193WAT     H257822   8.307   5.851   3.190
19194WAT      O57823   0.069   3.501   6.315
19194WAT     H157824  -0.022   3.534   6.339
19194WAT     H257825   0.103   3.553   6.236
19195WAT      O57826   6.074   3.520   3.312
19195WAT     H157827   6.004   3.474   3.367
19195WAT     H257828   6.141   3.563   3.372
19196WAT      O57829   2.206   4.199   9.505
19196WAT     H157830   2.263   4.145   9.444
19196WAT     H257831   2.151   4.137   9.562
19197WAT      O57832   9.848   4.028   8.029
19197WAT     H157833   9.887   3.958   8.089
19197WAT     H257834   9.882   4.118   8.057
19198WAT      O57835   7.805   5.032   9.276
19198WAT     H157836   7.874   5.057   9.208
19198WAT     H257837   7.848   4.984   9.352
19199WAT      O57838   6.818   6.000   4.507
19199WAT     H157839   6.815   5.907   4.469
19199WAT     H257840   6.878   6.057   4.452
19200WAT      O57841   9.711   6.289   2.871
19200WAT     H157842   9.787   6.325   2.925
19200WAT     H257843   9.690   6.196   2.901
19201WAT      O57844   5.452   7.065   9.060
19201WAT     H157845   5.511   7.123   9.116
19201WAT     H257846   5.505   6.990   9.021
19202WAT      O57847   6.478   8.864   1.451
19202WAT     H157848   6.407   8.796   1.433
19202WAT     H257849   6.495   8.869   1.550
19203WAT      O57850   5.130   3.637   1.962
19203WAT     H157851   5.204   3.618   1.897
19203WAT     H257852   5.120   3.735   1.974
19204WAT      O57853   2.912   6.848   0.506
19204WAT     H157854   2.986   6.880   0.564
19204WAT     H257855   2.829   6.838   0.560
19205WAT      O57856   6.605   9.443   8.903
19205WAT     H157857   6.601   9.528   8.957
19205WAT     H257858   6.590   9.365   8.964
19206WAT      O57859   2.407   1.800   3.560
19206WAT     H157860   2.309   1.780   3.559
19206WAT     H257861   2.428   1.866   3.488
19207WAT      O57862   5.647   0.826   2.607
19207WAT     H157863   5.743   0.846   2.584
19207WAT     H257864   5.595   0.911   2.605
19208WAT      O57865   5.235   1.617   8.741
19208WAT     H157866   5.227   1.546   8.671
19208WAT     H257867   5.167   1.689   8.724
19209WAT      O57868   3.219   6.387   9.428
19209WAT     H157869   3.242   6.342   9.342
19209WAT     H257870   3.208   6.485   9.413
19210WAT      O57871   8.532   7.073   1.822
19210WAT     H157872   8.559   7.015   1.746
19210WAT     H257873   8.602   7.068   1.894
19211WAT      O57874   1.639   7.224   9.130
19211WAT     H157875   1.622   7.256   9.037
19211WAT     H257876   1.554   7.193   9.172
19212WAT      O57877   6.353   5.928   4.552
19212WAT     H157878   6.357   5.901   4.649
19212WAT     H257879   6.258   5.951   4.528
19213WAT      O57880   5.610   6.704   5.361
19213WAT     H157881   5.570   6.675   5.448
19213WAT     H257882   5.700   6.661   5.351
19214WAT      O57883   3.029   3.824   9.861
19214WAT     H157884   2.955   3.890   9.845
19214WAT     H257885   3.114   3.873   9.879
19215WAT      O57886   1.720   6.743   7.583
19215WAT     H157887   1.690   6.799   7.660
19215WAT     H257888   1.718   6.646   7.609
19216WAT      O57889   0.319   0.266   9.422
19216WAT     H157890   0.244   0.308   9.370
19216WAT     H257891   0.372   0.207   9.362
19217WAT      O57892   7.028   7.294   8.276
19217WAT     H157893   7.009   7.341   8.190
19217WAT     H257894   7.127   7.278   8.285
19218WAT      O57895   4.731   7.240   5.312
19218WAT     H157896   4.804   7.303   5.287
19218WAT     H257897   4.770   7.153   5.342
19219WAT      O57898   5.729   2.428   7.732
19219WAT     H157899   5.780   2.502   7.776
19219WAT     H257900   5.665   2.467   7.666
19220WAT      O57901   4.409   4.903   9.843
19220WAT     H157902   4.390   4.836   9.916
19220WAT     H257903   4.432   4.854   9.759
19221WAT      O57904   3.160   4.956   6.769
19221WAT     H157905   3.131   5.043   6.809
19221WAT     H257906   3.257   4.941   6.789
19222WAT      O57907   6.278   7.671   3.594
19222WAT     H157908   6.222   7.734   3.648
19222WAT     H257909   6.365   7.655   3.641
19223WAT      O57910   6.191   9.367   9.051
19223WAT     H157911   6.220   9.352   8.957
19223WAT     H257912   6.258   9.426   9.097
19224WAT      O57913   8.565   8.018   6.880
19224WAT     H157914   8.591   7.994   6.786
19224WAT     H257915   8.647   8.020   6.938
19225WAT      O57916   9.056   5.218   8.065
19225WAT     H157917   9.113   5.142   8.033
19225WAT     H257918   8.997   5.187   8.140
19226WAT      O57919   1.510   6.014   7.665
19226WAT     H157920   1.523   6.052   7.756
19226WAT     H257921   1.529   5.916   7.666
19227WAT      O57922   3.512   9.280   7.484
19227WAT     H157923   3.529   9.181   7.487
19227WAT     H257924   3.540   9.316   7.396
19228WAT      O57925   1.953   5.029   0.119
19228WAT     H157926   2.048   5.002   0.102
19228WAT     H257927   1.908   4.960   0.175
19229WAT      O57928   3.509   1.724   4.812
19229WAT     H157929   3.550   1.802   4.861
19229WAT     H257930   3.518   1.739   4.714
19230WAT      O57931   7.499   5.160   6.429
19230WAT     H157932   7.436   5.204   6.364
19230WAT     H257933   7.470   5.065   6.443
19231WAT      O57934   2.400   8.118   9.281
19231WAT     H157935   2.437   8.034   9.241
19231WAT     H257936   2.435   8.129   9.374
19232WAT      O57937   5.785   6.844   0.042
19232WAT     H157938   5.756   6.904   0.117
19232WAT     H257939   5.722   6.856  -0.035
19233WAT      O57940   3.395   0.812   1.113
19233WAT     H157941   3.412   0.860   1.027
19233WAT     H257942   3.436   0.721   1.109
19234WAT      O57943   4.466   1.097   9.100
19234WAT     H157944   4.559   1.129   9.119
19234WAT     H257945   4.467   1.043   9.016
19235WAT      O57946   1.696   1.121   8.025
19235WAT     H157947   1.667   1.043   7.968
19235WAT     H257948   1.783   1.157   7.990
19236WAT      O57949   6.476   2.259   8.499
19236WAT     H157950   6.576   2.263   8.501
19236WAT     H257951   6.446   2.168   8.528
19237WAT      O57952   2.732   2.549   6.838
19237WAT     H157953   2.796   2.561   6.913
19237WAT     H257954   2.710   2.452   6.827
19238WAT      O57955   4.267   8.507   5.133
19238WAT     H157956   4.362   8.531   5.110
19238WAT     H257957   4.205   8.571   5.088
19239WAT      O57958   5.196   6.843   3.550
19239WAT     H157959   5.135   6.790   3.609
19239WAT     H257960   5.141   6.896   3.484
19240WAT      O57961   7.709   5.259   5.001
19240WAT     H157962   7.615   5.228   4.990
19240WAT     H257963   7.743   5.295   4.914
19241WAT      O57964   9.195   5.203   0.093
19241WAT     H157965   9.171   5.214   0.190
19241WAT     H257966   9.111   5.205   0.038
19242WAT      O57967   0.985   0.777   5.404
19242WAT     H157968   1.069   0.738   5.440
19242WAT     H257969   0.906   0.733   5.449
19243WAT      O57970   6.673   0.443   6.291
19243WAT     H157971   6.666   0.381   6.369
19243WAT     H257972   6.605   0.515   6.300
19244WAT      O57973   1.233   0.670   3.574
19244WAT     H157974   1.244   0.739   3.646
19244WAT     H257975   1.322   0.629   3.553
19245WAT      O57976   0.296   6.772   2.143
19245WAT     H157977   0.375   6.765   2.083
19245WAT     H257978   0.291   6.691   2.201
19246WAT      O57979   6.339   9.632   9.088
19246WAT     H157980   6.295   9.705   9.141
19246WAT     H257981   6.429   9.664   9.057
19247WAT      O57982   3.393   0.026   5.634
19247WAT     H157983   3.451  -0.055   5.647
19247WAT     H257984   3.304   0.011   5.677
19248WAT      O57985   2.311   6.939   8.445
19248WAT     H157986   2.277   6.856   8.402
19248WAT     H257987   2.235   7.002   8.461
19249WAT      O57988   2.908   0.989   3.660
19249WAT     H157989   2.959   0.972   3.744
19249WAT     H257990   2.882   0.902   3.618
19250WAT      O57991   5.466   8.425   1.467
19250WAT     H157992   5.413   8.480   1.531
19250WAT     H257993   5.415   8.414   1.382
19251WAT      O57994   5.234   5.237   6.610
19251WAT     H157995   5.333   5.228   6.601
19251WAT     H257996   5.192   5.242   6.519
19252WAT      O57997   0.819   3.863   3.948
19252WAT     H157998   0.872   3.930   3.895
19252WAT     H257999   0.787   3.790   3.887
19253WAT      O58000   5.873   9.762   3.738
19253WAT     H158001   5.900   9.684   3.682
19253WAT     H258002   5.884   9.846   3.686
19254WAT      O58003   6.471   1.978   0.308
19254WAT     H158004   6.403   2.006   0.241
19254WAT     H258005   6.562   2.007   0.279
19255WAT      O58006   9.774   8.370   0.617
19255WAT     H158007   9.752   8.317   0.535
19255WAT     H258008   9.690   8.406   0.656
19256WAT      O58009   8.769   6.795   4.513
19256WAT     H158010   8.773   6.798   4.413
19256WAT     H258011   8.787   6.702   4.544
19257WAT      O58012   2.087   8.205   4.236
19257WAT     H158013   2.055   8.180   4.328
19257WAT     H258014   2.165   8.267   4.244
19258WAT      O58015   6.483   5.839   8.914
19258WAT     H158016   6.502   5.844   8.816
19258WAT     H258017   6.438   5.752   8.936
19259WAT      O58018   5.316   4.864   4.928
19259WAT     H158019   5.280   4.951   4.963
19259WAT     H258020   5.319   4.867   4.828
19260WAT      O58021   9.192   5.167   9.547
19260WAT     H158022   9.210   5.078   9.506
19260WAT     H258023   9.261   5.186   9.617
19261WAT      O58024   7.272   5.335   4.451
19261WAT     H158025   7.288   5.319   4.548
19261WAT     H258026   7.360   5.345   4.404
19262WAT      O58027   2.128   2.569   6.730
19262WAT     H158028   2.062   2.561   6.804
19262WAT     H258029   2.085   2.613   6.652
19263WAT      O58030   2.636   8.823   0.282
19263WAT     H158031   2.653   8.794   0.188
19263WAT     H258032   2.619   8.742   0.339
19264WAT      O58033   1.813   8.883   7.515
19264WAT     H158034   1.852   8.842   7.597
19264WAT     H258035   1.803   8.813   7.444
19265WAT      O58036   3.661   4.601   3.214
19265WAT     H158037   3.593   4.666   3.180
19265WAT     H258038   3.747   4.614   3.165
19266WAT      O58039   5.023   9.383   4.957
19266WAT     H158040   5.021   9.316   5.032
19266WAT     H258041   4.971   9.347   4.879
19267WAT      O58042   6.824   5.768   5.469
19267WAT     H158043   6.743   5.722   5.433
19267WAT     H258044   6.868   5.820   5.396
19268WAT      O58045   0.755   4.561   1.057
19268WAT     H158046   0.700   4.543   1.139
19268WAT     H258047   0.751   4.658   1.034
19269WAT      O58048   2.029   2.075   6.313
19269WAT     H158049   1.941   2.091   6.268
19269WAT     H258050   2.014   2.050   6.409
19270WAT      O58051   2.863   5.729   9.291
19270WAT     H158052   2.843   5.634   9.268
19270WAT     H258053   2.818   5.789   9.225
19271WAT      O58054   1.811   7.976   0.616
19271WAT     H158055   1.760   7.891   0.631
19271WAT     H258056   1.846   8.009   0.703
19272WAT      O58057   8.635   8.945   0.704
19272WAT     H158058   8.644   8.902   0.614
19272WAT     H258059   8.607   8.876   0.771
19273WAT      O58060   6.721   0.966   6.975
19273WAT     H158061   6.728   1.062   7.000
19273WAT     H258062   6.646   0.924   7.025
19274WAT      O58063   8.414   1.535   4.750
19274WAT     H158064   8.473   1.572   4.678
19274WAT     H258065   8.364   1.457   4.715
19275WAT      O58066   6.030   7.309   4.620
19275WAT     H158067   6.042   7.309   4.720
19275WAT     H258068   5.935   7.329   4.598
19276WAT      O58069   1.526   3.219   3.153
19276WAT     H158070   1.517   3.214   3.252
19276WAT     H258071   1.610   3.267   3.129
19277WAT      O58072   1.015   1.093   7.113
19277WAT     H158073   0.992   1.190   7.102
19277WAT     H258074   1.049   1.078   7.206
19278WAT      O58075   2.583   4.004   3.987
19278WAT     H158076   2.538   3.949   3.917
19278WAT     H258077   2.523   4.014   4.066
19279WAT      O58078   1.708   6.666   1.596
19279WAT     H158079   1.799   6.634   1.624
19279WAT     H258080   1.715   6.716   1.510
19280WAT      O58081   7.843   8.017   4.222
19280WAT     H158082   7.811   8.083   4.291
19280WAT     H258083   7.829   7.924   4.257
19281WAT      O58084   8.358   0.464   5.930
19281WAT     H158085   8.400   0.537   5.877
19281WAT     H258086   8.262   0.453   5.903
19282WAT      O58087   2.738   3.465   0.286
19282WAT     H158088   2.826   3.419   0.279
19282WAT     H258089   2.705   3.461   0.380
19283WAT      O58090   1.947   4.899   8.464
19283WAT     H158091   2.029   4.944   8.500
19283WAT     H258092   1.952   4.897   8.364
19284WAT      O58093   2.493   5.733   3.513
19284WAT     H158094   2.530   5.641   3.502
19284WAT     H258095   2.393   5.727   3.515
19285WAT      O58096   9.602   1.388   4.607
19285WAT     H158097   9.567   1.374   4.514
19285WAT     H258098   9.568   1.315   4.666
19286WAT      O58099   2.883   4.710   3.162
19286WAT     H158100   2.814   4.776   3.191
19286WAT     H258101   2.951   4.699   3.234
19287WAT      O58102   2.064   4.917   6.321
19287WAT     H158103   2.144   4.881   6.368
19287WAT     H258104   2.021   4.988   6.378
19288WAT      O58105   1.058   9.803   2.345
19288WAT     H158106   1.157   9.809   2.359
19288WAT     H258107   1.039   9.790   2.248
19289WAT      O58108   5.651   4.801   2.240
19289WAT     H158109   5.646   4.704   2.214
19289WAT     H258110   5.591   4.818   2.319
19290WAT      O58111   1.070   4.036   2.098
19290WAT     H158112   1.057   3.941   2.069
19290WAT     H258113   1.165   4.051   2.123
19291WAT      O58114   2.560   2.311   7.443
19291WAT     H158115   2.633   2.271   7.388
19291WAT     H258116   2.486   2.244   7.453
19292WAT      O58117   2.695   5.071   5.799
19292WAT     H158118   2.653   5.017   5.872
19292WAT     H258119   2.716   5.011   5.721
19293WAT      O58120   1.037   8.538   6.306
19293WAT     H158121   1.095   8.604   6.258
19293WAT     H258122   0.949   8.581   6.327
19294WAT      O58123   7.490   7.475   9.121
19294WAT     H158124   7.587   7.499   9.122
19294WAT     H258125   7.437   7.550   9.080
19295WAT      O58126   4.469   7.103   0.562
19295WAT     H158127   4.376   7.068   0.569
19295WAT     H258128   4.530   7.047   0.618
19296WAT      O58129   8.218   0.025   0.426
19296WAT     H158130   8.232  -0.068   0.391
19296WAT     H258131   8.306   0.069   0.441
19297WAT      O58132   1.390   6.320   3.805
19297WAT     H158133   1.362   6.314   3.901
19297WAT     H258134   1.312   6.299   3.746
19298WAT      O58135   2.387   9.843   0.667
19298WAT     H158136   2.470   9.849   0.611
19298WAT     H258137   2.370   9.747   0.690
19299WAT      O58138   5.817   1.425   5.500
19299WAT     H158139   5.783   1.479   5.576
19299WAT     H258140   5.901   1.467   5.464
19300WAT      O58141   5.938   6.544   3.798
19300WAT     H158142   5.977   6.618   3.851
19300WAT     H258143   5.963   6.456   3.839
19301WAT      O58144   4.822   7.697   7.012
19301WAT     H158145   4.780   7.707   6.922
19301WAT     H258146   4.920   7.714   7.006
19302WAT      O58147   3.552   2.608   7.830
19302WAT     H158148   3.463   2.654   7.825
19302WAT     H258149   3.547   2.521   7.780
19303WAT      O58150   1.615   6.629   1.074
19303WAT     H158151   1.628   6.722   1.041
19303WAT     H258152   1.529   6.593   1.039
19304WAT      O58153   0.411   5.930   6.118
19304WAT     H158154   0.364   6.012   6.087
19304WAT     H258155   0.345   5.857   6.135
19305WAT      O58156   4.495   7.055   7.557
19305WAT     H158157   4.458   6.963   7.549
19305WAT     H258158   4.575   7.054   7.618
19306WAT      O58159   3.938   6.007   7.043
19306WAT     H158160   3.917   5.979   7.137
19306WAT     H258161   4.035   6.029   7.035
19307WAT      O58162   1.578   9.609   6.725
19307WAT     H158163   1.608   9.689   6.777
19307WAT     H258164   1.590   9.526   6.781
19308WAT      O58165   5.020   1.793   5.243
19308WAT     H158166   5.013   1.694   5.226
19308WAT     H258167   4.950   1.841   5.190
19309WAT      O58168   5.186   8.037   5.071
19309WAT     H158169   5.285   8.041   5.053
19309WAT     H258170   5.149   8.129   5.074
19310WAT      O58171   2.038   4.512   1.973
19310WAT     H158172   2.099   4.556   1.907
19310WAT     H258173   2.058   4.547   2.065
19311WAT      O58174   3.532   8.303   5.891
19311WAT     H158175   3.594   8.372   5.853
19311WAT     H258176   3.439   8.321   5.859
19312WAT      O58177   1.575   8.997   7.466
19312WAT     H158178   1.665   8.969   7.500
19312WAT     H258179   1.549   9.083   7.509
19313WAT      O58180   7.856   1.751   1.209
19313WAT     H158181   7.827   1.843   1.185
19313WAT     H258182   7.948   1.753   1.247
19314WAT      O58183   7.673   8.463   7.403
19314WAT     H158184   7.720   8.539   7.358
19314WAT     H258185   7.712   8.450   7.495
19315WAT      O58186   7.330   4.138   0.581
19315WAT     H158187   7.355   4.183   0.667
19315WAT     H258188   7.242   4.091   0.592
19316WAT      O58189   2.981   2.367   8.937
19316WAT     H158190   2.932   2.376   8.850
19316WAT     H258191   2.975   2.453   8.988
19317WAT      O58192   2.803   0.478   5.984
19317WAT     H158193   2.761   0.545   5.923
19317WAT     H258194   2.759   0.389   5.971
19318WAT      O58195   6.811   5.338   9.377
19318WAT     H158196   6.859   5.412   9.330
19318WAT     H258197   6.788   5.266   9.311
19319WAT      O58198   8.426   7.362   8.851
19319WAT     H158199   8.501   7.403   8.800
19319WAT     H258200   8.385   7.429   8.912
19320WAT      O58201   1.355   1.734   1.870
19320WAT     H158202   1.294   1.660   1.898
19320WAT     H258203   1.422   1.699   1.804
19321WAT      O58204   6.834   3.142   8.723
19321WAT     H158205   6.805   3.061   8.671
19321WAT     H258206   6.853   3.115   8.817
19322WAT      O58207   9.388   8.700   8.725
19322WAT     H158208   9.332   8.672   8.647
19322WAT     H258209   9.366   8.642   8.804
19323WAT      O58210   3.908   1.952   4.810
19323WAT     H158211   3.978   1.911   4.752
19323WAT     H258212   3.872   2.034   4.766
19324WAT      O58213   7.430   7.808   8.732
19324WAT     H158214   7.382   7.871   8.671
19324WAT     H258215   7.484   7.861   8.798
19325WAT      O58216   4.964   2.702   7.775
19325WAT     H158217   5.032   2.775   7.764
19325WAT     H258218   5.010   2.614   7.782
19326WAT      O58219   6.073   8.122   9.424
19326WAT     H158220   6.068   8.050   9.355
19326WAT     H258221   6.037   8.207   9.386
19327WAT      O58222   1.622   8.506   6.414
19327WAT     H158223   1.641   8.427   6.356
19327WAT     H258224   1.660   8.490   6.505
19328WAT      O58225   9.009   4.933   9.702
19328WAT     H158226   9.024   5.032   9.697
19328WAT     H258227   8.961   4.911   9.787
19329WAT      O58228   2.287   4.394   1.147
19329WAT     H158229   2.201   4.346   1.130
19329WAT     H258230   2.334   4.353   1.224
19330WAT      O58231   4.812   6.305   8.812
19330WAT     H158232   4.780   6.218   8.775
19330WAT     H258233   4.825   6.371   8.738
19331WAT      O58234   2.343   0.473   7.825
19331WAT     H158235   2.434   0.465   7.783
19331WAT     H258236   2.311   0.567   7.817
19332WAT      O58237   2.934   4.140   1.387
19332WAT     H158238   2.837   4.153   1.364
19332WAT     H258239   2.986   4.222   1.363
19333WAT      O58240   5.596   1.282   5.177
19333WAT     H158241   5.549   1.239   5.254
19333WAT     H258242   5.681   1.233   5.157
19334WAT      O58243   3.539   8.768   7.082
19334WAT     H158244   3.484   8.685   7.092
19334WAT     H258245   3.623   8.746   7.034
19335WAT      O58246   2.758   6.977   0.087
19335WAT     H158247   2.659   6.973   0.075
19335WAT     H258248   2.785   7.068   0.119
19336WAT      O58249   7.586   5.311   5.446
19336WAT     H158250   7.573   5.339   5.541
19336WAT     H258251   7.623   5.218   5.443
19337WAT      O58252   5.488   9.552   4.834
19337WAT     H158253   5.515   9.515   4.923
19337WAT     H258254   5.396   9.522   4.812
19338WAT      O58255   0.493   7.928   5.684
19338WAT     H158256   0.416   7.864   5.674
19338WAT     H258257   0.469   8.016   5.643
19339WAT      O58258   2.196   9.190   1.955
19339WAT     H158259   2.209   9.267   2.017
19339WAT     H258260   2.273   9.185   1.891
19340WAT      O58261   0.324   1.589   2.268
19340WAT     H158262   0.389   1.610   2.341
19340WAT     H258263   0.351   1.636   2.184
19341WAT      O58264   0.324   7.912   8.229
19341WAT     H158265   0.293   7.972   8.156
19341WAT     H258266   0.422   7.923   8.242
19342WAT      O58267   0.309   0.499   0.346
19342WAT     H158268   0.213   0.519   0.366
19342WAT     H258269   0.332   0.538   0.257
19343WAT      O58270   7.461   7.643   7.357
19343WAT     H158271   7.384   7.585   7.329
19343WAT     H258272   7.546   7.604   7.323
19344WAT      O58273   6.458   1.330   0.876
19344WAT     H158274   6.543   1.280   0.893
19344WAT     H258275   6.394   1.272   0.826
19345WAT      O58276   1.749   8.309   7.066
19345WAT     H158277   1.694   8.370   7.009
19345WAT     H258278   1.703   8.294   7.154
19346WAT      O58279   7.340   5.400   4.757
19346WAT     H158280   7.389   5.357   4.832
19346WAT     H258281   7.395   5.475   4.719
19347WAT      O58282   8.164   3.261   8.630
19347WAT     H158283   8.136   3.351   8.598
19347WAT     H258284   8.261   3.247   8.612
19348WAT      O58285   1.617   0.088   3.370
19348WAT     H158286   1.629  -0.009   3.346
19348WAT     H258287   1.532   0.099   3.421
19349WAT      O58288   9.159   6.205   8.946
19349WAT     H158289   9.084   6.250   8.897
19349WAT     H258290   9.219   6.159   8.881
19350WAT      O58291   9.599   0.008   6.994
19350WAT     H158292   9.643  -0.078   6.967
19350WAT     H258293   9.596   0.014   7.093
19351WAT      O58294   6.054   7.891   9.832
19351WAT     H158295   5.981   7.922   9.772
19351WAT     H258296   6.019   7.887   9.926
19352WAT      O58297   1.385   5.647   1.660
19352WAT     H158298   1.479   5.613   1.649
19352WAT     H258299   1.329   5.577   1.704
19353WAT      O58300   7.510   5.004   5.886
19353WAT     H158301   7.530   5.072   5.956
19353WAT     H258302   7.411   4.992   5.880
19354WAT      O58303   2.154   5.608   9.060
19354WAT     H158304   2.155   5.514   9.094
19354WAT     H258305   2.220   5.619   8.986
19355WAT      O58306   7.568   0.746   7.946
19355WAT     H158307   7.605   0.801   7.871
19355WAT     H258308   7.525   0.664   7.909
19356WAT      O58309   1.591   1.135   5.640
19356WAT     H158310   1.499   1.173   5.652
19356WAT     H258311   1.640   1.140   5.727
19357WAT      O58312   8.016   2.069   2.570
19357WAT     H158313   7.998   2.118   2.655
19357WAT     H258314   7.935   2.016   2.545
19358WAT      O58315   1.173   4.807   4.216
19358WAT     H158316   1.163   4.812   4.117
19358WAT     H258317   1.269   4.787   4.238
19359WAT      O58318   3.861   5.651   2.366
19359WAT     H158319   3.925   5.615   2.299
19359WAT     H258320   3.896   5.635   2.458
19360WAT      O58321   2.249   8.621   8.052
19360WAT     H158322   2.211   8.681   8.122
19360WAT     H258323   2.273   8.533   8.093
19361WAT      O58324   1.977   0.507   8.662
19361WAT     H158325   1.892   0.457   8.678
19361WAT     H258326   2.054   0.454   8.700
19362WAT      O58327   0.124   3.182   9.086
19362WAT     H158328   0.224   3.178   9.093
19362WAT     H258329   0.094   3.129   9.007
19363WAT      O58330   4.018   3.298   5.650
19363WAT     H158331   4.092   3.251   5.700
19363WAT     H258332   4.031   3.397   5.657
19364WAT      O58333   1.230   5.721   9.767
19364WAT     H158334   1.229   5.716   9.867
19364WAT     H258335   1.209   5.815   9.738
19365WAT      O58336   2.547   0.955   4.365
19365WAT     H158337   2.596   0.926   4.283
19365WAT     H258338   2.597   1.030   4.409
19366WAT      O58339   0.655   4.285   5.603
19366WAT     H158340   0.687   4.205   5.552
19366WAT     H258341   0.604   4.256   5.684
19367WAT      O58342   4.108   7.285   6.178
19367WAT     H158343   4.140   7.293   6.272
19367WAT     H258344   4.009   7.292   6.176
19368WAT      O58345   4.061   8.894   0.595
19368WAT     H158346   4.123   8.942   0.657
19368WAT     H258347   3.992   8.845   0.649
19369WAT      O58348   0.196   2.780   4.160
19369WAT     H158349   0.205   2.684   4.133
19369WAT     H258350   0.119   2.821   4.111
19370WAT      O58351   5.302   1.892   9.536
19370WAT     H158352   5.250   1.967   9.578
19370WAT     H258353   5.369   1.930   9.472
19371WAT      O58354   2.552   7.998   6.640
19371WAT     H158355   2.485   7.956   6.701
19371WAT     H258356   2.559   8.096   6.661
19372WAT      O58357   8.943   2.006   7.495
19372WAT     H158358   8.962   1.946   7.417
19372WAT     H258359   8.947   1.951   7.579
19373WAT      O58360   6.229   0.877   1.919
19373WAT     H158361   6.259   0.834   2.004
19373WAT     H258362   6.280   0.837   1.843
19374WAT      O58363   9.612   8.495   1.020
19374WAT     H158364   9.591   8.562   0.949
19374WAT     H258365   9.711   8.490   1.033
19375WAT      O58366   7.443   3.994   5.574
19375WAT     H158367   7.462   4.073   5.516
19375WAT     H258368   7.492   3.914   5.539
19376WAT      O58369   8.381   3.524   1.172
19376WAT     H158370   8.313   3.571   1.117
19376WAT     H258371   8.364   3.543   1.269
19377WAT      O58372   5.937   8.385   0.612
19377WAT     H158373   5.942   8.352   0.706
19377WAT     H258374   6.030   8.400   0.577
19378WAT      O58375   9.226   5.428   8.031
19378WAT     H158376   9.174   5.356   8.076
19378WAT     H258377   9.294   5.387   7.969
19379WAT      O58378   2.797   0.963   6.366
19379WAT     H158379   2.781   0.883   6.424
19379WAT     H258380   2.746   1.041   6.402
19380WAT      O58381   5.880   0.087   0.738
19380WAT     H158382   5.918   0.000   0.770
19380WAT     H258383   5.921   0.162   0.790
19381WAT      O58384   3.671   4.628   6.084
19381WAT     H158385   3.599   4.639   6.153
19381WAT     H258386   3.679   4.532   6.059
19382WAT      O58387   9.455   7.429   0.459
19382WAT     H158388   9.395   7.407   0.381
19382WAT     H258389   9.447   7.357   0.528
19383WAT      O58390   4.846   9.284   3.257
19383WAT     H158391   4.770   9.266   3.319
19383WAT     H258392   4.930   9.245   3.296
19384WAT      O58393   0.722   8.524   5.124
19384WAT     H158394   0.685   8.468   5.198
19384WAT     H258395   0.822   8.518   5.125
19385WAT      O58396   1.124   1.597   0.453
19385WAT     H158397   1.131   1.499   0.436
19385WAT     H258398   1.119   1.646   0.366
19386WAT      O58399   9.716   2.912   5.383
19386WAT     H158400   9.727   3.012   5.380
19386WAT     H258401   9.662   2.888   5.464
19387WAT      O58402   7.253   2.232   6.270
19387WAT     H158403   7.163   2.196   6.244
19387WAT     H258404   7.244   2.286   6.354
19388WAT      O58405   3.424   5.724   8.822
19388WAT     H158406   3.370   5.673   8.890
19388WAT     H258407   3.425   5.673   8.736
19389WAT      O58408   7.153   2.861   7.605
19389WAT     H158409   7.164   2.871   7.704
19389WAT     H258410   7.183   2.944   7.560
19390WAT      O58411   5.087   7.272   4.941
19390WAT     H158412   5.150   7.207   4.983
19390WAT     H258413   5.139   7.350   4.906
19391WAT      O58414   6.395   3.291   8.175
19391WAT     H158415   6.429   3.249   8.259
19391WAT     H258416   6.363   3.384   8.195
19392WAT      O58417   1.994   6.865   2.278
19392WAT     H158418   2.048   6.932   2.227
19392WAT     H258419   2.020   6.773   2.251
19393WAT      O58420   0.196   6.859   0.105
19393WAT     H158421   0.104   6.899   0.108
19393WAT     H258422   0.240   6.883   0.019
19394WAT      O58423   7.674   0.773   8.795
19394WAT     H158424   7.601   0.841   8.795
19394WAT     H258425   7.763   0.819   8.802
19395WAT      O58426   3.390   6.453   9.166
19395WAT     H158427   3.436   6.412   9.244
19395WAT     H258428   3.371   6.550   9.185
19396WAT      O58429   5.321   6.023   6.564
19396WAT     H158430   5.392   5.954   6.549
19396WAT     H258431   5.332   6.097   6.497
19397WAT      O58432   7.700   9.194   4.173
19397WAT     H158433   7.793   9.204   4.209
19397WAT     H258434   7.664   9.283   4.148
19398WAT      O58435   0.948   6.688   8.385
19398WAT     H158436   1.025   6.694   8.449
19398WAT     H258437   0.927   6.592   8.367
19399WAT      O58438   5.321   2.755   5.244
19399WAT     H158439   5.399   2.802   5.287
19399WAT     H258440   5.306   2.667   5.289
19400WAT      O58441   5.053   6.316   8.362
19400WAT     H158442   5.053   6.357   8.453
19400WAT     H258443   5.025   6.384   8.294
19401WAT      O58444   6.826   2.926   5.271
19401WAT     H158445   6.843   3.016   5.310
19401WAT     H258446   6.770   2.872   5.334
19402WAT      O58447   6.833   9.347   2.362
19402WAT     H158448   6.859   9.318   2.455
19402WAT     H258449   6.874   9.285   2.295
19403WAT      O58450   3.610   8.290   3.951
19403WAT     H158451   3.557   8.356   3.899
19403WAT     H258452   3.707   8.313   3.944
19404WAT      O58453   2.323   9.321   2.471
19404WAT     H158454   2.352   9.386   2.541
19404WAT     H258455   2.401   9.299   2.412
19405WAT      O58456   5.943   7.716   4.163
19405WAT     H158457   5.994   7.632   4.145
19405WAT     H258458   5.853   7.693   4.199
19406WAT      O58459   9.076   5.537   6.325
19406WAT     H158460   8.996   5.500   6.372
19406WAT     H258461   9.060   5.537   6.226
19407WAT      O58462   8.353   4.847   7.521
19407WAT     H158463   8.319   4.939   7.504
19407WAT     H258464   8.418   4.848   7.598
19408WAT      O58465   8.297   3.049   4.707
19408WAT     H158466   8.330   3.107   4.781
19408WAT     H258467   8.238   3.102   4.646
19409WAT      O58468   5.837   2.544   5.618
19409WAT     H158469   5.864   2.556   5.523
19409WAT     H258470   5.794   2.455   5.630
19410WAT      O58471   7.703   9.375   7.089
19410WAT     H158472   7.692   9.464   7.045
19410WAT     H258473   7.787   9.332   7.055
19411WAT      O58474   7.585   9.631   5.770
19411WAT     H158475   7.567   9.659   5.864
19411WAT     H258476   7.659   9.563   5.769
19412WAT      O58477   8.472   0.593   0.851
19412WAT     H158478   8.530   0.545   0.785
19412WAT     H258479   8.498   0.565   0.944
19413WAT      O58480   6.805   4.646   4.561
19413WAT     H158481   6.816   4.743   4.543
19413WAT     H258482   6.765   4.632   4.651
19414WAT      O58483   3.055   4.060   3.377
19414WAT     H158484   3.152   4.085   3.370
19414WAT     H258485   3.039   4.012   3.463
19415WAT      O58486   8.999   4.115   4.506
19415WAT     H158487   9.031   4.203   4.544
19415WAT     H258488   8.900   4.119   4.493
19416WAT      O58489   4.888   7.758   7.793
19416WAT     H158490   4.871   7.772   7.695
19416WAT     H258491   4.941   7.674   7.805
19417WAT      O58492   0.045   9.160   3.632
19417WAT     H158493  -0.002   9.102   3.566
19417WAT     H258494  -0.015   9.235   3.660
19418WAT      O58495   8.973   3.412   5.589
19418WAT     H158496   9.041   3.468   5.635
19418WAT     H258497   8.909   3.374   5.656
19419WAT      O58498   4.623   5.332   1.210
19419WAT     H158499   4.538   5.334   1.263
19419WAT     H258500   4.638   5.421   1.167
19420WAT      O58501   9.367   5.210   5.072
19420WAT     H158502   9.460   5.219   5.108
19420WAT     H258503   9.314   5.290   5.098
19421WAT      O58504   8.718   7.331   5.219
19421WAT     H158505   8.672   7.319   5.131
19421WAT     H258506   8.781   7.408   5.214
19422WAT      O58507   6.052   6.849   9.467
19422WAT     H158508   6.025   6.813   9.377
19422WAT     H258509   6.024   6.784   9.538
19423WAT      O58510   3.364   9.033   0.407
19423WAT     H158511   3.340   9.090   0.328
19423WAT     H258512   3.390   8.942   0.376
19424WAT      O58513   3.529   2.120   4.284
19424WAT     H158514   3.460   2.160   4.223
19424WAT     H258515   3.563   2.035   4.244
19425WAT      O58516   1.198   1.511   1.447
19425WAT     H158517   1.290   1.538   1.474
19425WAT     H258518   1.171   1.563   1.366
19426WAT      O58519   4.761   8.967   5.516
19426WAT     H158520   4.680   9.022   5.495
19426WAT     H258521   4.778   8.903   5.441
19427WAT      O58522   5.013   3.852   0.278
19427WAT     H158523   5.020   3.945   0.316
19427WAT     H258524   4.975   3.791   0.347
19428WAT      O58525   7.988   8.862   8.176
19428WAT     H158526   8.072   8.807   8.172
19428WAT     H258527   8.005   8.952   8.135
19429WAT      O58528   9.454   4.409   3.537
19429WAT     H158529   9.455   4.508   3.550
19429WAT     H258530   9.523   4.367   3.595
19430WAT      O58531   3.754   6.502   0.732
19430WAT     H158532   3.740   6.577   0.796
19430WAT     H258533   3.694   6.426   0.757
19431WAT      O58534   6.575   2.393   7.278
19431WAT     H158535   6.612   2.307   7.315
19431WAT     H258536   6.649   2.444   7.234
19432WAT      O58537   4.985   9.519   6.386
19432WAT     H158538   5.021   9.470   6.466
19432WAT     H258539   5.019   9.613   6.387
19433WAT      O58540   2.371   5.491   7.814
19433WAT     H158541   2.378   5.564   7.746
19433WAT     H258542   2.457   5.485   7.865
19434WAT      O58543   6.820   4.418   8.568
19434WAT     H158544   6.815   4.436   8.667
19434WAT     H258545   6.903   4.459   8.531
19435WAT      O58546   5.357   9.187   0.170
19435WAT     H158547   5.443   9.136   0.176
19435WAT     H258548   5.321   9.182   0.077
19436WAT      O58549   2.817   7.248   0.144
19436WAT     H158550   2.856   7.340   0.136
19436WAT     H258551   2.749   7.247   0.217
19437WAT      O58552   8.066   5.635   2.787
19437WAT     H158553   7.994   5.578   2.747
19437WAT     H258554   8.154   5.610   2.749
19438WAT      O58555   6.847   8.251   0.182
19438WAT     H158556   6.926   8.274   0.125
19438WAT     H258557   6.854   8.299   0.270
19439WAT      O58558   3.780   3.650   6.908
19439WAT     H158559   3.688   3.657   6.947
19439WAT     H258560   3.848   3.653   6.981
19440WAT      O58561   1.756   1.095   4.088
19440WAT     H158562   1.713   1.035   4.156
19440WAT     H258563   1.689   1.119   4.018
19441WAT      O58564   8.183   9.646   1.739
19441WAT     H158565   8.087   9.623   1.723
19441WAT     H258566   8.210   9.615   1.830
19442WAT      O58567   1.948   0.334   7.251
19442WAT     H158568   1.982   0.311   7.342
19442WAT     H258569   1.905   0.425   7.253
19443WAT      O58570   4.891   0.329   4.647
19443WAT     H158571   4.982   0.362   4.674
19443WAT     H258572   4.822   0.393   4.678
19444WAT      O58573   6.750   2.239   2.802
19444WAT     H158574   6.651   2.254   2.803
19444WAT     H258575   6.775   2.173   2.873
19445WAT      O58576   0.517   8.256   1.471
19445WAT     H158577   0.427   8.212   1.468
19445WAT     H258578   0.529   8.301   1.559
19446WAT      O58579   6.213   3.407   1.070
19446WAT     H158580   6.220   3.349   0.989
19446WAT     H258581   6.303   3.442   1.094
19447WAT      O58582   7.960   3.099   3.081
19447WAT     H158583   7.968   3.143   3.170
19447WAT     H258584   7.970   3.000   3.091
19448WAT      O58585   3.144   5.212   9.667
19448WAT     H158586   3.157   5.152   9.588
19448WAT     H258587   3.187   5.170   9.748
19449WAT      O58588   7.725   2.664   5.447
19449WAT     H158589   7.729   2.670   5.347
19449WAT     H258590   7.773   2.743   5.487
19450WAT      O58591   8.955   8.768   5.214
19450WAT     H158592   8.896   8.812   5.282
19450WAT     H258593   9.050   8.786   5.236
19451WAT      O58594   4.432   6.577   4.519
19451WAT     H158595   4.529   6.553   4.510
19451WAT     H258596   4.423   6.662   4.571
19452WAT      O58597   4.617   2.434   9.749
19452WAT     H158598   4.673   2.356   9.721
19452WAT     H258599   4.561   2.463   9.671
19453WAT      O58600   5.258   5.924   0.956
19453WAT     H158601   5.329   5.855   0.944
19453WAT     H258602   5.206   5.935   0.872
19454WAT      O58603   9.160   6.954   5.180
19454WAT     H158604   9.123   6.891   5.249
19454WAT     H258605   9.186   7.040   5.225
19455WAT      O58606   6.268   2.927   6.807
19455WAT     H158607   6.320   2.895   6.728
19455WAT     H258608   6.222   2.848   6.850
19456WAT      O58609   8.113   6.820   6.606
19456WAT     H158610   8.092   6.916   6.626
19456WAT     H258611   8.059   6.761   6.665
19457WAT      O58612   4.846   9.473   3.625
19457WAT     H158613   4.934   9.516   3.604
19457WAT     H258614   4.847   9.439   3.719
19458WAT      O58615   2.521   4.221   9.854
19458WAT     H158616   2.565   4.141   9.896
19458WAT     H258617   2.589   4.292   9.841
19459WAT      O58618   7.229   2.481   4.308
19459WAT     H158619   7.287   2.562   4.316
19459WAT     H258620   7.269   2.406   4.362
19460WAT      O58621   2.829   5.618   0.125
19460WAT     H158622   2.787   5.707   0.139
19460WAT     H258623   2.902   5.604   0.193
19461WAT      O58624   9.622   8.860   2.393
19461WAT     H158625   9.633   8.931   2.323
19461WAT     H258626   9.580   8.900   2.474
19462WAT      O58627   0.569   1.749   3.112
19462WAT     H158628   0.520   1.767   3.197
19462WAT     H258629   0.652   1.803   3.109
19463WAT      O58630   0.789   6.182   3.009
19463WAT     H158631   0.746   6.151   2.925
19463WAT     H258632   0.783   6.110   3.078
19464WAT      O58633   3.186   8.324   3.823
19464WAT     H158634   3.122   8.276   3.762
19464WAT     H258635   3.205   8.266   3.902
19465WAT      O58636   4.837   4.430   8.817
19465WAT     H158637   4.768   4.387   8.759
19465WAT     H258638   4.801   4.516   8.853
19466WAT      O58639   0.556   1.833   8.163
19466WAT     H158640   0.576   1.758   8.100
19466WAT     H258641   0.637   1.891   8.173
19467WAT      O58642   6.486   1.110   5.275
19467WAT     H158643   6.519   1.115   5.369
19467WAT     H258644   6.555   1.068   5.217
19468WAT      O58645   8.927   8.971   0.926
19468WAT     H158646   8.844   8.945   0.976
19468WAT     H258647   8.902   9.014   0.839
19469WAT      O58648   5.733   2.351   8.350
19469WAT     H158649   5.682   2.280   8.400
19469WAT     H258650   5.831   2.329   8.354
19470WAT      O58651   8.191   6.747   1.592
19470WAT     H158652   8.262   6.677   1.602
19470WAT     H258653   8.124   6.736   1.666
19471WAT      O58654   7.075   8.854   6.259
19471WAT     H158655   7.032   8.944   6.249
19471WAT     H258656   7.003   8.784   6.271
19472WAT      O58657   9.754   5.337   5.769
19472WAT     H158658   9.689   5.276   5.724
19472WAT     H258659   9.707   5.419   5.802
19473WAT      O58660   8.221   3.547   5.605
19473WAT     H158661   8.218   3.582   5.511
19473WAT     H258662   8.129   3.521   5.634
19474WAT      O58663   0.057   4.664   3.333
19474WAT     H158664   0.110   4.581   3.349
19474WAT     H258665  -0.014   4.645   3.264
19475WAT      O58666   2.830   0.331   3.093
19475WAT     H158667   2.773   0.255   3.123
19475WAT     H258668   2.828   0.336   2.993
19476WAT      O58669   3.384   2.605   3.165
19476WAT     H158670   3.321   2.531   3.189
19476WAT     H258671   3.363   2.686   3.220
19477WAT      O58672   9.634   5.947   6.002
19477WAT     H158673   9.731   5.923   6.000
19477WAT     H258674   9.595   5.922   6.090
19478WAT      O58675   2.538   3.276   9.770
19478WAT     H158676   2.525   3.177   9.779
19478WAT     H258677   2.544   3.301   9.674
19479WAT      O58678   6.118   8.684   2.361
19479WAT     H158679   6.031   8.697   2.409
19479WAT     H258680   6.186   8.747   2.398
19480WAT      O58681   6.795   0.934   3.223
19480WAT     H158682   6.801   1.000   3.297
19480WAT     H258683   6.730   0.862   3.248
19481WAT      O58684   7.165   5.180   0.767
19481WAT     H158685   7.096   5.167   0.696
19481WAT     H258686   7.144   5.263   0.819
19482WAT      O58687   8.612   7.835   8.767
19482WAT     H158688   8.619   7.769   8.692
19482WAT     H258689   8.620   7.928   8.731
19483WAT      O58690   2.162   8.768   5.626
19483WAT     H158691   2.084   8.711   5.652
19483WAT     H258692   2.228   8.713   5.576
19484WAT      O58693   0.207   8.798   0.563
19484WAT     H158694   0.139   8.724   0.561
19484WAT     H258695   0.296   8.761   0.536
19485WAT      O58696   8.942   1.658   4.317
19485WAT     H158697   8.911   1.600   4.241
19485WAT     H258698   9.000   1.605   4.378
19486WAT      O58699   7.064   8.793   4.160
19486WAT     H158700   6.976   8.765   4.199
19486WAT     H258701   7.119   8.839   4.230
19487WAT      O58702   5.698   5.665   1.451
19487WAT     H158703   5.783   5.631   1.492
19487WAT     H258704   5.634   5.690   1.523
19488WAT      O58705   3.824   8.935   3.589
19488WAT     H158706   3.864   8.966   3.503
19488WAT     H258707   3.757   9.003   3.620
19489WAT      O58708   2.851   0.757   5.655
19489WAT     H158709   2.770   0.812   5.636
19489WAT     H258710   2.931   0.801   5.615
19490WAT      O58711   5.782   0.228   9.722
19490WAT     H158712   5.859   0.291   9.707
19490WAT     H258713   5.704   0.279   9.759
19491WAT      O58714   3.984   0.872   3.192
19491WAT     H158715   4.032   0.957   3.213
19491WAT     H258716   3.992   0.808   3.268
19492WAT      O58717   4.984   5.835   5.531
19492WAT     H158718   4.959   5.745   5.496
19492WAT     H258719   4.902   5.893   5.537
19493WAT      O58720   6.143   6.869   7.947
19493WAT     H158721   6.147   6.920   8.033
19493WAT     H258722   6.057   6.890   7.900
19494WAT      O58723   5.213   8.821   9.260
19494WAT     H158724   5.129   8.830   9.205
19494WAT     H258725   5.274   8.755   9.217
19495WAT      O58726   6.114   8.080   3.892
19495WAT     H158727   6.056   7.999   3.882
19495WAT     H258728   6.147   8.108   3.802
19496WAT      O58729   6.611   7.036   3.651
19496WAT     H158730   6.621   7.134   3.672
19496WAT     H258731   6.655   7.016   3.564
19497WAT      O58732   3.821   5.715   5.034
19497WAT     H158733   3.731   5.703   5.075
19497WAT     H258734   3.814   5.773   4.953
19498WAT      O58735   8.878   5.150   3.773
19498WAT     H158736   8.798   5.094   3.750
19498WAT     H258737   8.866   5.190   3.864
19499WAT      O58738   7.440   9.745   0.576
19499WAT     H158739   7.515   9.731   0.511
19499WAT     H258740   7.454   9.685   0.655
19500WAT      O58741   0.843   2.878   0.655
19500WAT     H158742   0.793   2.809   0.707
19500WAT     H258743   0.929   2.840   0.622
19501WAT      O58744   1.072   5.553   0.181
19501WAT     H158745   1.097   5.649   0.168
19501WAT     H258746   1.020   5.544   0.265
19502WAT      O58747   0.818   9.686   5.454
19502WAT     H158748   0.819   9.587   5.468
19502WAT     H258749   0.911   9.720   5.443
19503WAT      O58750   5.119   4.721   9.336
19503WAT     H158751   5.210   4.723   9.293
19503WAT     H258752   5.049   4.722   9.264
19504WAT      O58753   3.861   9.665   1.131
19504WAT     H158754   3.958   9.644   1.118
19504WAT     H258755   3.852   9.757   1.169
19505WAT      O58756   2.014   8.036   2.897
19505WAT     H158757   2.048   8.123   2.862
19505WAT     H258758   2.050   8.020   2.989
19506WAT      O58759   9.007   6.771   1.043
19506WAT     H158760   9.080   6.704   1.058
19506WAT     H258761   8.922   6.737   1.084
19507WAT      O58762   9.160   6.228   2.627
19507WAT     H158763   9.114   6.247   2.714
19507WAT     H258764   9.257   6.251   2.635
19508WAT      O58765   2.050   7.763   9.485
19508WAT     H158766   2.033   7.828   9.411
19508WAT     H258767   2.085   7.677   9.446
19509WAT      O58768   0.878   4.987   4.399
19509WAT     H158769   0.840   4.908   4.351
19509WAT     H258770   0.977   4.974   4.412
19510WAT      O58771   2.892   5.400   3.588
19510WAT     H158772   2.875   5.378   3.684
19510WAT     H258773   2.930   5.492   3.581
19511WAT      O58774   2.786   8.604   1.383
19511WAT     H158775   2.836   8.569   1.462
19511WAT     H258776   2.851   8.623   1.309
19512WAT      O58777   3.176   4.229   7.191
19512WAT     H158778   3.183   4.161   7.117
19512WAT     H258779   3.155   4.318   7.152
19513WAT      O58780   1.172   4.340   3.587
19513WAT     H158781   1.074   4.343   3.610
19513WAT     H258782   1.211   4.431   3.596
19514WAT      O58783   1.661   1.454   5.660
19514WAT     H158784   1.603   1.396   5.602
19514WAT     H258785   1.631   1.549   5.653
19515WAT      O58786   0.803   3.124   8.457
19515WAT     H158787   0.881   3.070   8.425
19515WAT     H258788   0.726   3.063   8.476
19516WAT      O58789   1.470   8.028   0.602
19516WAT     H158790   1.530   7.981   0.537
19516WAT     H258791   1.488   7.994   0.694
19517WAT      O58792   6.536   1.762   2.609
19517WAT     H158793   6.578   1.841   2.654
19517WAT     H258794   6.603   1.716   2.551
19518WAT      O58795   6.900   7.986   0.123
19518WAT     H158796   6.987   7.964   0.165
19518WAT     H258797   6.867   8.075   0.156
19519WAT      O58798   7.620   3.452   0.463
19519WAT     H158799   7.576   3.362   0.463
19519WAT     H258800   7.715   3.442   0.433
19520WAT      O58801   7.141   2.005   5.364
19520WAT     H158802   7.162   2.073   5.294
19520WAT     H258803   7.093   2.049   5.440
19521WAT      O58804   9.711   6.282   3.767
19521WAT     H158805   9.611   6.286   3.772
19521WAT     H258806   9.740   6.269   3.673
19522WAT      O58807   7.445   3.633   4.291
19522WAT     H158808   7.488   3.589   4.370
19522WAT     H258809   7.385   3.567   4.245
19523WAT      O58810   1.082   9.530   1.250
19523WAT     H158811   1.070   9.610   1.191
19523WAT     H258812   1.019   9.458   1.223
19524WAT      O58813   3.338   6.423   8.465
19524WAT     H158814   3.343   6.522   8.480
19524WAT     H258815   3.246   6.391   8.486
19525WAT      O58816   8.409   1.613   8.966
19525WAT     H158817   8.329   1.587   8.912
19525WAT     H258818   8.405   1.571   9.056
19526WAT      O58819   4.298   9.501   6.849
19526WAT     H158820   4.231   9.486   6.777
19526WAT     H258821   4.281   9.589   6.894
19527WAT      O58822   5.634   0.089   5.414
19527WAT     H158823   5.693   0.110   5.492
19527WAT     H258824   5.554   0.150   5.415
19528WAT      O58825   6.963   9.480   6.541
19528WAT     H158826   6.908   9.563   6.541
19528WAT     H258827   7.049   9.496   6.492
19529WAT      O58828   9.468   7.512   0.925
19529WAT     H158829   9.393   7.563   0.885
19529WAT     H258830   9.434   7.427   0.964
19530WAT      O58831   9.397   0.683   4.319
19530WAT     H158832   9.434   0.672   4.411
19530WAT     H258833   9.471   0.704   4.255
19531WAT      O58834   0.300   3.879   9.295
19531WAT     H158835   0.238   3.808   9.259
19531WAT     H258836   0.253   3.968   9.291
19532WAT      O58837   9.515   7.611   3.881
19532WAT     H158838   9.444   7.652   3.939
19532WAT     H258839   9.488   7.518   3.857
19533WAT      O58840   3.551   6.749   0.498
19533WAT     H158841   3.626   6.815   0.507
19533WAT     H258842   3.589   6.658   0.482
19534WAT      O58843   1.205   5.439   2.286
19534WAT     H158844   1.298   5.432   2.322
19534WAT     H258845   1.140   5.445   2.362
19535WAT      O58846   4.079   6.884   2.297
19535WAT     H158847   3.991   6.854   2.261
19535WAT     H258848   4.126   6.807   2.339
19536WAT      O58849   5.442   5.183   4.116
19536WAT     H158850   5.472   5.212   4.207
19536WAT     H258851   5.454   5.258   4.051
19537WAT      O58852   7.648   3.148   9.185
19537WAT     H158853   7.664   3.203   9.267
19537WAT     H258854   7.614   3.207   9.111
19538WAT      O58855   2.887   0.948   4.655
19538WAT     H158856   2.908   0.978   4.748
19538WAT     H258857   2.933   1.007   4.589
19539WAT      O58858   5.060   1.371   4.488
19539WAT     H158859   5.010   1.286   4.469
19539WAT     H258860   4.995   1.444   4.510
19540WAT      O58861   6.940   6.095   3.196
19540WAT     H158862   7.039   6.089   3.181
19540WAT     H258863   6.903   6.002   3.203
19541WAT      O58864   8.274   6.561   4.091
19541WAT     H158865   8.287   6.507   4.008
19541WAT     H258866   8.176   6.568   4.112
19542WAT      O58867   6.741   8.834   9.146
19542WAT     H158868   6.769   8.927   9.173
19542WAT     H258869   6.719   8.834   9.048
19543WAT      O58870   7.912   8.682   5.242
19543WAT     H158871   7.987   8.731   5.286
19543WAT     H258872   7.906   8.711   5.146
19544WAT      O58873   4.322   2.396   7.045
19544WAT     H158874   4.403   2.408   7.102
19544WAT     H258875   4.350   2.375   6.951
19545WAT      O58876   4.276   5.206   1.039
19545WAT     H158877   4.263   5.171   1.132
19545WAT     H258878   4.275   5.306   1.041
19546WAT      O58879   7.924   1.285   0.948
19546WAT     H158880   7.841   1.315   0.996
19546WAT     H258881   7.913   1.301   0.850
19547WAT      O58882   0.441   2.761   4.553
19547WAT     H158883   0.490   2.845   4.529
19547WAT     H258884   0.506   2.685   4.559
19548WAT      O58885   5.049   0.619   3.201
19548WAT     H158886   5.047   0.604   3.300
19548WAT     H258887   5.135   0.664   3.176
19549WAT      O58888   3.087   5.427   4.552
19549WAT     H158889   3.007   5.380   4.513
19549WAT     H258890   3.169   5.401   4.501
19550WAT      O58891   8.106   6.407   1.925
19550WAT     H158892   8.076   6.325   1.974
19550WAT     H258893   8.026   6.456   1.891
19551WAT      O58894   2.508   5.953   3.965
19551WAT     H158895   2.597   5.964   4.010
19551WAT     H258896   2.456   6.039   3.973
19552WAT      O58897   6.813   4.656   7.321
19552WAT     H158898   6.907   4.688   7.307
19552WAT     H258899   6.813   4.556   7.328
19553WAT      O58900   8.708   9.198   1.383
19553WAT     H158901   8.788   9.249   1.353
19553WAT     H258902   8.644   9.187   1.307
19554WAT      O58903   9.516   1.254   9.060
19554WAT     H158904   9.499   1.352   9.066
19554WAT     H258905   9.614   1.236   9.062
19555WAT      O58906   8.042   6.794   8.931
19555WAT     H158907   7.975   6.756   8.867
19555WAT     H258908   8.069   6.885   8.901
19556WAT      O58909   3.576   8.127   3.349
19556WAT     H158910   3.513   8.082   3.411
19556WAT     H258911   3.610   8.061   3.281
19557WAT      O58912   4.142   7.213   2.128
19557WAT     H158913   4.218   7.148   2.123
19557WAT     H258914   4.164   7.294   2.073
19558WAT      O58915   6.175   1.589   2.613
19558WAT     H158916   6.253   1.559   2.559
19558WAT     H258917   6.112   1.640   2.555
19559WAT      O58918   8.938   2.193   5.835
19559WAT     H158919   8.923   2.273   5.776
19559WAT     H258920   8.950   2.223   5.929
19560WAT      O58921   6.386   5.913   7.821
19560WAT     H158922   6.403   6.011   7.814
19560WAT     H258923   6.291   5.894   7.797
19561WAT      O58924   7.321   9.106   8.181
19561WAT     H158925   7.270   9.021   8.176
19561WAT     H258926   7.378   9.106   8.263
19562WAT      O58927   6.444   7.390   9.811
19562WAT     H158928   6.519   7.419   9.752
19562WAT     H258929   6.439   7.451   9.890
19563WAT      O58930   7.069   4.689   7.262
19563WAT     H158931   7.104   4.596   7.278
19563WAT     H258932   7.114   4.728   7.181
19564WAT      O58933   8.738   3.034   7.263
19564WAT     H158934   8.656   3.074   7.222
19564WAT     H258935   8.758   2.947   7.218
19565WAT      O58936   9.439   8.517   2.751
19565WAT     H158937   9.397   8.442   2.802
19565WAT     H258938   9.413   8.511   2.655
19566WAT      O58939   0.015   9.179   6.220
19566WAT     H158940  -0.053   9.129   6.166
19566WAT     H258941   0.107   9.148   6.195
19567WAT      O58942   4.599   6.839   2.253
19567WAT     H158943   4.565   6.921   2.299
19567WAT     H258944   4.567   6.839   2.158
19568WAT      O58945   5.826   9.738   4.229
19568WAT     H158946   5.752   9.798   4.258
19568WAT     H258947   5.908   9.793   4.211
19569WAT      O58948   6.393   8.256   2.705
19569WAT     H158949   6.295   8.257   2.728
19569WAT     H258950   6.433   8.169   2.735
19570WAT      O58951   8.903   6.543   8.413
19570WAT     H158952   8.956   6.567   8.495
19570WAT     H258953   8.922   6.609   8.340
19571WAT      O58954   9.797   7.731   4.209
19571WAT     H158955   9.849   7.652   4.241
19571WAT     H258956   9.787   7.725   4.109
19572WAT      O58957   6.114   9.277   1.533
19572WAT     H158958   6.055   9.290   1.613
19572WAT     H258959   6.164   9.191   1.542
19573WAT      O58960   2.796   6.007   3.818
19573WAT     H158961   2.886   5.963   3.821
19573WAT     H258962   2.790   6.064   3.736
19574WAT      O58963   9.171   2.664   9.010
19574WAT     H158964   9.098   2.714   9.057
19574WAT     H258965   9.225   2.614   9.077
19575WAT      O58966   4.702   0.042   7.625
19575WAT     H158967   4.606   0.028   7.601
19575WAT     H258968   4.718   0.008   7.718
19576WAT      O58969   3.757   9.041   6.303
19576WAT     H158970   3.753   9.128   6.352
19576WAT     H258971   3.849   9.026   6.268
19577WAT      O58972   5.608   6.201   6.486
19577WAT     H158973   5.686   6.257   6.513
19577WAT     H258974   5.640   6.114   6.450
19578WAT      O58975   1.066   6.883   9.677
19578WAT     H158976   1.075   6.977   9.710
19578WAT     H258977   1.066   6.883   9.577
19579WAT      O58978   6.743   6.582   1.358
19579WAT     H158979   6.779   6.668   1.394
19579WAT     H258980   6.679   6.543   1.424
19580WAT      O58981   1.500   3.395   9.238
19580WAT     H158982   1.564   3.435   9.303
19580WAT     H258983   1.409   3.391   9.278
19581WAT      O58984   5.365   4.781   0.921
19581WAT     H158985   5.382   4.730   0.837
19581WAT     H258986   5.438   4.761   0.987
19582WAT      O58987   7.747   9.509   3.158
19582WAT     H158988   7.687   9.589   3.157
19582WAT     H258989   7.704   9.437   3.212
19583WAT      O58990   9.123   0.250   3.330
19583WAT     H158991   9.050   0.289   3.385
19583WAT     H258992   9.108   0.270   3.233
19584WAT      O58993   7.619   4.199   6.392
19584WAT     H158994   7.640   4.274   6.330
19584WAT     H258995   7.548   4.228   6.456
19585WAT      O58996   1.713   2.569   1.912
19585WAT     H158997   1.812   2.584   1.910
19585WAT     H258998   1.685   2.521   1.829
19586WAT      O58999   1.284   0.651   7.509
19586WAT     H159000   1.360   0.619   7.453
19586WAT     H259001   1.208   0.678   7.449
19587WAT      O59002   4.936   2.047   2.886
19587WAT     H159003   4.954   2.034   2.984
19587WAT     H259004   5.018   2.085   2.842
19588WAT      O59005   7.575   8.472   3.301
19588WAT     H159006   7.518   8.392   3.281
19588WAT     H259007   7.518   8.546   3.336
19589WAT      O59008   8.892   1.750   2.085
19589WAT     H159009   8.855   1.841   2.067
19589WAT     H259010   8.834   1.681   2.042
19590WAT      O59011   2.413   5.804   2.502
19590WAT     H159012   2.453   5.762   2.583
19590WAT     H259013   2.343   5.870   2.531
19591WAT      O59014   1.023   5.666   7.659
19591WAT     H159015   1.040   5.696   7.566
19591WAT     H259016   0.927   5.641   7.669
19592WAT      O59017   1.848   3.437   4.296
19592WAT     H159018   1.844   3.432   4.396
19592WAT     H259019   1.875   3.529   4.268
19593WAT      O59020   2.834   4.476   9.072
19593WAT     H159021   2.902   4.477   8.999
19593WAT     H259022   2.763   4.409   9.051
19594WAT      O59023   8.874   6.357   8.094
19594WAT     H159024   8.911   6.351   8.001
19594WAT     H259025   8.775   6.371   8.089
19595WAT      O59026   8.057   0.896   0.168
19595WAT     H159027   8.130   0.864   0.109
19595WAT     H259028   8.088   0.976   0.220
19596WAT      O59029   6.774   7.159   2.703
19596WAT     H159030   6.853   7.100   2.686
19596WAT     H259031   6.762   7.220   2.625
19597WAT      O59032   8.146   0.354   0.991
19597WAT     H159033   8.136   0.347   1.091
19597WAT     H259034   8.242   0.363   0.968
19598WAT      O59035   7.390   4.345   6.501
19598WAT     H159036   7.371   4.326   6.597
19598WAT     H259037   7.308   4.326   6.447
19599WAT      O59038   7.596   1.647   4.952
19599WAT     H159039   7.541   1.725   4.982
19599WAT     H259040   7.658   1.619   5.026
19600WAT      O59041   0.868   5.735   0.683
19600WAT     H159042   0.821   5.789   0.753
19600WAT     H259043   0.943   5.684   0.725
19601WAT      O59044   8.978   8.374   5.114
19601WAT     H159045   8.916   8.296   5.125
19601WAT     H259046   9.020   8.370   5.024
19602WAT      O59047   3.472   8.093   1.792
19602WAT     H159048   3.563   8.052   1.789
19602WAT     H259049   3.471   8.178   1.740
19603WAT      O59050   1.975   1.591   9.507
19603WAT     H159051   1.998   1.522   9.575
19603WAT     H259052   1.932   1.547   9.428
19604WAT      O59053   6.102   0.269   9.466
19604WAT     H159054   6.117   0.182   9.513
19604WAT     H259055   6.129   0.261   9.370
19605WAT      O59056   3.850   1.306   9.262
19605WAT     H159057   3.885   1.400   9.263
19605WAT     H259058   3.799   1.289   9.346
19606WAT      O59059   1.756   9.309   6.423
19606WAT     H159060   1.755   9.254   6.339
19606WAT     H259061   1.675   9.367   6.426
19607WAT      O59062   0.076   3.938   0.175
19607WAT     H159063   0.126   3.996   0.240
19607WAT     H259064   0.065   3.847   0.214
19608WAT      O59065   7.527   5.532   5.312
19608WAT     H159066   7.448   5.560   5.368
19608WAT     H259067   7.563   5.446   5.348
19609WAT      O59068   8.634   3.324   9.270
19609WAT     H159069   8.600   3.246   9.323
19609WAT     H259070   8.667   3.292   9.182
19610WAT      O59071   2.521   9.679   5.101
19610WAT     H159072   2.477   9.637   5.022
19610WAT     H259073   2.474   9.650   5.185
19611WAT      O59074   6.614   1.603   8.830
19611WAT     H159075   6.583   1.676   8.769
19611WAT     H259076   6.676   1.641   8.899
19612WAT      O59077   5.699   4.360   4.448
19612WAT     H159078   5.605   4.328   4.433
19612WAT     H259079   5.762   4.305   4.393
19613WAT      O59080   1.060   3.420   3.571
19613WAT     H159081   1.002   3.406   3.651
19613WAT     H259082   1.078   3.332   3.526
19614WAT      O59083   9.616   8.281   0.249
19614WAT     H159084   9.531   8.262   0.199
19614WAT     H259085   9.607   8.367   0.299
19615WAT      O59086   3.369   5.609   0.699
19615WAT     H159087   3.374   5.601   0.798
19615WAT     H259088   3.447   5.562   0.657
19616WAT      O59089   3.317   9.360   5.104
19616WAT     H159090   3.337   9.303   5.024
19616WAT     H259091   3.231   9.409   5.089
19617WAT      O59092   8.229   0.122   2.689
19617WAT     H159093   8.219   0.207   2.741
19617WAT     H259094   8.317   0.121   2.642
19618WAT      O59095   5.280   6.108   9.376
19618WAT     H159096   5.269   6.174   9.450
19618WAT     H259097   5.376   6.103   9.349
19619WAT      O59098   7.264   9.155   6.437
19619WAT     H159099   7.294   9.106   6.356
19619WAT     H259100   7.261   9.093   6.515
19620WAT      O59101   4.292   2.045   4.295
19620WAT     H159102   4.265   1.963   4.245
19620WAT     H259103   4.295   2.025   4.393
19621WAT      O59104   4.559   6.164   6.392
19621WAT     H159105   4.643   6.189   6.343
19621WAT     H259106   4.565   6.068   6.420
19622WAT      O59107   5.828   7.593   4.603
19622WAT     H159108   5.794   7.505   4.570
19622WAT     H259109   5.926   7.601   4.582
19623WAT      O59110   3.998   7.905   0.612
19623WAT     H159111   4.032   7.949   0.695
19623WAT     H259112   3.898   7.900   0.615
19624WAT      O59113   5.264   7.910   1.082
19624WAT     H159114   5.300   8.003   1.086
19624WAT     H259115   5.235   7.889   0.989
19625WAT      O59116   0.709   2.263   2.545
19625WAT     H159117   0.685   2.341   2.603
19625WAT     H259118   0.806   2.267   2.521
19626WAT      O59119   5.364   4.446   0.968
19626WAT     H159120   5.304   4.375   0.932
19626WAT     H259121   5.336   4.470   1.061
19627WAT      O59122   8.728   6.403   2.334
19627WAT     H159123   8.632   6.429   2.339
19627WAT     H259124   8.780   6.477   2.292
19628WAT      O59125   1.623   5.414   8.453
19628WAT     H159126   1.715   5.374   8.452
19628WAT     H259127   1.575   5.385   8.535
19629WAT      O59128   1.462   7.307   2.990
19629WAT     H159129   1.466   7.407   2.990
19629WAT     H259130   1.547   7.271   2.951
19630WAT      O59131   8.237   6.169   6.323
19630WAT     H159132   8.202   6.259   6.350
19630WAT     H259133   8.182   6.098   6.366
19631WAT      O59134   5.440   7.546   0.931
19631WAT     H159135   5.352   7.563   0.886
19631WAT     H259136   5.502   7.502   0.866
19632WAT      O59137   1.942   4.805   9.498
19632WAT     H159138   2.006   4.782   9.425
19632WAT     H259139   1.943   4.733   9.567
19633WAT      O59140   8.491   3.719   7.811
19633WAT     H159141   8.464   3.673   7.896
19633WAT     H259142   8.571   3.674   7.773
19634WAT      O59143   2.048   2.665   6.503
19634WAT     H159144   2.074   2.760   6.485
19634WAT     H259145   2.095   2.605   6.438
19635WAT      O59146   8.006   4.102   1.505
19635WAT     H159147   8.059   4.171   1.455
19635WAT     H259148   7.911   4.104   1.475
19636WAT      O59149   4.003   8.414   3.732
19636WAT     H159150   4.011   8.446   3.827
19636WAT     H259151   3.909   8.386   3.714
19637WAT      O59152   4.025   4.991   2.014
19637WAT     H159153   4.063   5.063   1.957
19637WAT     H259154   3.948   5.027   2.067
19638WAT      O59155   5.944   0.946   5.550
19638WAT     H159156   5.939   0.894   5.465
19638WAT     H259157   5.896   1.033   5.539
19639WAT      O59158   4.646   4.826   2.319
19639WAT     H159159   4.684   4.895   2.381
19639WAT     H259160   4.668   4.735   2.353
19640WAT      O59161   3.431   4.007   4.858
19640WAT     H159162   3.402   4.055   4.775
19640WAT     H259163   3.508   4.057   4.899
19641WAT      O59164   9.516   9.540   1.508
19641WAT     H159165   9.454   9.548   1.586
19641WAT     H259166   9.509   9.449   1.469
19642WAT      O59167   6.832   0.865   1.061
19642WAT     H159168   6.901   0.934   1.082
19642WAT     H259169   6.832   0.846   0.963
19643WAT      O59170   0.850   2.581   9.674
19643WAT     H159171   0.758   2.542   9.676
19643WAT     H259172   0.890   2.567   9.583
19644WAT      O59173   7.334   4.045   6.282
19644WAT     H159174   7.269   4.110   6.321
19644WAT     H259175   7.403   4.022   6.351
19645WAT      O59176   2.957   8.321   2.545
19645WAT     H159177   2.917   8.229   2.554
19645WAT     H259178   3.050   8.314   2.510
19646WAT      O59179   6.772   6.722   5.951
19646WAT     H159180   6.853   6.665   5.966
19646WAT     H259181   6.793   6.792   5.884
19647WAT      O59182   7.498   1.632   4.385
19647WAT     H159183   7.517   1.730   4.392
19647WAT     H259184   7.401   1.616   4.398
19648WAT      O59185   7.820   7.942   9.584
19648WAT     H159186   7.840   7.959   9.680
19648WAT     H259187   7.780   8.025   9.543
19649WAT      O59188   4.240   0.645   2.200
19649WAT     H159189   4.227   0.610   2.293
19649WAT     H259190   4.157   0.627   2.146
19650WAT      O59191   4.620   5.290   2.159
19650WAT     H159192   4.583   5.382   2.170
19650WAT     H259193   4.683   5.271   2.234
19651WAT      O59194   9.024   4.258   8.399
19651WAT     H159195   8.927   4.270   8.421
19651WAT     H259196   9.079   4.316   8.460
19652WAT      O59197   1.440   0.635   3.910
19652WAT     H159198   1.465   0.545   3.873
19652WAT     H259199   1.442   0.632   4.010
19653WAT      O59200   4.255   3.416   2.189
19653WAT     H159201   4.320   3.486   2.159
19653WAT     H259202   4.201   3.385   2.111
19654WAT      O59203   5.671   3.984   4.039
19654WAT     H159204   5.664   3.909   3.973
19654WAT     H259205   5.750   4.040   4.017
19655WAT      O59206   6.990   0.721   6.306
19655WAT     H159207   6.959   0.745   6.214
19655WAT     H259208   7.090   0.713   6.306
19656WAT      O59209   4.000   7.626   2.221
19656WAT     H159210   4.034   7.671   2.139
19656WAT     H259211   3.972   7.695   2.288
19657WAT      O59212   8.405   2.918   2.839
19657WAT     H159213   8.446   2.855   2.772
19657WAT     H259214   8.354   2.865   2.907
19658WAT      O59215   0.442   2.131   8.647
19658WAT     H159216   0.533   2.102   8.674
19658WAT     H259217   0.408   2.072   8.574
19659WAT      O59218   9.161   7.849   6.665
19659WAT     H159219   9.074   7.892   6.687
19659WAT     H259220   9.172   7.843   6.566
19660WAT      O59221   6.345   6.073   0.914
19660WAT     H159222   6.338   6.172   0.908
19660WAT     H259223   6.377   6.036   0.827
19661WAT      O59224   3.370   7.386   1.560
19661WAT     H159225   3.420   7.418   1.479
19661WAT     H259226   3.271   7.385   1.540
19662WAT      O59227   1.220   2.955   8.183
19662WAT     H159228   1.288   2.887   8.209
19662WAT     H259229   1.265   3.027   8.129
19663WAT      O59230   2.287   1.712   4.674
19663WAT     H159231   2.210   1.671   4.626
19663WAT     H259232   2.267   1.807   4.695
19664WAT      O59233   0.096   7.667   5.758
19664WAT     H159234   0.014   7.692   5.707
19664WAT     H259235   0.098   7.719   5.844
19665WAT      O59236   8.807   8.990   6.875
19665WAT     H159237   8.711   8.978   6.853
19665WAT     H259238   8.826   8.950   6.964
19666WAT      O59239   4.099   8.693   5.034
19666WAT     H159240   4.114   8.748   5.116
19666WAT     H259241   4.118   8.749   4.953
19667WAT      O59242   0.526   1.687   8.720
19667WAT     H159243   0.573   1.738   8.648
19667WAT     H259244   0.428   1.703   8.714
19668WAT      O59245   7.351   1.409   7.367
19668WAT     H159246   7.310   1.349   7.436
19668WAT     H259247   7.289   1.416   7.289
19669WAT      O59248   9.625   2.784   5.627
19669WAT     H159249   9.666   2.759   5.715
19669WAT     H259250   9.628   2.706   5.566
19670WAT      O59251   3.072   3.160   9.475
19670WAT     H159252   3.119   3.143   9.562
19670WAT     H259253   3.139   3.157   9.400
19671WAT      O59254   2.878   3.131   5.495
19671WAT     H159255   2.962   3.174   5.528
19671WAT     H259256   2.865   3.153   5.398
19672WAT      O59257   4.175   2.118   3.458
19672WAT     H159258   4.212   2.203   3.420
19672WAT     H259259   4.244   2.075   3.516
19673WAT      O59260   1.839   7.174   6.250
19673WAT     H159261   1.767   7.218   6.303
19673WAT     H259262   1.813   7.080   6.229
19674WAT      O59263   4.188   0.214   0.766
19674WAT     H159264   4.128   0.270   0.709
19674WAT     H259265   4.138   0.182   0.846
19675WAT      O59266   0.135   6.104   2.997
19675WAT     H159267   0.183   6.093   3.084
19675WAT     H259268   0.063   6.035   2.989
19676WAT      O59269   9.444   5.361   3.386
19676WAT     H159270   9.437   5.277   3.440
19676WAT     H259271   9.481   5.339   3.295
19677WAT      O59272   0.033   8.550   7.581
19677WAT     H159273  -0.006   8.554   7.489
19677WAT     H259274   0.029   8.641   7.623
19678WAT      O59275   7.893   2.999   8.727
19678WAT     H159276   7.891   2.995   8.627
19678WAT     H259277   7.974   2.951   8.760
19679WAT      O59278   3.862   4.947   5.394
19679WAT     H159279   3.913   5.030   5.376
19679WAT     H259280   3.816   4.917   5.310
19680WAT      O59281   7.789   9.449   1.866
19680WAT     H159282   7.700   9.419   1.834
19680WAT     H259283   7.806   9.413   1.958
19681WAT      O59284   0.439   5.592   0.658
19681WAT     H159285   0.391   5.537   0.589
19681WAT     H259286   0.432   5.548   0.747
19682WAT      O59287   0.892   7.344   5.064
19682WAT     H159288   0.799   7.379   5.078
19682WAT     H259289   0.944   7.410   5.010
19683WAT      O59290   3.276   0.889   8.438
19683WAT     H159291   3.347   0.958   8.451
19683WAT     H259292   3.288   0.844   8.350
19684WAT      O59293   0.692   2.734   6.115
19684WAT     H159294   0.774   2.781   6.147
19684WAT     H259295   0.629   2.800   6.074
19685WAT      O59296   3.409   0.500   7.183
19685WAT     H159297   3.314   0.525   7.164
19685WAT     H259298   3.412   0.408   7.222
19686WAT      O59299   2.642   4.338   7.266
19686WAT     H159300   2.655   4.251   7.219
19686WAT     H259301   2.691   4.337   7.353
19687WAT      O59302   6.984   0.558   0.677
19687WAT     H159303   6.973   0.524   0.584
19687WAT     H259304   7.062   0.621   0.679
19688WAT      O59305   1.712   8.888   4.694
19688WAT     H159306   1.739   8.861   4.601
19688WAT     H259307   1.774   8.959   4.727
19689WAT      O59308   7.782   2.296   9.464
19689WAT     H159309   7.728   2.226   9.418
19689WAT     H259310   7.861   2.254   9.508
19690WAT      O59311   3.242   5.179   5.873
19690WAT     H159312   3.170   5.129   5.826
19690WAT     H259313   3.236   5.277   5.851
19691WAT      O59314   3.369   0.672   8.588
19691WAT     H159315   3.301   0.731   8.545
19691WAT     H259316   3.425   0.726   8.652
19692WAT      O59317   8.148   2.070   8.404
19692WAT     H159318   8.129   1.996   8.469
19692WAT     H259319   8.243   2.099   8.413
19693WAT      O59320   9.429   1.085   4.506
19693WAT     H159321   9.470   1.103   4.595
19693WAT     H259322   9.444   1.164   4.446
19694WAT      O59323   2.470   5.353   0.722
19694WAT     H159324   2.420   5.427   0.677
19694WAT     H259325   2.446   5.266   0.680
19695WAT      O59326   7.767   2.100   8.712
19695WAT     H159327   7.694   2.076   8.776
19695WAT     H259328   7.847   2.130   8.764
19696WAT      O59329   4.082   7.791   4.922
19696WAT     H159330   3.984   7.773   4.923
19696WAT     H259331   4.102   7.865   4.858
19697WAT      O59332   0.175   2.110   5.523
19697WAT     H159333   0.272   2.120   5.498
19697WAT     H259334   0.127   2.063   5.449
19698WAT      O59335   1.694   1.691   9.867
19698WAT     H159336   1.787   1.727   9.859
19698WAT     H259337   1.628   1.765   9.860
19699WAT      O59338   5.621   2.454   4.218
19699WAT     H159339   5.654   2.510   4.294
19699WAT     H259340   5.608   2.360   4.249
19700WAT      O59341   3.089   4.216   2.159
19700WAT     H159342   3.139   4.190   2.077
19700WAT     H259343   3.105   4.313   2.179
19701WAT      O59344   7.790   1.370   9.392
19701WAT     H159345   7.758   1.423   9.470
19701WAT     H259346   7.753   1.277   9.397
19702WAT      O59347   3.266   1.072   8.075
19702WAT     H159348   3.245   1.045   7.981
19702WAT     H259349   3.204   1.146   8.103
19703WAT      O59350   2.695   6.224   0.600
19703WAT     H159351   2.701   6.155   0.673
19703WAT     H259352   2.632   6.193   0.529
19704WAT      O59353   0.830   7.378   6.673
19704WAT     H159354   0.864   7.341   6.759
19704WAT     H259355   0.893   7.354   6.599
19705WAT      O59356   3.883   1.789   1.645
19705WAT     H159357   3.946   1.715   1.669
19705WAT     H259358   3.898   1.814   1.549
19706WAT      O59359   8.558   1.117   6.458
19706WAT     H159360   8.469   1.148   6.491
19706WAT     H259361   8.568   1.019   6.476
19707WAT      O59362   2.762   2.037   0.417
19707WAT     H159363   2.830   2.089   0.468
19707WAT     H259364   2.694   1.999   0.481
19708WAT      O59365   1.968   4.309   8.077
19708WAT     H159366   1.938   4.217   8.055
19708WAT     H259367   2.065   4.319   8.053
19709WAT      O59368   7.312   0.187   4.427
19709WAT     H159369   7.321   0.164   4.331
19709WAT     H259370   7.215   0.200   4.450
19710WAT      O59371   4.730   7.395   2.175
19710WAT     H159372   4.743   7.314   2.117
19710WAT     H259373   4.636   7.396   2.209
19711WAT      O59374   6.473   8.741   3.769
19711WAT     H159375   6.480   8.650   3.728
19711WAT     H259376   6.531   8.746   3.850
19712WAT      O59377   3.007   7.109   7.969
19712WAT     H159378   3.023   7.011   7.965
19712WAT     H259379   2.969   7.140   7.882
19713WAT      O59380   7.121   1.549   0.674
19713WAT     H159381   7.110   1.527   0.577
19713WAT     H259382   7.104   1.646   0.689
19714WAT      O59383   2.733   5.942   9.133
19714WAT     H159384   2.802   5.956   9.061
19714WAT     H259385   2.717   6.029   9.180
19715WAT      O59386   5.755   0.903   5.272
19715WAT     H159387   5.790   0.996   5.267
19715WAT     H259388   5.701   0.883   5.190
19716WAT      O59389   2.499   2.822   8.282
19716WAT     H159390   2.476   2.796   8.188
19716WAT     H259391   2.559   2.902   8.281
19717WAT      O59392   5.689   0.866   0.204
19717WAT     H159393   5.687   0.815   0.118
19717WAT     H259394   5.763   0.933   0.202
19718WAT      O59395   9.333   4.075   5.455
19718WAT     H159396   9.399   4.002   5.437
19718WAT     H259397   9.377   4.148   5.508
19719WAT      O59398   8.201   5.631   9.017
19719WAT     H159399   8.174   5.538   9.045
19719WAT     H259400   8.299   5.643   9.032
19720WAT      O59401   4.189   4.947   8.756
19720WAT     H159402   4.104   4.991   8.727
19720WAT     H259403   4.265   5.012   8.748
19721WAT      O59404   3.098   3.596   8.579
19721WAT     H159405   3.166   3.662   8.610
19721WAT     H259406   3.122   3.505   8.615
19722WAT      O59407   9.516   1.224   7.207
19722WAT     H159408   9.541   1.220   7.111
19722WAT     H259409   9.599   1.213   7.263
19723WAT      O59410   8.940   8.974   0.504
19723WAT     H159411   8.953   9.045   0.434
19723WAT     H259412   8.926   9.016   0.593
19724WAT      O59413   2.080   4.251   1.097
19724WAT     H159414   1.991   4.230   1.056
19724WAT     H259415   2.099   4.187   1.171
19725WAT      O59416   7.204   5.133   1.209
19725WAT     H159417   7.135   5.203   1.228
19725WAT     H259418   7.159   5.045   1.196
19726WAT      O59419   2.878   4.198   2.588
19726WAT     H159420   2.839   4.108   2.571
19726WAT     H259421   2.976   4.196   2.566
19727WAT      O59422   0.868   5.530   3.970
19727WAT     H159423   0.808   5.608   3.988
19727WAT     H259424   0.882   5.479   4.055
19728WAT      O59425   1.051   7.184   2.172
19728WAT     H159426   1.127   7.232   2.215
19728WAT     H259427   1.086   7.119   2.104
19729WAT      O59428   4.282   6.603   7.640
19729WAT     H159429   4.197   6.584   7.689
19729WAT     H259430   4.328   6.517   7.617
19730WAT      O59431   8.016   5.905   2.820
19730WAT     H159432   8.047   5.810   2.819
19730WAT     H259433   8.016   5.941   2.726
19731WAT      O59434   5.736   7.013   4.762
19731WAT     H159435   5.761   6.937   4.822
19731WAT     H259436   5.804   7.021   4.689
19732WAT      O59437   1.315   1.436   5.163
19732WAT     H159438   1.231   1.397   5.126
19732WAT     H259439   1.319   1.534   5.142
19733WAT      O59440   3.511   3.928   6.259
19733WAT     H159441   3.505   4.028   6.254
19733WAT     H259442   3.501   3.899   6.354
19734WAT      O59443   1.964   0.415   3.751
19734WAT     H159444   2.017   0.457   3.677
19734WAT     H259445   1.986   0.460   3.838
19735WAT      O59446   7.472   1.360   0.589
19735WAT     H159447   7.555   1.354   0.644
19735WAT     H259448   7.396   1.318   0.638
19736WAT      O59449   2.314   7.124   2.835
19736WAT     H159450   2.373   7.153   2.759
19736WAT     H259451   2.355   7.152   2.922
19737WAT      O59452   3.381   7.228   7.554
19737WAT     H159453   3.357   7.180   7.470
19737WAT     H259454   3.372   7.326   7.539
19738WAT      O59455   9.501   7.731   7.019
19738WAT     H159456   9.562   7.746   6.941
19738WAT     H259457   9.529   7.648   7.067
19739WAT      O59458   2.590   5.354   0.279
19739WAT     H159459   2.627   5.357   0.186
19739WAT     H259460   2.644   5.414   0.338
19740WAT      O59461   9.168   3.222   3.517
19740WAT     H159462   9.139   3.297   3.458
19740WAT     H259463   9.176   3.138   3.463
19741WAT      O59464   4.287   2.308   7.996
19741WAT     H159465   4.202   2.302   7.944
19741WAT     H259466   4.274   2.369   8.074
19742WAT      O59467   3.736   7.939   6.422
19742WAT     H159468   3.650   7.890   6.408
19742WAT     H259469   3.746   8.010   6.353
19743WAT      O59470   9.265   3.710   4.776
19743WAT     H159471   9.200   3.758   4.718
19743WAT     H259472   9.305   3.773   4.842
19744WAT      O59473   4.287   2.203   0.739
19744WAT     H159474   4.247   2.207   0.647
19744WAT     H259475   4.372   2.149   0.735
19745WAT      O59476   6.676   4.757   3.570
19745WAT     H159477   6.734   4.680   3.544
19745WAT     H259478   6.618   4.782   3.492
19746WAT      O59479   1.047   9.447   4.160
19746WAT     H159480   1.017   9.406   4.246
19746WAT     H259481   1.062   9.375   4.092
19747WAT      O59482   7.892   7.637   1.763
19747WAT     H159483   7.807   7.678   1.795
19747WAT     H259484   7.951   7.708   1.723
19748WAT      O59485   7.485   8.495   5.357
19748WAT     H159486   7.544   8.426   5.399
19748WAT     H259487   7.541   8.566   5.316
19749WAT      O59488   6.177   0.869   2.376
19749WAT     H159489   6.088   0.910   2.355
19749WAT     H259490   6.180   0.776   2.340
19750WAT      O59491   9.808   9.636   2.045
19750WAT     H159492   9.730   9.680   2.000
19750WAT     H259493   9.853   9.574   1.980
19751WAT      O59494   9.825   1.719   8.269
19751WAT     H159495   9.889   1.649   8.238
19751WAT     H259496   9.821   1.794   8.202
19752WAT      O59497   0.187   9.839   2.832
19752WAT     H159498   0.174   9.817   2.735
19752WAT     H259499   0.284   9.834   2.854
19753WAT      O59500   6.066   0.327   3.156
19753WAT     H159501   6.165   0.345   3.153
19753WAT     H259502   6.036   0.326   3.251
19754WAT      O59503   6.622   4.302   6.960
19754WAT     H159504   6.626   4.203   6.947
19754WAT     H259505   6.669   4.348   6.885
19755WAT      O59506   4.822   1.717   7.309
19755WAT     H159507   4.849   1.742   7.216
19755WAT     H259508   4.786   1.797   7.356
19756WAT      O59509   0.318   0.006   5.516
19756WAT     H159510   0.322   0.003   5.417
19756WAT     H259511   0.402  -0.032   5.555
19757WAT      O59512   3.439   0.041   1.860
19757WAT     H159513   3.378  -0.037   1.848
19757WAT     H259514   3.385   0.125   1.867
19758WAT      O59515   4.881   2.647   6.349
19758WAT     H159516   4.870   2.721   6.416
19758WAT     H259517   4.913   2.565   6.396
19759WAT      O59518   1.515   1.328   5.313
19759WAT     H159519   1.454   1.285   5.380
19759WAT     H259520   1.462   1.391   5.256
19760WAT      O59521   3.351   7.892   2.315
19760WAT     H159522   3.387   7.848   2.233
19760WAT     H259523   3.251   7.892   2.310
19761WAT      O59524   3.558   4.175   3.439
19761WAT     H159525   3.565   4.216   3.530
19761WAT     H259526   3.586   4.241   3.370
19762WAT      O59527   4.166   1.416   9.779
19762WAT     H159528   4.144   1.437   9.875
19762WAT     H259529   4.224   1.335   9.775
19763WAT      O59530   4.847   8.019   2.102
19763WAT     H159531   4.920   8.021   2.170
19763WAT     H259532   4.828   7.924   2.077
19764WAT      O59533   2.745   0.137   8.580
19764WAT     H159534   2.802   0.133   8.498
19764WAT     H259535   2.649   0.152   8.554
19765WAT      O59536   5.686   5.802   2.850
19765WAT     H159537   5.595   5.764   2.831
19765WAT     H259538   5.677   5.898   2.875
19766WAT      O59539   4.165   0.865   8.009
19766WAT     H159540   4.085   0.812   8.037
19766WAT     H259541   4.189   0.929   8.082
19767WAT      O59542   8.112   1.281   2.112
19767WAT     H159543   8.090   1.246   2.202
19767WAT     H259544   8.181   1.221   2.069
19768WAT      O59545   5.266   6.521   8.522
19768WAT     H159546   5.257   6.534   8.423
19768WAT     H259547   5.362   6.519   8.547
19769WAT      O59548   1.156   3.669   4.070
19769WAT     H159549   1.107   3.656   3.983
19769WAT     H259550   1.137   3.760   4.105
19770WAT      O59551   5.862   6.950   6.080
19770WAT     H159552   5.902   6.861   6.102
19770WAT     H259553   5.802   6.979   6.155
19771WAT      O59554   8.014   3.658   6.565
19771WAT     H159555   8.024   3.726   6.637
19771WAT     H259556   8.087   3.670   6.497
19772WAT      O59557   6.857   4.835   0.870
19772WAT     H159558   6.813   4.777   0.938
19772WAT     H259559   6.828   4.807   0.779
19773WAT      O59560   9.444   7.633   4.454
19773WAT     H159561   9.466   7.679   4.367
19773WAT     H259562   9.522   7.578   4.483
19774WAT      O59563   3.582   4.777   0.392
19774WAT     H159564   3.554   4.841   0.463
19774WAT     H259565   3.547   4.808   0.304
19775WAT      O59566   0.133   5.964   4.251
19775WAT     H159567   0.155   6.061   4.241
19775WAT     H259568   0.208   5.909   4.216
19776WAT      O59569   0.976   7.799   7.733
19776WAT     H159570   0.993   7.774   7.638
19776WAT     H259571   0.888   7.762   7.762
19777WAT      O59572   9.533   5.673   0.728
19777WAT     H159573   9.443   5.639   0.757
19777WAT     H259574   9.540   5.668   0.628
19778WAT      O59575   7.443   4.162   7.065
19778WAT     H159576   7.405   4.254   7.059
19778WAT     H259577   7.423   4.123   7.155
19779WAT      O59578   0.128   1.178   0.605
19779WAT     H159579   0.205   1.118   0.625
19779WAT     H259580   0.084   1.205   0.691
19780WAT      O59581   5.439   6.645   0.201
19780WAT     H159582   5.528   6.600   0.205
19780WAT     H259583   5.433   6.712   0.275
19781WAT      O59584   3.849   7.917   1.994
19781WAT     H159585   3.762   7.898   2.039
19781WAT     H259586   3.890   7.830   1.962
19782WAT      O59587   8.047   8.065   1.157
19782WAT     H159588   7.983   8.080   1.232
19782WAT     H259589   8.140   8.064   1.192
19783WAT      O59590   7.990   2.314   3.425
19783WAT     H159591   8.058   2.247   3.394
19783WAT     H259592   8.017   2.405   3.394
19784WAT      O59593   0.839   8.760   5.935
19784WAT     H159594   0.936   8.779   5.950
19784WAT     H259595   0.784   8.826   5.986
19785WAT      O59596   1.466   3.802   2.065
19785WAT     H159597   1.430   3.710   2.077
19785WAT     H259598   1.560   3.807   2.099
19786WAT      O59599   1.203   2.307   4.567
19786WAT     H159600   1.231   2.213   4.586
19786WAT     H259601   1.230   2.331   4.473
19787WAT      O59602   5.296   7.546   8.543
19787WAT     H159603   5.379   7.553   8.598
19787WAT     H259604   5.265   7.638   8.518
19788WAT      O59605   3.333   6.677   8.519
19788WAT     H159606   3.251   6.718   8.481
19788WAT     H259607   3.358   6.723   8.605
19789WAT      O59608   9.272   0.236   2.933
19789WAT     H159609   9.180   0.274   2.941
19789WAT     H259610   9.317   0.237   3.022
19790WAT      O59611   9.647   4.594   4.184
19790WAT     H159612   9.720   4.545   4.136
19790WAT     H259613   9.579   4.528   4.216
19791WAT      O59614   3.559   2.187   6.007
19791WAT     H159615   3.493   2.169   6.080
19791WAT     H259616   3.650   2.196   6.046
19792WAT      O59617   6.246   0.445   5.205
19792WAT     H159618   6.215   0.455   5.299
19792WAT     H259619   6.227   0.352   5.173
19793WAT      O59620   4.395   3.612   6.570
19793WAT     H159621   4.471   3.572   6.621
19793WAT     H259622   4.431   3.674   6.499
19794WAT      O59623   8.082   1.960   3.143
19794WAT     H159624   8.020   1.882   3.135
19794WAT     H259625   8.029   2.045   3.136
19795WAT      O59626   4.270   3.793   0.487
19795WAT     H159627   4.224   3.780   0.575
19795WAT     H259628   4.247   3.718   0.426
19796WAT      O59629   2.241   1.897   3.290
19796WAT     H159630   2.221   1.956   3.212
19796WAT     H259631   2.329   1.923   3.330
19797WAT      O59632   0.948   9.551   3.297
19797WAT     H159633   0.960   9.648   3.317
19797WAT     H259634   1.037   9.506   3.295
19798WAT      O59635   3.345   2.425   6.666
19798WAT     H159636   3.361   2.519   6.696
19798WAT     H259637   3.416   2.399   6.601
19799WAT      O59638   3.572   4.727   3.897
19799WAT     H159639   3.648   4.671   3.930
19799WAT     H259640   3.486   4.679   3.913
19800WAT      O59641   0.112   4.728   2.351
19800WAT     H159642   0.023   4.764   2.380
19800WAT     H259643   0.175   4.804   2.335
19801WAT      O59644   5.700   7.714   7.297
19801WAT     H159645   5.747   7.792   7.258
19801WAT     H259646   5.654   7.662   7.224
19802WAT      O59647   3.121   5.049   9.445
19802WAT     H159648   3.051   5.026   9.377
19802WAT     H259649   3.202   5.086   9.399
19803WAT      O59650   6.640   7.128   9.266
19803WAT     H159651   6.616   7.094   9.356
19803WAT     H259652   6.683   7.055   9.212
19804WAT      O59653   0.329   8.013   2.321
19804WAT     H159654   0.230   8.029   2.312
19804WAT     H259655   0.373   8.095   2.356
19805WAT      O59656   9.025   4.689   9.455
19805WAT     H159657   9.098   4.650   9.399
19805WAT     H259658   9.054   4.779   9.490
19806WAT      O59659   2.997   0.731   1.544
19806WAT     H159660   2.997   0.826   1.512
19806WAT     H259661   3.059   0.676   1.488
19807WAT      O59662   8.644   1.778   2.601
19807WAT     H159663   8.697   1.857   2.632
19807WAT     H259664   8.693   1.694   2.625
19808WAT      O59665   4.118   3.819   3.424
19808WAT     H159666   4.208   3.816   3.380
19808WAT     H259667   4.050   3.782   3.361
19809WAT      O59668   7.636   8.409   9.804
19809WAT     H159669   7.613   8.366   9.892
19809WAT     H259670   7.554   8.454   9.768
19810WAT      O59671   7.648   9.244   4.449
19810WAT     H159672   7.570   9.184   4.466
19810WAT     H259673   7.664   9.249   4.350
19811WAT      O59674   1.269   6.884   9.222
19811WAT     H159675   1.306   6.971   9.191
19811WAT     H259676   1.341   6.814   9.217
19812WAT      O59677   4.367   5.014   5.275
19812WAT     H159678   4.453   4.993   5.229
19812WAT     H259679   4.290   4.987   5.215
19813WAT      O59680   1.023   9.134   0.032
19813WAT     H159681   1.034   9.074  -0.047
19813WAT     H259682   1.031   9.229   0.002
19814WAT      O59683   9.491   9.801   5.886
19814WAT     H159684   9.549   9.882   5.887
19814WAT     H259685   9.528   9.732   5.948
19815WAT      O59686   4.466   4.481   8.344
19815WAT     H159687   4.505   4.393   8.320
19815WAT     H259688   4.366   4.477   8.336
19816WAT      O59689   4.039   9.586   7.643
19816WAT     H159690   4.003   9.512   7.700
19816WAT     H259691   3.981   9.596   7.562
19817WAT      O59692   3.380   5.432   2.362
19817WAT     H159693   3.455   5.492   2.387
19817WAT     H259694   3.298   5.487   2.346
19818WAT      O59695   6.300   5.365   5.832
19818WAT     H159696   6.360   5.444   5.820
19818WAT     H259697   6.315   5.325   5.923
19819WAT      O59698   2.659   7.433   2.736
19819WAT     H159699   2.617   7.344   2.720
19819WAT     H259700   2.609   7.504   2.686
19820WAT      O59701   0.375   3.166   4.668
19820WAT     H159702   0.300   3.232   4.677
19820WAT     H259703   0.435   3.195   4.593
19821WAT      O59704   1.237   4.803   3.178
19821WAT     H159705   1.182   4.739   3.231
19821WAT     H259706   1.185   4.834   3.098
19822WAT      O59707   0.298   0.463   7.632
19822WAT     H159708   0.394   0.488   7.643
19822WAT     H259709   0.260   0.437   7.720
19823WAT      O59710   5.620   0.779   6.676
19823WAT     H159711   5.586   0.856   6.621
19823WAT     H259712   5.719   0.786   6.684
19824WAT      O59713   9.267   9.029   3.544
19824WAT     H159714   9.249   8.947   3.598
19824WAT     H259715   9.221   9.022   3.456
19825WAT      O59716   4.322   7.155   6.062
19825WAT     H159717   4.327   7.078   6.125
19825WAT     H259718   4.253   7.220   6.094
19826WAT      O59719   0.699   2.017   4.712
19826WAT     H159720   0.762   1.991   4.785
19826WAT     H259721   0.664   1.935   4.667
19827WAT      O59722   6.396   1.884   0.010
19827WAT     H159723   6.494   1.904   0.003
19827WAT     H259724   6.347   1.967   0.035
19828WAT      O59725   7.543   8.997   3.597
19828WAT     H159726   7.530   8.916   3.653
19828WAT     H259727   7.622   9.048   3.630
19829WAT      O59728   3.420   0.787   3.527
19829WAT     H159729   3.417   0.726   3.606
19829WAT     H259730   3.513   0.823   3.517
19830WAT      O59731   0.275   6.580   5.905
19830WAT     H159732   0.204   6.610   5.970
19830WAT     H259733   0.231   6.551   5.820
19831WAT      O59734   2.070   3.404   1.826
19831WAT     H159735   2.102   3.460   1.749
19831WAT     H259736   2.141   3.401   1.896
19832WAT      O59737   5.707   0.096   5.938
19832WAT     H159738   5.713   0.182   5.989
19832WAT     H259739   5.614   0.060   5.945
19833WAT      O59740   6.635   3.050   6.438
19833WAT     H159741   6.581   3.000   6.506
19833WAT     H259742   6.731   3.027   6.448
19834WAT      O59743   1.767   6.600   8.269
19834WAT     H159744   1.725   6.522   8.315
19834WAT     H259745   1.833   6.643   8.331
19835WAT      O59746   9.284   8.944   1.126
19835WAT     H159747   9.348   8.946   1.203
19835WAT     H259748   9.289   9.030   1.076
19836WAT      O59749   0.984   9.345   3.756
19836WAT     H159750   0.907   9.333   3.819
19836WAT     H259751   0.977   9.279   3.681
19837WAT      O59752   6.867   4.298   4.812
19837WAT     H159753   6.913   4.246   4.884
19837WAT     H259754   6.782   4.337   4.848
19838WAT      O59755   9.048   9.751   9.586
19838WAT     H159756   8.999   9.701   9.516
19838WAT     H259757   9.136   9.707   9.605
19839WAT      O59758   6.788   2.684   0.580
19839WAT     H159759   6.755   2.740   0.504
19839WAT     H259760   6.713   2.664   0.642
19840WAT      O59761   9.620   7.521   7.194
19840WAT     H159762   9.703   7.489   7.239
19840WAT     H259763   9.540   7.491   7.247
19841WAT      O59764   9.283   9.446   2.387
19841WAT     H159765   9.367   9.420   2.340
19841WAT     H259766   9.206   9.393   2.350
19842WAT      O59767   8.411   1.000   4.074
19842WAT     H159768   8.420   1.098   4.095
19842WAT     H259769   8.365   0.954   4.149
19843WAT      O59770   9.481   7.308   8.198
19843WAT     H159771   9.432   7.395   8.205
19843WAT     H259772   9.542   7.311   8.120
19844WAT      O59773   2.422   4.882   0.186
19844WAT     H159774   2.352   4.843   0.245
19844WAT     H259775   2.504   4.825   0.190
19845WAT      O59776   8.036   5.659   8.530
19845WAT     H159777   8.097   5.591   8.488
19845WAT     H259778   8.079   5.695   8.613
19846WAT      O59779   7.908   5.227   9.488
19846WAT     H159780   7.984   5.175   9.527
19846WAT     H259781   7.898   5.204   9.391
19847WAT      O59782   1.285   6.527   4.908
19847WAT     H159783   1.256   6.436   4.940
19847WAT     H259784   1.324   6.519   4.817
19848WAT      O59785   9.154   2.461   9.884
19848WAT     H159786   9.055   2.464   9.896
19848WAT     H259787   9.190   2.378   9.925
19849WAT      O59788   1.083   7.636   6.809
19849WAT     H159789   0.995   7.685   6.806
19849WAT     H259790   1.067   7.543   6.841
19850WAT      O59791   4.058   5.744   1.695
19850WAT     H159792   4.116   5.663   1.701
19850WAT     H259793   4.089   5.811   1.763
19851WAT      O59794   6.224   6.168   0.537
19851WAT     H159795   6.229   6.099   0.465
19851WAT     H259796   6.310   6.218   0.542
19852WAT      O59797   5.450   2.356   7.548
19852WAT     H159798   5.354   2.350   7.519
19852WAT     H259799   5.473   2.451   7.568
19853WAT      O59800   0.124   3.690   5.697
19853WAT     H159801   0.204   3.657   5.747
19853WAT     H259802   0.042   3.676   5.753
19854WAT      O59803   2.625   5.330   5.848
19854WAT     H159804   2.640   5.232   5.829
19854WAT     H259805   2.579   5.372   5.769
19855WAT      O59806   3.411   3.620   5.198
19855WAT     H159807   3.378   3.584   5.111
19855WAT     H259808   3.392   3.554   5.271
19856WAT      O59809   4.655   9.010   6.949
19856WAT     H159810   4.692   8.962   7.028
19856WAT     H259811   4.569   9.054   6.973
19857WAT      O59812   8.131   3.184   9.182
19857WAT     H159813   8.089   3.207   9.094
19857WAT     H259814   8.069   3.126   9.235
19858WAT      O59815   9.573   2.147   6.552
19858WAT     H159816   9.590   2.048   6.556
19858WAT     H259817   9.595   2.189   6.640
19859WAT      O59818   0.627   6.060   5.149
19859WAT     H159819   0.587   6.138   5.197
19859WAT     H259820   0.711   6.089   5.103
19860WAT      O59821   4.404   7.689   3.124
19860WAT     H159822   4.312   7.668   3.093
19860WAT     H259823   4.455   7.604   3.140
19861WAT      O59824   8.572   1.430   6.158
19861WAT     H159825   8.519   1.486   6.094
19861WAT     H259826   8.553   1.333   6.142
19862WAT      O59827   6.305   3.453   7.213
19862WAT     H159828   6.282   3.546   7.243
19862WAT     H259829   6.348   3.457   7.123
19863WAT      O59830   3.666   9.706   5.087
19863WAT     H159831   3.672   9.735   4.991
19863WAT     H259832   3.578   9.662   5.103
19864WAT      O59833   6.604   5.663   2.974
19864WAT     H159834   6.565   5.711   2.895
19864WAT     H259835   6.549   5.683   3.055
19865WAT      O59836   3.636   5.910   3.501
19865WAT     H159837   3.705   5.900   3.574
19865WAT     H259838   3.568   5.977   3.529
19866WAT      O59839   9.723   0.804   6.840
19866WAT     H159840   9.810   0.843   6.809
19866WAT     H259841   9.693   0.851   6.923
19867WAT      O59842   7.101   0.975   6.568
19867WAT     H159843   7.134   1.067   6.543
19867WAT     H259844   7.001   0.975   6.571
19868WAT      O59845   8.544   8.997   3.865
19868WAT     H159846   8.638   8.984   3.895
19868WAT     H259847   8.482   8.979   3.942
19869WAT      O59848   1.130   6.943   3.658
19869WAT     H159849   1.209   6.936   3.596
19869WAT     H259850   1.063   7.006   3.618
19870WAT      O59851   8.674   5.485   8.453
19870WAT     H159852   8.756   5.542   8.446
19870WAT     H259853   8.594   5.538   8.425
19871WAT      O59854   5.610   2.484   2.982
19871WAT     H159855   5.555   2.408   3.016
19871WAT     H259856   5.610   2.558   3.049
19872WAT      O59857   3.380   3.390   8.770
19872WAT     H159858   3.440   3.441   8.709
19872WAT     H259859   3.383   3.430   8.861
19873WAT      O59860   3.970   4.047   3.185
19873WAT     H159861   3.993   4.103   3.264
19873WAT     H259862   3.951   3.954   3.214
19874WAT      O59863   4.521   6.107   1.147
19874WAT     H159864   4.513   6.011   1.175
19874WAT     H259865   4.611   6.122   1.105
19875WAT      O59866   2.876   5.189   8.227
19875WAT     H159867   2.959   5.149   8.189
19875WAT     H259868   2.852   5.271   8.176
19876WAT      O59869   8.368   5.520   0.444
19876WAT     H159870   8.384   5.515   0.543
19876WAT     H259871   8.373   5.616   0.415
19877WAT      O59872   0.212   6.099   3.245
19877WAT     H159873   0.220   6.182   3.300
19877WAT     H259874   0.259   6.024   3.291
19878WAT      O59875   7.778   1.758   3.379
19878WAT     H159876   7.742   1.793   3.466
19878WAT     H259877   7.782   1.658   3.382
19879WAT      O59878   3.858   0.260   7.194
19879WAT     H159879   3.840   0.358   7.200
19879WAT     H259880   3.773   0.212   7.170
19880WAT      O59881   1.900   4.149   5.385
19880WAT     H159882   1.931   4.058   5.412
19880WAT     H259883   1.918   4.214   5.459
19881WAT      O59884   9.319   0.869   7.143
19881WAT     H159885   9.320   0.952   7.200
19881WAT     H259886   9.332   0.789   7.202
19882WAT      O59887   8.643   7.626   0.403
19882WAT     H159888   8.675   7.577   0.321
19882WAT     H259889   8.620   7.720   0.378
19883WAT      O59890   9.423   6.070   3.690
19883WAT     H159891   9.395   6.084   3.596
19883WAT     H259892   9.431   6.158   3.737
19884WAT      O59893   2.262   6.882   2.780
19884WAT     H159894   2.195   6.850   2.713
19884WAT     H259895   2.280   6.979   2.766
19885WAT      O59896   5.462   3.526   3.891
19885WAT     H159897   5.544   3.474   3.866
19885WAT     H259898   5.386   3.463   3.905
19886WAT      O59899   1.278   2.842   9.751
19886WAT     H159900   1.200   2.837   9.814
19886WAT     H259901   1.363   2.845   9.804
19887WAT      O59902   8.131   2.204   6.637
19887WAT     H159903   8.034   2.219   6.619
19887WAT     H259904   8.146   2.108   6.659
19888WAT      O59905   8.374   7.063   1.011
19888WAT     H159906   8.341   7.143   0.961
19888WAT     H259907   8.376   6.984   0.950
19889WAT      O59908   3.772   6.274   2.534
19889WAT     H159909   3.701   6.282   2.464
19889WAT     H259910   3.740   6.314   2.620
19890WAT      O59911   6.495   6.210   2.777
19890WAT     H159912   6.437   6.196   2.696
19890WAT     H259913   6.514   6.122   2.820
19891WAT      O59914   4.523   4.518   9.674
19891WAT     H159915   4.504   4.436   9.619
19891WAT     H259916   4.438   4.553   9.712
19892WAT      O59917   4.342   1.084   5.308
19892WAT     H159918   4.426   1.138   5.302
19892WAT     H259919   4.287   1.100   5.226
19893WAT      O59920   7.679   8.415   9.224
19893WAT     H159921   7.761   8.472   9.227
19893WAT     H259922   7.600   8.472   9.201
19894WAT      O59923   1.473   8.443   7.648
19894WAT     H159924   1.375   8.427   7.663
19894WAT     H259925   1.484   8.522   7.587
19895WAT      O59926   4.441   4.100   1.050
19895WAT     H159927   4.414   4.176   1.109
19895WAT     H259928   4.510   4.130   0.985
19896WAT      O59929   9.887   8.862   8.800
19896WAT     H159930   9.789   8.845   8.797
19896WAT     H259931   9.920   8.889   8.710
19897WAT      O59932   0.765   5.358   9.023
19897WAT     H159933   0.749   5.284   9.088
19897WAT     H259934   0.678   5.384   8.980
19898WAT      O59935   1.623   3.512   9.462
19898WAT     H159936   1.627   3.447   9.537
19898WAT     H259937   1.582   3.598   9.494
19899WAT      O59938   9.133   8.518   1.980
19899WAT     H159939   9.112   8.428   2.018
19899WAT     H259940   9.231   8.525   1.962
19900WAT      O59941   2.724   4.434   4.690
19900WAT     H159942   2.755   4.529   4.689
19900WAT     H259943   2.690   4.411   4.782
19901WAT      O59944   3.681   4.828   8.950
19901WAT     H159945   3.636   4.910   8.914
19901WAT     H259946   3.693   4.837   9.048
19902WAT      O59947   9.027   3.308   9.553
19902WAT     H159948   8.942   3.310   9.606
19902WAT     H259949   9.075   3.395   9.564
19903WAT      O59950   2.277   0.269   6.207
19903WAT     H159951   2.207   0.198   6.197
19903WAT     H259952   2.233   0.358   6.211
19904WAT      O59953   3.421   1.619   3.413
19904WAT     H159954   3.384   1.632   3.321
19904WAT     H259955   3.403   1.526   3.444
19905WAT      O59956   6.521   5.145   9.040
19905WAT     H159957   6.538   5.240   9.014
19905WAT     H259958   6.445   5.142   9.104
19906WAT      O59959   3.675   0.955   0.808
19906WAT     H159960   3.591   0.976   0.858
19906WAT     H259961   3.665   0.983   0.713
19907WAT      O59962   3.379   9.261   4.177
19907WAT     H159963   3.283   9.259   4.151
19907WAT     H259964   3.403   9.176   4.224
19908WAT      O59965   9.222   4.370   6.714
19908WAT     H159966   9.279   4.436   6.665
19908WAT     H259967   9.235   4.382   6.812
19909WAT      O59968   1.886   1.832   8.179
19909WAT     H159969   1.930   1.756   8.131
19909WAT     H259970   1.884   1.813   8.277
19910WAT      O59971   8.041   8.531   4.958
19910WAT     H159972   8.000   8.513   4.868
19910WAT     H259973   8.026   8.626   4.983
19911WAT      O59974   5.088   7.430   4.478
19911WAT     H159975   5.109   7.527   4.464
19911WAT     H259976   5.007   7.406   4.426
19912WAT      O59977   7.524   5.709   9.707
19912WAT     H159978   7.447   5.652   9.734
19912WAT     H259979   7.609   5.656   9.716
19913WAT      O59980   8.486   9.170   2.542
19913WAT     H159981   8.406   9.218   2.578
19913WAT     H259982   8.460   9.120   2.459
19914WAT      O59983   7.099   8.388   4.225
19914WAT     H159984   7.037   8.459   4.259
19914WAT     H259985   7.053   8.336   4.153
19915WAT      O59986   5.772   2.673   3.417
19915WAT     H159987   5.679   2.695   3.450
19915WAT     H259988   5.838   2.729   3.467
19916WAT      O59989   1.549   7.061   9.859
19916WAT     H159990   1.534   6.981   9.801
19916WAT     H259991   1.641   7.057   9.898
19917WAT      O59992   6.197   4.437   5.316
19917WAT     H159993   6.160   4.344   5.310
19917WAT     H259994   6.152   4.485   5.391
19918WAT      O59995   5.620   4.788   7.924
19918WAT     H159996   5.649   4.822   7.834
19918WAT     H259997   5.655   4.849   7.995
19919WAT      O59998   8.346   4.755   3.933
19919WAT     H159999   8.368   4.695   3.857
19919WAT     H260000   8.321   4.700   4.013
19920WAT      O60001   9.846   6.040   4.907
19920WAT     H160002   9.771   6.100   4.880
19920WAT     H260003   9.929   6.095   4.920
19921WAT      O60004   2.646   8.393   5.623
19921WAT     H160005   2.592   8.392   5.539
19921WAT     H260006   2.743   8.382   5.601
19922WAT      O60007   8.330   9.407   6.837
19922WAT     H160008   8.254   9.460   6.802
19922WAT     H260009   8.349   9.434   6.932
19923WAT      O60010   7.728   6.693   1.379
19923WAT     H160011   7.790   6.621   1.412
19923WAT     H260012   7.714   6.682   1.281
19924WAT      O60013   0.033   9.191   6.937
19924WAT     H160014   0.027   9.093   6.955
19924WAT     H260015  -0.010   9.242   7.013
19925WAT      O60016   8.574   7.309   3.349
19925WAT     H160017   8.606   7.375   3.417
19925WAT     H260018   8.516   7.241   3.395
19926WAT      O60019   0.004   1.314   3.902
19926WAT     H160020   0.065   1.346   3.829
19926WAT     H260021   0.059   1.287   3.981
19927WAT      O60022   4.957   8.309   1.820
19927WAT     H160023   4.896   8.359   1.758
19927WAT     H260024   4.947   8.210   1.803
19928WAT      O60025   3.225   4.240   6.735
19928WAT     H160026   3.299   4.306   6.724
19928WAT     H260027   3.239   4.164   6.672
19929WAT      O60028   8.611   6.279   0.956
19929WAT     H160029   8.525   6.229   0.942
19929WAT     H260030   8.687   6.225   0.922
19930WAT      O60031   5.177   3.094   5.083
19930WAT     H160032   5.165   3.095   4.983
19930WAT     H260033   5.090   3.069   5.126
19931WAT      O60034   2.200   1.692   1.931
19931WAT     H160035   2.194   1.746   1.848
19931WAT     H260036   2.124   1.717   1.992
19932WAT      O60037   0.605   7.221   4.838
19932WAT     H160038   0.583   7.317   4.853
19932WAT     H260039   0.522   7.170   4.815
19933WAT      O60040   4.492   7.935   1.946
19933WAT     H160041   4.518   7.843   1.978
19933WAT     H260042   4.512   8.002   2.017
19934WAT      O60043   2.123   2.524   2.184
19934WAT     H160044   2.106   2.462   2.261
19934WAT     H260045   2.089   2.615   2.205
19935WAT      O60046   7.475   0.487   3.632
19935WAT     H160047   7.449   0.468   3.538
19935WAT     H260048   7.442   0.578   3.658
19936WAT      O60049   8.045   4.422   9.496
19936WAT     H160050   7.959   4.442   9.545
19936WAT     H260051   8.070   4.501   9.440
19937WAT      O60052   7.404   2.047   5.876
19937WAT     H160053   7.431   1.952   5.865
19937WAT     H260054   7.440   2.083   5.962
19938WAT      O60055   4.831   3.604   8.772
19938WAT     H160056   4.805   3.574   8.864
19938WAT     H260057   4.926   3.636   8.773
19939WAT      O60058   4.516   3.560   2.136
19939WAT     H160059   4.607   3.548   2.176
19939WAT     H260060   4.522   3.553   2.036
19940WAT      O60061   3.967   3.563   4.428
19940WAT     H160062   3.897   3.493   4.410
19940WAT     H260063   4.036   3.560   4.356
19941WAT      O60064   8.891   3.465   1.070
19941WAT     H160065   8.975   3.427   1.108
19941WAT     H260066   8.907   3.558   1.040
19942WAT      O60067   7.595   8.128   1.017
19942WAT     H160068   7.516   8.076   0.985
19942WAT     H260069   7.565   8.218   1.050
19943WAT      O60070   4.888   5.603   6.102
19943WAT     H160071   4.959   5.662   6.064
19943WAT     H260072   4.923   5.556   6.183
19944WAT      O60073   0.688   8.697   2.026
19944WAT     H160074   0.684   8.737   2.117
19944WAT     H260075   0.645   8.758   1.960
19945WAT      O60076   1.726   7.716   5.877
19945WAT     H160077   1.709   7.810   5.907
19945WAT     H260078   1.806   7.680   5.924
19946WAT      O60079   0.511   5.611   8.798
19946WAT     H160080   0.458   5.629   8.881
19946WAT     H260081   0.495   5.684   8.732
19947WAT      O60082   8.417   6.128   2.151
19947WAT     H160083   8.440   6.205   2.091
19947WAT     H260084   8.390   6.049   2.095
19948WAT      O60085   6.531   2.004   2.211
19948WAT     H160086   6.591   1.928   2.236
19948WAT     H260087   6.441   1.991   2.254
19949WAT      O60088   2.435   5.308   2.942
19949WAT     H160089   2.421   5.353   3.030
19949WAT     H260090   2.380   5.224   2.938
19950WAT      O60091   5.965   0.082   2.076
19950WAT     H160092   5.865   0.083   2.079
19950WAT     H260093   5.996   0.127   1.992
19951WAT      O60094   5.906   5.216   4.742
19951WAT     H160095   5.853   5.148   4.791
19951WAT     H260096   5.871   5.307   4.762
19952WAT      O60097   1.940   8.560   7.418
19952WAT     H160098   1.877   8.548   7.341
19952WAT     H260099   1.954   8.471   7.463
19953WAT      O60100   7.240   3.549   8.095
19953WAT     H160101   7.336   3.567   8.115
19953WAT     H260102   7.186   3.630   8.120
19954WAT      O60103   2.743   8.287   9.611
19954WAT     H160104   2.668   8.344   9.579
19954WAT     H260105   2.715   8.237   9.693
19955WAT      O60106   3.335   6.044   3.026
19955WAT     H160107   3.419   6.009   3.067
19955WAT     H260108   3.299   6.118   3.082
19956WAT      O60109   4.773   4.034   9.138
19956WAT     H160110   4.790   4.132   9.144
19956WAT     H260111   4.860   3.985   9.140
19957WAT      O60112   1.831   4.782   6.984
19957WAT     H160113   1.733   4.799   6.996
19957WAT     H260114   1.876   4.786   7.073
19958WAT      O60115   4.648   9.794   9.466
19958WAT     H160116   4.658   9.695   9.455
19958WAT     H260117   4.551   9.818   9.464
19959WAT      O60118   5.386   9.185   1.652
19959WAT     H160119   5.443   9.159   1.574
19959WAT     H260120   5.298   9.220   1.620
19960WAT      O60121   6.561   6.998   9.527
19960WAT     H160122   6.527   6.904   9.521
19960WAT     H260123   6.483   7.061   9.530
19961WAT      O60124   9.250   8.917   8.677
19961WAT     H160125   9.253   8.939   8.579
19961WAT     H260126   9.319   8.848   8.698
19962WAT      O60127   5.212   0.679   1.629
19962WAT     H160128   5.303   0.639   1.628
19962WAT     H260129   5.144   0.605   1.632
19963WAT      O60130   4.532   2.640  -0.000
19963WAT     H160131   4.526   2.603   0.093
19963WAT     H260132   4.586   2.578  -0.057
19964WAT      O60133   2.192   1.089   1.321
19964WAT     H160134   2.172   1.089   1.223
19964WAT     H260135   2.113   1.056   1.371
19965WAT      O60136   9.313   1.375   9.458
19965WAT     H160137   9.237   1.440   9.453
19965WAT     H260138   9.399   1.425   9.453
19966WAT      O60139   1.652   2.757   7.955
19966WAT     H160140   1.606   2.757   7.866
19966WAT     H260141   1.598   2.811   8.020
19967WAT      O60142   1.516   0.940   5.358
19967WAT     H160143   1.450   1.014   5.369
19967WAT     H260144   1.476   0.855   5.392
19968WAT      O60145   2.365   3.518   1.574
19968WAT     H160146   2.397   3.426   1.598
19968WAT     H260147   2.442   3.574   1.544
19969WAT      O60148   1.625   5.181   1.190
19969WAT     H160149   1.689   5.251   1.222
19969WAT     H260150   1.543   5.183   1.246
19970WAT      O60151   4.319   8.734   1.305
19970WAT     H160152   4.280   8.809   1.359
19970WAT     H260153   4.251   8.661   1.297
19971WAT      O60154   8.307   0.392   3.707
19971WAT     H160155   8.395   0.394   3.754
19971WAT     H260156   8.233   0.400   3.774
19972WAT      O60157   8.248   9.446   7.413
19972WAT     H160158   8.250   9.347   7.402
19972WAT     H260159   8.338   9.479   7.439
19973WAT      O60160   5.811   2.647   1.977
19973WAT     H160161   5.884   2.598   2.024
19973WAT     H260162   5.766   2.586   1.911
19974WAT      O60163   4.274   8.589   1.071
19974WAT     H160164   4.303   8.661   1.008
19974WAT     H260165   4.344   8.518   1.076
19975WAT      O60166   8.037   9.563   3.846
19975WAT     H160167   8.119   9.580   3.792
19975WAT     H260168   8.064   9.543   3.941
19976WAT      O60169   3.394   6.383   1.805
19976WAT     H160170   3.483   6.412   1.841
19976WAT     H260171   3.372   6.292   1.841
19977WAT      O60172   4.121   3.982   0.367
19977WAT     H160173   4.170   3.907   0.412
19977WAT     H260174   4.115   3.964   0.269
19978WAT      O60175   4.650   4.499   3.850
19978WAT     H160176   4.593   4.580   3.842
19978WAT     H260177   4.677   4.486   3.945
19979WAT      O60178   6.047   9.786   6.310
19979WAT     H160179   6.019   9.855   6.243
19979WAT     H260180   6.110   9.721   6.267
19980WAT      O60181   3.000   5.796   2.737
19980WAT     H160182   3.034   5.888   2.755
19980WAT     H260183   2.900   5.799   2.725
19981WAT      O60184   4.494   7.347   2.288
19981WAT     H160185   4.492   7.251   2.259
19981WAT     H260186   4.400   7.376   2.309
19982WAT      O60187   6.966   8.107   6.279
19982WAT     H160188   6.930   8.070   6.193
19982WAT     H260189   7.062   8.132   6.267
19983WAT      O60190   7.556   6.457   3.875
19983WAT     H160191   7.525   6.453   3.780
19983WAT     H260192   7.520   6.379   3.926
19984WAT      O60193   0.591   4.153   3.492
19984WAT     H160194   0.545   4.214   3.428
19984WAT     H260195   0.689   4.154   3.473
19985WAT      O60196   5.737   6.852   1.937
19985WAT     H160197   5.664   6.884   1.997
19985WAT     H260198   5.769   6.928   1.880
19986WAT      O60199   1.911   0.111   2.195
19986WAT     H160200   1.918   0.086   2.291
19986WAT     H260201   1.941   0.206   2.183
19987WAT      O60202   8.680   8.323   8.387
19987WAT     H160203   8.684   8.419   8.416
19987WAT     H260204   8.597   8.307   8.334
19988WAT      O60205   4.925   1.380   0.585
19988WAT     H160206   4.965   1.460   0.540
19988WAT     H260207   4.990   1.304   0.581
19989WAT      O60208   9.201   6.051   5.032
19989WAT     H160209   9.122   6.110   5.043
19989WAT     H260210   9.271   6.097   4.977
19990WAT      O60211   2.054   4.228   4.512
19990WAT     H160212   1.977   4.256   4.570
19990WAT     H260213   2.128   4.194   4.570
19991WAT      O60214   0.492   0.169   7.705
19991WAT     H160215   0.570   0.188   7.645
19991WAT     H260216   0.443   0.089   7.670
19992WAT      O60217   6.471   2.334   5.674
19992WAT     H160218   6.516   2.417   5.705
19992WAT     H260219   6.490   2.320   5.577
19993WAT      O60220   7.403   0.857   4.627
19993WAT     H160221   7.480   0.811   4.583
19993WAT     H260222   7.339   0.889   4.557
19994WAT      O60223   4.211   0.924   3.998
19994WAT     H160224   4.289   0.934   3.936
19994WAT     H260225   4.191   0.827   4.011
19995WAT      O60226   0.358   6.824   5.366
19995WAT     H160227   0.399   6.734   5.349
19995WAT     H260228   0.427   6.885   5.405
19996WAT      O60229   7.601   1.156   3.384
19996WAT     H160230   7.616   1.057   3.386
19996WAT     H260231   7.506   1.174   3.359
19997WAT      O60232   0.899   5.908   5.775
19997WAT     H160233   0.886   5.863   5.864
19997WAT     H260234   0.814   5.902   5.723
19998WAT      O60235   8.025   6.554   2.391
19998WAT     H160236   7.946   6.593   2.345
19998WAT     H260237   8.026   6.585   2.487
19999WAT      O60238   5.792   7.090   7.305
19999WAT     H160239   5.778   7.142   7.389
19999WAT     H260240   5.881   7.044   7.309
20000WAT      O60241   5.350   1.729   1.153
20000WAT     H160242   5.436   1.773   1.181
20000WAT     H260243   5.306   1.689   1.233
20001WAT      O60244   0.005   2.012   1.745
20001WAT     H160245   0.088   1.972   1.783
20001WAT     H260246  -0.035   1.949   1.678
20002WAT      O60247   9.823   5.597   7.321
20002WAT     H160248   9.725   5.616   7.313
20002WAT     H260249   9.860   5.580   7.230
20003WAT      O60250   1.428   1.841   5.752
20003WAT     H160251   1.377   1.928   5.749
20003WAT     H260252   1.521   1.859   5.783
20004WAT      O60253   0.881   2.632   5.912
20004WAT     H160254   0.921   2.719   5.884
20004WAT     H260255   0.952   2.574   5.952
20005WAT      O60256   4.205   0.542   6.800
20005WAT     H160257   4.286   0.484   6.791
20005WAT     H260258   4.225   0.619   6.860
20006WAT      O60259   0.758   3.545   0.316
20006WAT     H160260   0.770   3.451   0.284
20006WAT     H260261   0.824   3.563   0.389
20007WAT      O60262   6.605   5.836   1.017
20007WAT     H160263   6.689   5.880   0.985
20007WAT     H260264   6.558   5.895   1.082
20008WAT      O60265   7.598   4.230   4.238
20008WAT     H160266   7.539   4.227   4.318
20008WAT     H260267   7.581   4.149   4.181
20009WAT      O60268   0.068   7.864   7.032
20009WAT     H160269   0.017   7.781   7.007
20009WAT     H260270   0.106   7.852   7.124
20010WAT      O60271   4.670   7.425   8.137
20010WAT     H160272   4.667   7.457   8.042
20010WAT     H260273   4.651   7.502   8.198
20011WAT      O60274   5.588   9.406   9.284
20011WAT     H160275   5.549   9.480   9.230
20011WAT     H260276   5.685   9.425   9.302
20012WAT      O60277   7.737   1.389   0.295
20012WAT     H160278   7.659   1.450   0.306
20012WAT     H260279   7.706   1.302   0.257
20013WAT      O60280   7.324   7.084   4.514
20013WAT     H160281   7.363   6.996   4.487
20013WAT     H260282   7.393   7.156   4.501
20014WAT      O60283   8.943   5.980   7.022
20014WAT     H160284   8.997   6.060   6.996
20014WAT     H260285   8.899   5.942   6.942
20015WAT      O60286   4.304   7.872   0.241
20015WAT     H160287   4.233   7.919   0.189
20015WAT     H260288   4.365   7.940   0.283
20016WAT      O60289   3.568   6.616   3.931
20016WAT     H160290   3.622   6.565   3.997
20016WAT     H260291   3.564   6.712   3.958
20017WAT      O60292   9.506   1.342   5.836
20017WAT     H160293   9.516   1.422   5.894
20017WAT     H260294   9.595   1.300   5.819
20018WAT      O60295   8.436   4.158   9.590
20018WAT     H160296   8.483   4.070   9.587
20018WAT     H260297   8.421   4.185   9.685
20019WAT      O60298   7.107   1.288   3.505
20019WAT     H160299   7.044   1.311   3.431
20019WAT     H260300   7.100   1.190   3.526
20020WAT      O60301   0.691   3.337   7.919
20020WAT     H160302   0.743   3.307   7.999
20020WAT     H260303   0.681   3.437   7.922
20021WAT      O60304   2.240   6.706   8.322
20021WAT     H160305   2.271   6.613   8.300
20021WAT     H260306   2.182   6.740   8.248
20022WAT      O60307   8.145   3.653   2.771
20022WAT     H160308   8.087   3.624   2.695
20022WAT     H260309   8.102   3.729   2.819
20023WAT      O60310   6.881   2.475   6.168
20023WAT     H160311   6.974   2.511   6.157
20023WAT     H260312   6.872   2.435   6.259
20024WAT      O60313   7.330   3.549   7.834
20024WAT     H160314   7.267   3.488   7.786
20024WAT     H260315   7.316   3.540   7.933
20025WAT      O60316   6.370   0.597   3.591
20025WAT     H160317   6.437   0.670   3.579
20025WAT     H260318   6.305   0.599   3.514
20026WAT      O60319   0.246   1.534   6.988
20026WAT     H160320   0.151   1.551   7.015
20026WAT     H260321   0.300   1.616   7.002
20027WAT      O60322   4.802   6.475   6.226
20027WAT     H160323   4.784   6.403   6.293
20027WAT     H260324   4.836   6.556   6.273
20028WAT      O60325   8.573   9.582   1.686
20028WAT     H160326   8.530   9.641   1.755
20028WAT     H260327   8.545   9.613   1.595
20029WAT      O60328   1.371   9.705   2.843
20029WAT     H160329   1.287   9.709   2.788
20029WAT     H260330   1.429   9.632   2.808
20030WAT      O60331   7.893   4.590   0.517
20030WAT     H160332   7.945   4.608   0.434
20030WAT     H260333   7.946   4.532   0.578
20031WAT      O60334   8.468   3.922   8.932
20031WAT     H160335   8.368   3.922   8.933
20031WAT     H260336   8.502   3.830   8.912
20032WAT      O60337   4.776   9.752   6.511
20032WAT     H160338   4.703   9.803   6.556
20032WAT     H260339   4.738   9.674   6.461
20033WAT      O60340   5.797   6.598   4.163
20033WAT     H160341   5.771   6.658   4.238
20033WAT     H260342   5.715   6.568   4.114
20034WAT      O60343   7.045   8.650   0.014
20034WAT     H160344   7.073   8.734   0.059
20034WAT     H260345   7.044   8.663  -0.085
20035WAT      O60346   7.001   5.384   9.818
20035WAT     H160347   7.040   5.354   9.731
20035WAT     H260348   7.010   5.483   9.826
20036WAT      O60349   6.805   1.151   6.356
20036WAT     H160350   6.775   1.231   6.305
20036WAT     H260351   6.892   1.118   6.319
20037WAT      O60352   7.569   6.982   9.709
20037WAT     H160353   7.530   6.971   9.801
20037WAT     H260354   7.513   6.931   9.643
20038WAT      O60355   4.796   1.377   6.180
20038WAT     H160356   4.878   1.431   6.160
20038WAT     H260357   4.821   1.281   6.192
20039WAT      O60358   4.724   3.102   6.172
20039WAT     H160359   4.785   3.030   6.138
20039WAT     H260360   4.629   3.076   6.154
20040WAT      O60361   7.550   3.622   5.730
20040WAT     H160362   7.455   3.593   5.724
20040WAT     H260363   7.599   3.564   5.796
20041WAT      O60364   8.068   3.713   1.638
20041WAT     H160365   7.983   3.664   1.616
20041WAT     H260366   8.138   3.647   1.665
20042WAT      O60367   0.104   9.402   1.142
20042WAT     H160368   0.066   9.494   1.130
20042WAT     H260369   0.038   9.334   1.110
20043WAT      O60370   1.971   2.922   8.306
20043WAT     H160371   2.065   2.948   8.286
20043WAT     H260372   1.944   2.846   8.247
20044WAT      O60373   8.584   6.944   4.707
20044WAT     H160374   8.637   6.871   4.665
20044WAT     H260375   8.540   6.999   4.636
20045WAT      O60376   2.326   7.246   0.756
20045WAT     H160377   2.380   7.217   0.836
20045WAT     H260378   2.248   7.300   0.786
20046WAT      O60379   9.393   7.688   0.424
20046WAT     H160380   9.403   7.765   0.487
20046WAT     H260381   9.419   7.604   0.471
20047WAT      O60382   9.640   9.407   1.011
20047WAT     H160383   9.699   9.333   1.044
20047WAT     H260384   9.654   9.419   0.913
20048WAT      O60385   7.045   0.445   3.142
20048WAT     H160386   7.120   0.476   3.200
20048WAT     H260387   7.006   0.361   3.179
20049WAT      O60388   7.335   1.740   9.441
20049WAT     H160389   7.360   1.739   9.344
20049WAT     H260390   7.386   1.811   9.489
20050WAT      O60391   3.596   3.013   0.237
20050WAT     H160392   3.573   2.941   0.302
20050WAT     H260393   3.682   3.056   0.264
20051WAT      O60394   7.526   4.854   5.660
20051WAT     H160395   7.528   4.909   5.744
20051WAT     H260396   7.433   4.822   5.643
20052WAT      O60397   8.322   8.282   9.739
20052WAT     H160398   8.415   8.320   9.739
20052WAT     H260399   8.326   8.184   9.758
20053WAT      O60400   6.354   3.599   5.991
20053WAT     H160401   6.350   3.625   6.087
20053WAT     H260402   6.405   3.513   5.982
20054WAT      O60403   8.667   7.299   4.923
20054WAT     H160404   8.729   7.221   4.916
20054WAT     H260405   8.621   7.313   4.835
20055WAT      O60406   3.063   9.816   4.583
20055WAT     H160407   3.129   9.742   4.596
20055WAT     H260408   2.971   9.777   4.573
20056WAT      O60409   1.406   6.280   9.537
20056WAT     H160410   1.343   6.245   9.606
20056WAT     H260411   1.477   6.334   9.581
20057WAT      O60412   3.248   8.123   4.665
20057WAT     H160413   3.187   8.069   4.723
20057WAT     H260414   3.205   8.136   4.576
20058WAT      O60415   6.130   1.270   8.253
20058WAT     H160416   6.118   1.209   8.331
20058WAT     H260417   6.206   1.333   8.271
20059WAT      O60418   4.284   6.965   7.065
20059WAT     H160419   4.216   7.038   7.063
20059WAT     H260420   4.372   7.001   7.097
20060WAT      O60421   0.823   4.758   1.948
20060WAT     H160422   0.828   4.822   2.024
20060WAT     H260423   0.911   4.756   1.899
20061WAT      O60424   8.413   4.074   8.663
20061WAT     H160425   8.389   4.075   8.566
20061WAT     H260426   8.498   4.023   8.676
20062WAT      O60427   2.824   3.074   9.413
20062WAT     H160428   2.921   3.096   9.422
20062WAT     H260429   2.769   3.143   9.459
20063WAT      O60430   3.357   9.660   3.920
20063WAT     H160431   3.383   9.712   4.001
20063WAT     H260432   3.314   9.722   3.853
20064WAT      O60433   2.452   4.331   3.727
20064WAT     H160434   2.544   4.371   3.721
20064WAT     H260435   2.384   4.401   3.704
20065WAT      O60436   8.470   8.699   7.033
20065WAT     H160437   8.510   8.749   7.110
20065WAT     H260438   8.372   8.687   7.048
20066WAT      O60439   0.254   8.355   6.695
20066WAT     H160440   0.295   8.446   6.700
20066WAT     H260441   0.325   8.286   6.710
20067WAT      O60442   9.441   7.796   0.669
20067WAT     H160443   9.408   7.721   0.727
20067WAT     H260444   9.450   7.879   0.725
20068WAT      O60445   6.651   6.511   8.600
20068WAT     H160446   6.706   6.431   8.577
20068WAT     H260447   6.658   6.530   8.698
20069WAT      O60448   1.392   4.318   9.275
20069WAT     H160449   1.381   4.389   9.206
20069WAT     H260450   1.304   4.299   9.319
20070WAT      O60451   8.253   6.860   4.424
20070WAT     H160452   8.158   6.845   4.453
20070WAT     H260453   8.258   6.946   4.372
20071WAT      O60454   9.620   4.627   6.750
20071WAT     H160455   9.628   4.541   6.698
20071WAT     H260456   9.529   4.633   6.791
20072WAT      O60457   7.642   7.838   4.842
20072WAT     H160458   7.728   7.812   4.887
20072WAT     H260459   7.589   7.756   4.822
20073WAT      O60460   3.175   4.307   0.259
20073WAT     H160461   3.103   4.371   0.234
20073WAT     H260462   3.248   4.356   0.308
20074WAT      O60463   0.778   0.197   5.570
20074WAT     H160464   0.716   0.123   5.545
20074WAT     H260465   0.863   0.158   5.605
20075WAT      O60466   6.335   2.487   9.023
20075WAT     H160467   6.298   2.472   9.115
20075WAT     H260468   6.314   2.580   8.994
20076WAT      O60469   9.015   2.744   7.723
20076WAT     H160470   9.071   2.661   7.729
20076WAT     H260471   9.072   2.822   7.697
20077WAT      O60472   6.540   5.701   6.831
20077WAT     H160473   6.617   5.698   6.767
20077WAT     H260474   6.572   5.681   6.924
20078WAT      O60475   7.068   9.509   2.419
20078WAT     H160476   6.993   9.505   2.353
20078WAT     H260477   7.079   9.604   2.450
20079WAT      O60478   4.923   2.518   1.178
20079WAT     H160479   4.885   2.528   1.270
20079WAT     H260480   4.880   2.584   1.116
20080WAT      O60481   2.146   8.807   1.389
20080WAT     H160482   2.131   8.736   1.458
20080WAT     H260483   2.167   8.764   1.301
20081WAT      O60484   1.657   6.925   5.615
20081WAT     H160485   1.623   6.832   5.624
20081WAT     H260486   1.637   6.959   5.523
20082WAT      O60487   3.585   0.977   6.528
20082WAT     H160488   3.574   1.049   6.460
20082WAT     H260489   3.556   1.011   6.617
20083WAT      O60490   8.951   2.886   3.476
20083WAT     H160491   9.010   2.877   3.556
20083WAT     H260492   9.003   2.927   3.401
20084WAT      O60493   7.111   2.271   8.727
20084WAT     H160494   7.166   2.208   8.674
20084WAT     H260495   7.165   2.308   8.803
20085WAT      O60496   4.317   0.770   1.700
20085WAT     H160497   4.293   0.745   1.794
20085WAT     H260498   4.356   0.862   1.699
20086WAT      O60499   4.795   4.288   8.500
20086WAT     H160500   4.801   4.217   8.430
20086WAT     H260501   4.728   4.261   8.569
20087WAT      O60502   0.327   4.794   1.453
20087WAT     H160503   0.232   4.800   1.485
20087WAT     H260504   0.375   4.725   1.508
20088WAT      O60505   6.313   4.371   7.235
20088WAT     H160506   6.292   4.310   7.159
20088WAT     H260507   6.324   4.316   7.319
20089WAT      O60508   7.777   3.915   8.649
20089WAT     H160509   7.851   3.974   8.617
20089WAT     H260510   7.768   3.836   8.589
20090WAT      O60511   8.986   3.681   2.480
20090WAT     H160512   8.971   3.596   2.530
20090WAT     H260513   9.036   3.661   2.396
20091WAT      O60514   8.050   3.776   2.163
20091WAT     H160515   8.056   3.709   2.237
20091WAT     H260516   7.957   3.813   2.159
20092WAT      O60517   4.601   3.915   3.171
20092WAT     H160518   4.586   3.864   3.087
20092WAT     H260519   4.698   3.916   3.193
20093WAT      O60520   4.675   4.021   4.575
20093WAT     H160521   4.617   3.972   4.639
20093WAT     H260522   4.770   4.020   4.608
20094WAT      O60523   5.243   2.908   0.639
20094WAT     H160524   5.294   2.941   0.560
20094WAT     H260525   5.156   2.868   0.609
20095WAT      O60526   1.335   2.159   2.395
20095WAT     H160527   1.378   2.069   2.410
20095WAT     H260528   1.405   2.225   2.369
20096WAT      O60529   0.469   7.622   0.098
20096WAT     H160530   0.455   7.687   0.023
20096WAT     H260531   0.381   7.602   0.142
20097WAT      O60532   2.314   4.984   1.793
20097WAT     H160533   2.341   5.056   1.858
20097WAT     H260534   2.292   4.900   1.844
20098WAT      O60535   1.311   7.857   2.123
20098WAT     H160536   1.265   7.770   2.104
20098WAT     H260537   1.254   7.913   2.183
20099WAT      O60538   3.107   2.908   6.648
20099WAT     H160539   3.018   2.876   6.681
20099WAT     H260540   3.125   3.000   6.685
20100WAT      O60541   1.352   3.091   3.686
20100WAT     H160542   1.398   3.170   3.726
20100WAT     H260543   1.269   3.070   3.738
20101WAT      O60544   4.056   4.853   3.201
20101WAT     H160545   3.982   4.832   3.265
20101WAT     H260546   4.139   4.806   3.230
20102WAT      O60547   7.103   1.446   4.193
20102WAT     H160548   7.107   1.347   4.201
20102WAT     H260549   7.095   1.472   4.097
20103WAT      O60550   7.854   7.726   6.945
20103WAT     H160551   7.930   7.660   6.940
20103WAT     H260552   7.785   7.691   7.008
20104WAT      O60553   6.727   5.949   7.737
20104WAT     H160554   6.673   6.026   7.703
20104WAT     H260555   6.770   5.902   7.660
20105WAT      O60556   2.707   8.238   8.355
20105WAT     H160557   2.721   8.215   8.452
20105WAT     H260558   2.678   8.156   8.306
20106WAT      O60559   8.718   6.176   7.504
20106WAT     H160560   8.746   6.086   7.470
20106WAT     H260561   8.738   6.183   7.602
20107WAT      O60562   6.503   8.362   5.830
20107WAT     H160563   6.533   8.408   5.913
20107WAT     H260564   6.417   8.401   5.798
20108WAT      O60565   0.935   8.654   8.934
20108WAT     H160566   1.016   8.617   8.888
20108WAT     H260567   0.866   8.677   8.866
20109WAT      O60568   5.439   7.410   1.792
20109WAT     H160569   5.436   7.459   1.704
20109WAT     H260570   5.518   7.442   1.845
20110WAT      O60571   1.028   8.647   3.773
20110WAT     H160572   1.069   8.719   3.829
20110WAT     H260573   1.009   8.684   3.682
20111WAT      O60574   2.378   8.637   0.423
20111WAT     H160575   2.411   8.687   0.503
20111WAT     H260576   2.398   8.540   0.434
20112WAT      O60577   2.196   6.555   7.453
20112WAT     H160578   2.155   6.606   7.529
20112WAT     H260579   2.295   6.548   7.468
20113WAT      O60580   2.002   8.815   0.827
20113WAT     H160581   1.954   8.742   0.877
20113WAT     H260582   2.074   8.774   0.771
20114WAT      O60583   4.992   5.084   5.690
20114WAT     H160584   4.938   5.004   5.664
20114WAT     H260585   5.062   5.101   5.621
20115WAT      O60586   9.801   8.962   6.068
20115WAT     H160587   9.818   9.015   5.984
20115WAT     H260588   9.888   8.929   6.105
20116WAT      O60589   7.004   7.076   9.046
20116WAT     H160590   7.078   7.108   8.987
20116WAT     H260591   7.039   7.004   9.106
20117WAT      O60592   9.587   5.440   0.139
20117WAT     H160593   9.647   5.371   0.100
20117WAT     H260594   9.526   5.475   0.068
20118WAT      O60595   8.874   3.665   1.828
20118WAT     H160596   8.895   3.587   1.885
20118WAT     H260597   8.873   3.748   1.884
20119WAT      O60598   7.771   8.127   7.137
20119WAT     H160599   7.804   8.211   7.181
20119WAT     H260600   7.713   8.151   7.059
20120WAT      O60601   7.422   7.771   7.603
20120WAT     H160602   7.450   7.758   7.508
20120WAT     H260603   7.423   7.869   7.625
20121WAT      O60604   9.336   6.513   2.864
20121WAT     H160605   9.299   6.578   2.797
20121WAT     H260606   9.317   6.547   2.957
20122WAT      O60607   5.670   7.719   1.031
20122WAT     H160608   5.600   7.658   0.993
20122WAT     H260609   5.668   7.713   1.131
20123WAT      O60610   3.298   1.720   9.736
20123WAT     H160611   3.294   1.622   9.718
20123WAT     H260612   3.330   1.736   9.829
20124WAT      O60613   8.363   5.061   0.198
20124WAT     H160614   8.438   5.036   0.259
20124WAT     H260615   8.348   5.160   0.203
20125WAT      O60616   2.835   9.196   8.975
20125WAT     H160617   2.782   9.153   9.048
20125WAT     H260618   2.850   9.292   8.997
20126WAT      O60619   7.060   5.146   5.147
20126WAT     H160620   7.042   5.242   5.167
20126WAT     H260621   7.005   5.117   5.069
20127WAT      O60622   4.130   4.233   8.250
20127WAT     H160623   4.106   4.267   8.159
20127WAT     H260624   4.220   4.190   8.247
20128WAT      O60625   7.067   2.183   6.009
20128WAT     H160626   7.059   2.225   5.919
20128WAT     H260627   7.141   2.117   6.009
20129WAT      O60628   7.800   1.324   0.691
20129WAT     H160629   7.771   1.419   0.694
20129WAT     H260630   7.840   1.304   0.602
20130WAT      O60631   7.396   2.542   6.066
20130WAT     H160632   7.492   2.566   6.054
20130WAT     H260633   7.364   2.578   6.153
20131WAT      O60634   1.222   7.535   8.256
20131WAT     H160635   1.123   7.521   8.250
20131WAT     H260636   1.269   7.451   8.228
20132WAT      O60637   3.644   0.188   2.470
20132WAT     H160638   3.569   0.123   2.461
20132WAT     H260639   3.727   0.149   2.429
20133WAT      O60640   0.083   4.654   9.662
20133WAT     H160641   0.015   4.583   9.682
20133WAT     H260642   0.038   4.743   9.659
20134WAT      O60643   2.083   2.753   1.736
20134WAT     H160644   2.010   2.813   1.769
20134WAT     H260645   2.171   2.798   1.746
20135WAT      O60646   1.184   6.923   7.752
20135WAT     H160647   1.202   6.828   7.775
20135WAT     H260648   1.205   6.981   7.831
20136WAT      O60649   5.753   7.655   6.538
20136WAT     H160650   5.691   7.600   6.482
20136WAT     H260651   5.708   7.680   6.624
20137WAT      O60652   0.573   8.630   3.395
20137WAT     H160653   0.609   8.723   3.398
20137WAT     H260654   0.610   8.578   3.472
20138WAT      O60655   3.304   3.345   0.495
20138WAT     H160656   3.326   3.299   0.409
20138WAT     H260657   3.216   3.314   0.528
20139WAT      O60658   5.858   5.714   0.470
20139WAT     H160659   5.771   5.672   0.493
20139WAT     H260660   5.886   5.775   0.544
20140WAT      O60661   4.428   3.193   0.762
20140WAT     H160662   4.367   3.258   0.807
20140WAT     H260663   4.475   3.238   0.685
20141WAT      O60664   0.470   8.984   9.321
20141WAT     H160665   0.401   9.056   9.331
20141WAT     H260666   0.431   8.896   9.347
20142WAT      O60667   0.167   7.012   5.293
20142WAT     H160668   0.203   7.029   5.201
20142WAT     H260669   0.223   6.942   5.338
20143WAT      O60670   1.473   2.997   1.593
20143WAT     H160671   1.561   2.994   1.545
20143WAT     H260672   1.490   3.001   1.692
20144WAT      O60673   1.752   1.083   9.384
20144WAT     H160674   1.787   0.990   9.378
20144WAT     H260675   1.695   1.102   9.303
20145WAT      O60676   0.223   6.973   0.367
20145WAT     H160677   0.245   6.945   0.274
20145WAT     H260678   0.166   7.056   0.365
20146WAT      O60679   1.832   6.524   0.467
20146WAT     H160680   1.795   6.432   0.481
20146WAT     H260681   1.907   6.520   0.401
20147WAT      O60682   6.496   8.239   2.070
20147WAT     H160683   6.564   8.308   2.047
20147WAT     H260684   6.507   8.159   2.011
20148WAT      O60685   5.700   2.501   0.945
20148WAT     H160686   5.657   2.475   0.858
20148WAT     H260687   5.631   2.501   1.017
20149WAT      O60688   0.753   9.282   4.450
20149WAT     H160689   0.666   9.320   4.420
20149WAT     H260690   0.760   9.289   4.549
20150WAT      O60691   8.401   5.138   3.267
20150WAT     H160692   8.375   5.169   3.358
20150WAT     H260693   8.425   5.216   3.210
20151WAT      O60694   7.408   4.837   3.506
20151WAT     H160695   7.482   4.877   3.561
20151WAT     H260696   7.390   4.744   3.538
20152WAT      O60697   3.388   3.197   9.514
20152WAT     H160698   3.376   3.295   9.499
20152WAT     H260699   3.366   3.147   9.430
20153WAT      O60700   3.961   7.164   3.367
20153WAT     H160701   3.945   7.066   3.367
20153WAT     H260702   3.979   7.195   3.274
20154WAT      O60703   3.797   4.538   2.523
20154WAT     H160704   3.878   4.481   2.510
20154WAT     H260705   3.811   4.597   2.602
20155WAT      O60706   1.524   7.989   5.721
20155WAT     H160707   1.497   8.055   5.791
20155WAT     H260708   1.460   7.912   5.720
20156WAT      O60709   3.819   3.583   5.898
20156WAT     H160710   3.763   3.509   5.863
20156WAT     H260711   3.770   3.669   5.891
20157WAT      O60712   5.373   8.272   5.324
20157WAT     H160713   5.461   8.225   5.315
20157WAT     H260714   5.341   8.300   5.233
20158WAT      O60715   8.645   5.912   2.009
20158WAT     H160716   8.686   5.971   1.939
20158WAT     H260717   8.546   5.909   1.997
20159WAT      O60718   0.487   4.005   8.878
20159WAT     H160719   0.448   3.930   8.824
20159WAT     H260720   0.506   3.973   8.970
20160WAT      O60721   1.439   9.488   7.046
20160WAT     H160722   1.450   9.544   7.127
20160WAT     H260723   1.383   9.536   6.978
20161WAT      O60724   0.415   2.513   4.231
20161WAT     H160725   0.388   2.543   4.139
20161WAT     H260726   0.346   2.540   4.297
20162WAT      O60727   0.098   1.603   1.468
20162WAT     H160728   0.181   1.630   1.420
20162WAT     H260729   0.099   1.505   1.485
20163WAT      O60730   8.598   7.371   4.664
20163WAT     H160731   8.643   7.460   4.654
20163WAT     H260732   8.500   7.384   4.681
20164WAT      O60733   3.186   4.363   5.003
20164WAT     H160734   3.186   4.347   5.102
20164WAT     H260735   3.104   4.322   4.963
20165WAT      O60736   4.694   2.789   3.925
20165WAT     H160737   4.786   2.758   3.946
20165WAT     H260738   4.639   2.790   4.009
20166WAT      O60739   0.018   6.381   3.033
20166WAT     H160740   0.063   6.438   2.964
20166WAT     H260741   0.084   6.317   3.072
20167WAT      O60742   2.292   7.422   8.672
20167WAT     H160743   2.221   7.442   8.604
20167WAT     H260744   2.317   7.507   8.719
20168WAT      O60745   8.928   8.149   4.795
20168WAT     H160746   8.927   8.168   4.697
20168WAT     H260747   8.841   8.176   4.835
20169WAT      O60748   6.552   9.427   3.415
20169WAT     H160749   6.568   9.348   3.355
20169WAT     H260750   6.587   9.407   3.506
20170WAT      O60751   0.683   0.963   3.168
20170WAT     H160752   0.740   0.926   3.095
20170WAT     H260753   0.590   0.978   3.134
20171WAT      O60754   1.363   0.443   3.342
20171WAT     H160755   1.422   0.473   3.417
20171WAT     H260756   1.274   0.415   3.378
20172WAT      O60757   2.309   5.325   5.088
20172WAT     H160758   2.303   5.229   5.064
20172WAT     H260759   2.216   5.363   5.097
20173WAT      O60760   3.446   5.567   8.611
20173WAT     H160761   3.455   5.606   8.520
20173WAT     H260762   3.500   5.482   8.616
20174WAT      O60763   1.136   3.473   7.911
20174WAT     H160764   1.231   3.498   7.930
20174WAT     H260765   1.132   3.409   7.835
20175WAT      O60766   6.043   0.761   3.589
20175WAT     H160767   5.944   0.747   3.584
20175WAT     H260768   6.083   0.741   3.499
20176WAT      O60769   8.246   8.991   2.743
20176WAT     H160770   8.206   9.072   2.784
20176WAT     H260771   8.176   8.942   2.690
20177WAT      O60772   7.178   5.251   3.063
20177WAT     H160773   7.172   5.152   3.075
20177WAT     H260774   7.144   5.276   2.972
20178WAT      O60775   3.593   0.838   0.038
20178WAT     H160776   3.652   0.916   0.021
20178WAT     H260777   3.498   0.868   0.045
20179WAT      O60778   1.047   4.584   9.807
20179WAT     H160779   0.996   4.511   9.852
20179WAT     H260780   0.985   4.659   9.784
20180WAT      O60781   3.684   2.837   7.978
20180WAT     H160782   3.661   2.894   7.899
20180WAT     H260783   3.662   2.741   7.957
20181WAT      O60784   1.261   7.520   1.156
20181WAT     H160785   1.270   7.544   1.059
20181WAT     H260786   1.252   7.602   1.211
20182WAT      O60787   7.765   3.580   3.722
20182WAT     H160788   7.835   3.650   3.733
20182WAT     H260789   7.752   3.560   3.625
20183WAT      O60790   8.724   0.160   7.919
20183WAT     H160791   8.785   0.131   7.993
20183WAT     H260792   8.683   0.249   7.942
20184WAT      O60793   4.927   1.915   9.825
20184WAT     H160794   5.014   1.930   9.872
20184WAT     H260795   4.852   1.932   9.889
20185WAT      O60796   8.190   3.122   8.879
20185WAT     H160797   8.209   3.149   8.785
20185WAT     H260798   8.092   3.127   8.897
20186WAT      O60799   3.913   6.263   8.525
20186WAT     H160800   4.013   6.268   8.524
20186WAT     H260801   3.876   6.353   8.549
20187WAT      O60802   8.612   1.118   0.241
20187WAT     H160803   8.548   1.184   0.282
20187WAT     H260804   8.705   1.139   0.271
20188WAT      O60805   9.592   9.261   5.072
20188WAT     H160806   9.622   9.213   5.155
20188WAT     H260807   9.518   9.210   5.029
20189WAT      O60808   2.943   2.404   4.526
20189WAT     H160809   2.957   2.305   4.533
20189WAT     H260810   2.932   2.429   4.429
20190WAT      O60811   0.992   2.056   6.350
20190WAT     H160812   0.961   2.148   6.373
20190WAT     H260813   1.055   2.023   6.420
20191WAT      O60814   8.243   6.848   3.742
20191WAT     H160815   8.309   6.804   3.681
20191WAT     H260816   8.156   6.800   3.737
20192WAT      O60817   2.942   6.361   9.221
20192WAT     H160818   3.028   6.310   9.219
20192WAT     H260819   2.938   6.417   9.304
20193WAT      O60820   1.858   4.712   2.584
20193WAT     H160821   1.938   4.658   2.560
20193WAT     H260822   1.824   4.760   2.504
20194WAT      O60823   0.815   8.950   6.891
20194WAT     H160824   0.782   8.971   6.799
20194WAT     H260825   0.738   8.940   6.953
20195WAT      O60826   3.938   3.845   5.678
20195WAT     H160827   3.921   3.913   5.750
20195WAT     H260828   4.035   3.822   5.677
20196WAT      O60829   9.731   8.995   1.978
20196WAT     H160830   9.823   8.964   2.004
20196WAT     H260831   9.735   9.035   1.886
20197WAT      O60832   2.300   9.362   0.073
20197WAT     H160833   2.213   9.409   0.090
20197WAT     H260834   2.357   9.418   0.014
20198WAT      O60835   5.955   4.152   1.243
20198WAT     H160836   5.978   4.245   1.269
20198WAT     H260837   5.982   4.089   1.316
20199WAT      O60838   4.384   5.730   6.521
20199WAT     H160839   4.327   5.804   6.558
20199WAT     H260840   4.434   5.686   6.596
20200WAT      O60841   4.661   6.018   9.038
20200WAT     H160842   4.689   6.094   9.096
20200WAT     H260843   4.645   5.937   9.094
20201WAT      O60844   1.595   4.534   9.662
20201WAT     H160845   1.498   4.515   9.645
20201WAT     H260846   1.622   4.496   9.750
20202WAT      O60847   3.947   7.978   1.435
20202WAT     H160848   3.907   7.913   1.500
20202WAT     H260849   3.974   7.929   1.352
20203WAT      O60850   5.287   6.757   2.254
20203WAT     H160851   5.261   6.704   2.335
20203WAT     H260852   5.204   6.787   2.207
20204WAT      O60853   2.544   3.266   5.319
20204WAT     H160854   2.589   3.330   5.256
20204WAT     H260855   2.613   3.205   5.358
20205WAT      O60856   1.039   7.931   9.161
20205WAT     H160857   0.950   7.902   9.196
20205WAT     H260858   1.028   7.971   9.070
20206WAT      O60859   0.014   2.876   8.528
20206WAT     H160860  -0.075   2.847   8.563
20206WAT     H260861   0.085   2.816   8.564
20207WAT      O60862   7.216   3.106   7.481
20207WAT     H160863   7.286   3.175   7.500
20207WAT     H260864   7.230   3.068   7.390
20208WAT      O60865   4.581   7.271   1.141
20208WAT     H160866   4.659   7.209   1.143
20208WAT     H260867   4.516   7.247   1.213
20209WAT      O60868   5.174   4.558   8.321
20209WAT     H160869   5.121   4.496   8.378
20209WAT     H260870   5.125   4.576   8.236
20210WAT      O60871   6.386   0.718   1.476
20210WAT     H160872   6.321   0.761   1.413
20210WAT     H260873   6.471   0.699   1.427
20211WAT      O60874   0.523   2.189   9.566
20211WAT     H160875   0.455   2.117   9.551
20211WAT     H260876   0.585   2.162   9.639
20212WAT      O60877   0.132   2.076   9.499
20212WAT     H160878   0.169   2.100   9.409
20212WAT     H260879   0.207   2.069   9.565
20213WAT      O60880   4.431   9.177   7.794
20213WAT     H160881   4.429   9.139   7.886
20213WAT     H260882   4.514   9.147   7.747
20214WAT      O60883   6.763   9.603   6.801
20214WAT     H160884   6.719   9.615   6.712
20214WAT     H260885   6.794   9.508   6.810
20215WAT      O60886   7.118   0.151   8.562
20215WAT     H160887   7.128   0.069   8.506
20215WAT     H260888   7.024   0.185   8.555
20216WAT      O60889   2.494   0.881   5.193
20216WAT     H160890   2.476   0.976   5.220
20216WAT     H260891   2.577   0.877   5.137
20217WAT      O60892   7.078   9.257   3.782
20217WAT     H160893   7.172   9.234   3.758
20217WAT     H260894   7.069   9.356   3.790
20218WAT      O60895   1.553   5.797   0.240
20218WAT     H160896   1.470   5.853   0.233
20218WAT     H260897   1.610   5.832   0.314
20219WAT      O60898   7.855   0.471   3.357
20219WAT     H160899   7.934   0.423   3.320
20219WAT     H260900   7.802   0.408   3.414
20220WAT      O60901   9.411   9.315   8.681
20220WAT     H160902   9.399   9.389   8.614
20220WAT     H260903   9.499   9.272   8.666
20221WAT      O60904   3.132   3.577   7.791
20221WAT     H160905   3.224   3.550   7.763
20221WAT     H260906   3.096   3.510   7.856
20222WAT      O60907   0.434   6.544   6.915
20222WAT     H160908   0.410   6.639   6.933
20222WAT     H260909   0.383   6.511   6.835
20223WAT      O60910   2.681   0.414   7.249
20223WAT     H160911   2.649   0.414   7.154
20223WAT     H260912   2.630   0.346   7.301
20224WAT      O60913   4.991   4.944   4.042
20224WAT     H160914   4.987   4.989   3.953
20224WAT     H260915   4.973   4.846   4.032
20225WAT      O60916   7.775   2.880   2.326
20225WAT     H160917   7.815   2.900   2.416
20225WAT     H260918   7.828   2.807   2.282
20226WAT      O60919   1.061   4.042   3.203
20226WAT     H160920   1.062   4.020   3.105
20226WAT     H260921   1.098   4.133   3.217
20227WAT      O60922   8.899   5.692   4.540
20227WAT     H160923   8.878   5.630   4.616
20227WAT     H260924   8.998   5.707   4.537
20228WAT      O60925   6.704   2.090   8.557
20228WAT     H160926   6.677   2.008   8.506
20228WAT     H260927   6.682   2.078   8.654
20229WAT      O60928   5.096   4.707   4.732
20229WAT     H160929   5.194   4.697   4.716
20229WAT     H260930   5.073   4.673   4.823
20230WAT      O60931   8.518   4.046   4.234
20230WAT     H160932   8.490   4.060   4.139
20230WAT     H260933   8.438   4.039   4.292
20231WAT      O60934   8.403   7.098   3.029
20231WAT     H160935   8.452   7.165   2.973
20231WAT     H260936   8.346   7.041   2.969
20232WAT      O60937   4.806   8.747   5.307
20232WAT     H160938   4.828   8.786   5.217
20232WAT     H260939   4.820   8.648   5.305
20233WAT      O60940   1.472   2.430   9.475
20233WAT     H160941   1.475   2.458   9.379
20233WAT     H260942   1.503   2.335   9.483
20234WAT      O60943   7.370   0.729   0.889
20234WAT     H160944   7.435   0.764   0.956
20234WAT     H260945   7.349   0.634   0.909
20235WAT      O60946   3.576   5.086   5.035
20235WAT     H160947   3.479   5.065   5.042
20235WAT     H260948   3.602   5.092   4.939
20236WAT      O60949   8.672   4.450   9.671
20236WAT     H160950   8.695   4.499   9.587
20236WAT     H260951   8.625   4.513   9.734
20237WAT      O60952   3.984   5.588   5.440
20237WAT     H160953   3.924   5.514   5.468
20237WAT     H260954   4.031   5.564   5.355
20238WAT      O60955   8.253   0.875   4.251
20238WAT     H160956   8.269   0.792   4.198
20238WAT     H260957   8.167   0.866   4.303
20239WAT      O60958   0.078   1.988   1.398
20239WAT     H160959   0.045   2.067   1.346
20239WAT     H260960   0.159   2.015   1.451
20240WAT      O60961   0.860   6.556   5.642
20240WAT     H160962   0.795   6.630   5.662
20240WAT     H260963   0.952   6.583   5.672
20241WAT      O60964   2.620   5.908   5.747
20241WAT     H160965   2.636   5.983   5.683
20241WAT     H260966   2.690   5.910   5.819
20242WAT      O60967   9.036   8.802   8.128
20242WAT     H160968   9.128   8.782   8.162
20242WAT     H260969   9.023   8.757   8.040
20243WAT      O60970   7.775   9.521   1.057
20243WAT     H160971   7.701   9.481   1.002
20243WAT     H260972   7.791   9.615   1.029
20244WAT      O60973   1.469   9.040   1.089
20244WAT     H160974   1.521   9.020   1.172
20244WAT     H260975   1.503   9.124   1.047
20245WAT      O60976   9.243   0.710   0.022
20245WAT     H160977   9.244   0.621   0.067
20245WAT     H260978   9.286   0.702  -0.068
20246WAT      O60979   1.218   3.946   6.400
20246WAT     H160980   1.308   3.927   6.359
20246WAT     H260981   1.147   3.899   6.346
20247WAT      O60982   9.458   9.686   9.364
20247WAT     H160983   9.504   9.645   9.284
20247WAT     H260984   9.522   9.747   9.411
20248WAT      O60985   6.936   3.796   4.700
20248WAT     H160986   6.932   3.811   4.799
20248WAT     H260987   6.996   3.719   4.680
20249WAT      O60988   3.019   6.134   5.387
20249WAT     H160989   3.092   6.093   5.332
20249WAT     H260990   3.017   6.090   5.477
20250WAT      O60991   6.672   2.981   4.675
20250WAT     H160992   6.586   3.021   4.641
20250WAT     H260993   6.656   2.887   4.703
20251WAT      O60994   5.935   8.330   7.530
20251WAT     H160995   5.923   8.395   7.454
20251WAT     H260996   5.981   8.248   7.496
20252WAT      O60997   3.517   6.139   1.464
20252WAT     H160998   3.469   6.220   1.496
20252WAT     H260999   3.513   6.068   1.534
20253WAT      O61000   2.378   8.771   5.269
20253WAT     H161001   2.292   8.822   5.270
20253WAT     H261002   2.455   8.835   5.262
20254WAT      O61003   7.447   3.568   2.029
20254WAT     H161004   7.489   3.595   2.115
20254WAT     H261005   7.347   3.576   2.036
20255WAT      O61006   1.120   8.521   8.773
20255WAT     H161007   1.202   8.564   8.735
20255WAT     H261008   1.131   8.422   8.774
20256WAT      O61009   3.525   0.271   6.673
20256WAT     H161010   3.572   0.359   6.662
20256WAT     H261011   3.428   0.283   6.653
20257WAT      O61012   1.578   8.475   2.537
20257WAT     H161013   1.500   8.431   2.493
20257WAT     H261014   1.609   8.552   2.481
20258WAT      O61015   9.325   5.462   2.355
20258WAT     H161016   9.239   5.443   2.402
20258WAT     H261017   9.368   5.376   2.328
20259WAT      O61018   1.150   7.099   8.409
20259WAT     H161019   1.105   7.189   8.410
20259WAT     H261020   1.102   7.038   8.346
20260WAT      O61021   4.960   6.227   6.580
20260WAT     H161022   5.034   6.284   6.614
20260WAT     H261023   4.970   6.134   6.617
20261WAT      O61024   0.977   6.615   7.682
20261WAT     H161025   0.925   6.532   7.664
20261WAT     H261026   1.068   6.608   7.640
20262WAT      O61027   3.938   4.730   4.200
20262WAT     H161028   3.928   4.828   4.216
20262WAT     H261029   3.961   4.684   4.286
20263WAT      O61030   2.080   9.302   3.795
20263WAT     H161031   1.986   9.313   3.762
20263WAT     H261032   2.103   9.204   3.799
20264WAT      O61033   0.898   1.798   5.991
20264WAT     H161034   0.959   1.769   6.065
20264WAT     H261035   0.823   1.733   5.982
20265WAT      O61036   8.436   5.219   4.402
20265WAT     H161037   8.505   5.263   4.459
20265WAT     H261038   8.448   5.248   4.307
20266WAT      O61039   5.643   4.690   2.856
20266WAT     H161040   5.569   4.626   2.877
20266WAT     H261041   5.717   4.678   2.922
20267WAT      O61042   9.611   1.060   4.160
20267WAT     H161043   9.593   1.002   4.239
20267WAT     H261044   9.701   1.102   4.168
20268WAT      O61045   9.326   8.762   0.909
20268WAT     H161046   9.233   8.756   0.870
20268WAT     H261047   9.322   8.809   0.997
20269WAT      O61048   5.275   1.203   7.661
20269WAT     H161049   5.267   1.103   7.669
20269WAT     H261050   5.184   1.243   7.650
20270WAT      O61051   8.544   3.967   9.170
20270WAT     H161052   8.533   4.055   9.216
20270WAT     H261053   8.524   3.977   9.073
20271WAT      O61054   9.593   7.589   8.004
20271WAT     H161055   9.561   7.664   7.947
20271WAT     H261056   9.558   7.503   7.969
20272WAT      O61057   1.360   3.017   6.160
20272WAT     H161058   1.317   3.044   6.074
20272WAT     H261059   1.303   3.046   6.237
20273WAT      O61060   5.964   3.037   0.451
20273WAT     H161061   5.988   3.132   0.469
20273WAT     H261062   6.030   2.997   0.387
20274WAT      O61063   0.438   5.375   6.386
20274WAT     H161064   0.475   5.290   6.349
20274WAT     H261065   0.511   5.428   6.428
20275WAT      O61066   2.145   3.877   4.767
20275WAT     H161067   2.101   3.830   4.843
20275WAT     H261068   2.190   3.810   4.707
20276WAT      O61069   5.973   1.268   1.814
20276WAT     H161070   5.883   1.273   1.856
20276WAT     H261071   5.991   1.174   1.784
20277WAT      O61072   6.456   5.110   1.293
20277WAT     H161073   6.368   5.081   1.256
20277WAT     H261074   6.497   5.035   1.345
20278WAT      O61075   1.420   0.836   2.380
20278WAT     H161076   1.340   0.891   2.405
20278WAT     H261077   1.478   0.824   2.460
20279WAT      O61078   8.087   8.671   8.803
20279WAT     H161079   8.140   8.661   8.887
20279WAT     H261080   8.099   8.591   8.745
20280WAT      O61081   2.925   1.427   3.590
20280WAT     H161082   3.011   1.408   3.638
20280WAT     H261083   2.850   1.426   3.656
20281WAT      O61084   6.375   7.325   5.083
20281WAT     H161085   6.283   7.342   5.047
20281WAT     H261086   6.433   7.286   5.011
20282WAT      O61087   3.495   1.174   2.541
20282WAT     H161088   3.401   1.195   2.566
20282WAT     H261089   3.542   1.134   2.619
20283WAT      O61090   1.826   5.501   0.058
20283WAT     H161091   1.875   5.515   0.144
20283WAT     H261092   1.883   5.532  -0.018
20284WAT      O61093   0.661   0.043   2.671
20284WAT     H161094   0.725   0.041   2.595
20284WAT     H261095   0.699  -0.009   2.748
20285WAT      O61096   7.540   6.156   7.810
20285WAT     H161097   7.445   6.176   7.786
20285WAT     H261098   7.599   6.176   7.732
20286WAT      O61099   6.853   5.529   3.107
20286WAT     H161100   6.835   5.626   3.097
20286WAT     H261101   6.950   5.515   3.131
20287WAT      O61102   4.383   9.844   9.172
20287WAT     H161103   4.286   9.828   9.156
20287WAT     H261104   4.400   9.850   9.270
20288WAT      O61105   9.511   7.976   9.721
20288WAT     H161106   9.468   7.904   9.665
20288WAT     H261107   9.596   7.942   9.760
20289WAT      O61108   1.695   8.274   0.794
20289WAT     H161109   1.648   8.343   0.738
20289WAT     H261110   1.705   8.309   0.888
20290WAT      O61111   0.392   1.715   3.311
20290WAT     H161112   0.460   1.777   3.348
20290WAT     H261113   0.302   1.738   3.348
20291WAT      O61114   1.184   9.233   5.718
20291WAT     H161115   1.232   9.237   5.631
20291WAT     H261116   1.109   9.299   5.719
20292WAT      O61117   7.958   6.562   0.828
20292WAT     H161118   8.006   6.482   0.791
20292WAT     H261119   7.867   6.569   0.787
20293WAT      O61120   7.194   1.650   1.521
20293WAT     H161121   7.208   1.558   1.483
20293WAT     H261122   7.099   1.677   1.506
20294WAT      O61123   1.631   6.176   7.418
20294WAT     H161124   1.613   6.078   7.409
20294WAT     H261125   1.659   6.213   7.330
20295WAT      O61126   0.730   1.396   0.781
20295WAT     H161127   0.656   1.454   0.816
20295WAT     H261128   0.781   1.357   0.858
20296WAT      O61129   8.419   1.970   7.012
20296WAT     H161130   8.376   1.902   6.953
20296WAT     H261131   8.392   2.062   6.982
20297WAT      O61132   1.600   6.336   5.026
20297WAT     H161133   1.577   6.428   5.055
20297WAT     H261134   1.657   6.292   5.096
20298WAT      O61135   6.056   7.743   7.632
20298WAT     H161136   6.078   7.654   7.592
20298WAT     H261137   6.036   7.731   7.729
20299WAT      O61138   3.377   3.370   4.172
20299WAT     H161139   3.312   3.435   4.134
20299WAT     H261140   3.467   3.414   4.181
20300WAT      O61141   5.565   1.322   8.191
20300WAT     H161142   5.478   1.326   8.239
20300WAT     H261143   5.551   1.288   8.098
20301WAT      O61144   9.495   8.385   6.687
20301WAT     H161145   9.412   8.441   6.692
20301WAT     H261146   9.493   8.315   6.758
20302WAT      O61147   3.505   0.723   7.955
20302WAT     H161148   3.407   0.718   7.974
20302WAT     H261149   3.523   0.796   7.890
20303WAT      O61150   0.410   8.658   9.453
20303WAT     H161151   0.348   8.593   9.499
20303WAT     H261152   0.372   8.681   9.363
20304WAT      O61153   7.757   7.297   4.942
20304WAT     H161154   7.678   7.330   4.994
20304WAT     H261155   7.799   7.374   4.893
20305WAT      O61156   5.043   1.296   7.550
20305WAT     H161157   4.992   1.355   7.488
20305WAT     H261158   4.990   1.213   7.567
20306WAT      O61159   6.336   0.542   1.898
20306WAT     H161160   6.274   0.580   1.829
20306WAT     H261161   6.327   0.442   1.897
20307WAT      O61162   2.337   4.148   1.527
20307WAT     H161163   2.286   4.203   1.594
20307WAT     H261164   2.351   4.056   1.563
20308WAT      O61165   0.583   4.997   2.273
20308WAT     H161166   0.566   4.948   2.359
20308WAT     H261167   0.682   5.009   2.261
20309WAT      O61168   3.371   3.222   0.255
20309WAT     H161169   3.294   3.226   0.191
20309WAT     H261170   3.417   3.133   0.247
20310WAT      O61171   0.362   9.111   4.635
20310WAT     H161172   0.394   9.196   4.593
20310WAT     H261173   0.333   9.128   4.729
20311WAT      O61174   3.803   8.536   5.560
20311WAT     H161175   3.745   8.512   5.482
20311WAT     H261176   3.894   8.560   5.526
20312WAT      O61177   5.672   6.108   3.450
20312WAT     H161178   5.740   6.125   3.522
20312WAT     H261179   5.694   6.021   3.405
20313WAT      O61180   5.003   0.015   5.887
20313WAT     H161181   5.091   0.056   5.910
20313WAT     H261182   5.018  -0.071   5.839
20314WAT      O61183   6.340   3.645   2.593
20314WAT     H161184   6.267   3.604   2.538
20314WAT     H261185   6.366   3.733   2.554
20315WAT      O61186   4.203   7.314   6.459
20315WAT     H161187   4.116   7.331   6.505
20315WAT     H261188   4.265   7.391   6.476
20316WAT      O61189   3.760   0.422   6.352
20316WAT     H161190   3.775   0.433   6.450
20316WAT     H261191   3.827   0.477   6.302
20317WAT      O61192   8.835   1.325   6.983
20317WAT     H161193   8.850   1.414   6.939
20317WAT     H261194   8.915   1.267   6.968
20318WAT      O61195   1.301   0.797   5.787
20318WAT     H161196   1.260   0.856   5.717
20318WAT     H261197   1.291   0.840   5.877
20319WAT      O61198   6.714   5.014   6.274
20319WAT     H161199   6.680   5.049   6.186
20319WAT     H261200   6.659   5.053   6.348
20320WAT      O61201   3.940   8.967   9.016
20320WAT     H161202   3.874   8.982   9.089
20320WAT     H261203   3.950   9.050   8.961
20321WAT      O61204   4.612   2.537   1.826
20321WAT     H161205   4.627   2.557   1.923
20321WAT     H261206   4.556   2.609   1.786
20322WAT      O61207   2.642   5.046   8.205
20322WAT     H161208   2.724   5.092   8.240
20322WAT     H261209   2.659   4.948   8.199
20323WAT      O61210   2.440   0.387   4.354
20323WAT     H161211   2.487   0.406   4.440
20323WAT     H261212   2.477   0.445   4.281
20324WAT      O61213   0.588   0.542   0.395
20324WAT     H161214   0.489   0.546   0.382
20324WAT     H261215   0.619   0.447   0.393
20325WAT      O61216   1.624   7.704   4.822
20325WAT     H161217   1.554   7.632   4.820
20325WAT     H261218   1.640   7.732   4.917
20326WAT      O61219   1.983   0.796   4.448
20326WAT     H161220   2.055   0.743   4.493
20326WAT     H261221   2.022   0.853   4.376
20327WAT      O61222   8.885   2.598   6.992
20327WAT     H161223   8.966   2.655   7.008
20327WAT     H261224   8.846   2.621   6.903
20328WAT      O61225   4.794   4.781   7.632
20328WAT     H161226   4.781   4.749   7.539
20328WAT     H261227   4.770   4.708   7.696
20329WAT      O61228   8.309   5.522   1.072
20329WAT     H161229   8.226   5.494   1.121
20329WAT     H261230   8.330   5.618   1.094
20330WAT      O61231   3.571   8.269   1.011
20330WAT     H161232   3.522   8.221   0.939
20330WAT     H261233   3.523   8.355   1.032
20331WAT      O61234   0.645   6.301   7.959
20331WAT     H161235   0.574   6.231   7.961
20331WAT     H261236   0.604   6.392   7.966
20332WAT      O61237   6.427   1.948   8.482
20332WAT     H161238   6.439   1.965   8.384
20332WAT     H261239   6.381   2.026   8.525
20333WAT      O61240   9.829   6.053   3.309
20333WAT     H161241   9.783   6.127   3.359
20333WAT     H261242   9.928   6.068   3.310
20334WAT      O61243   1.595   9.572   8.063
20334WAT     H161244   1.511   9.583   8.009
20334WAT     H261245   1.673   9.560   8.002
20335WAT      O61246   8.684   3.541   4.611
20335WAT     H161247   8.770   3.540   4.560
20335WAT     H261248   8.626   3.465   4.581
20336WAT      O61249   7.971   8.102   5.149
20336WAT     H161250   7.874   8.085   5.165
20336WAT     H261251   8.016   8.126   5.235
20337WAT      O61252   2.619   1.026   8.740
20337WAT     H161253   2.714   1.000   8.722
20337WAT     H261254   2.614   1.081   8.823
20338WAT      O61255   9.755   5.867   3.137
20338WAT     H161256   9.692   5.798   3.174
20338WAT     H261257   9.771   5.938   3.205
20339WAT      O61258   4.043   3.510   6.041
20339WAT     H161259   4.127   3.532   5.992
20339WAT     H261260   3.964   3.534   5.985
20340WAT      O61261   8.080   5.740   8.256
20340WAT     H161262   8.060   5.700   8.346
20340WAT     H261263   8.097   5.838   8.266
20341WAT      O61264   3.583   2.633   1.838
20341WAT     H161265   3.489   2.633   1.806
20341WAT     H261266   3.641   2.683   1.774
20342WAT      O61267   8.905   1.701   4.668
20342WAT     H161268   8.887   1.669   4.761
20342WAT     H261269   8.998   1.678   4.641
20343WAT      O61270   8.866   8.245   0.404
20343WAT     H161271   8.936   8.241   0.333
20343WAT     H261272   8.903   8.290   0.485
20344WAT      O61273   7.891   5.322   6.769
20344WAT     H161274   7.812   5.265   6.790
20344WAT     H261275   7.969   5.293   6.825
20345WAT      O61276   3.883   2.317   1.604
20345WAT     H161277   3.961   2.268   1.565
20345WAT     H261278   3.836   2.368   1.531
20346WAT      O61279   7.988   7.572   0.732
20346WAT     H161280   7.905   7.532   0.694
20346WAT     H261281   7.982   7.574   0.832
20347WAT      O61282   4.543   1.274   6.747
20347WAT     H161283   4.578   1.278   6.653
20347WAT     H261284   4.616   1.300   6.810
20348WAT      O61285   4.284   8.235   5.524
20348WAT     H161286   4.295   8.314   5.463
20348WAT     H261287   4.261   8.266   5.616
20349WAT      O61288   9.512   1.288   7.907
20349WAT     H161289   9.497   1.358   7.837
20349WAT     H261290   9.458   1.206   7.884
20350WAT      O61291   8.833   1.476   2.739
20350WAT     H161292   8.782   1.424   2.670
20350WAT     H261293   8.835   1.424   2.825
20351WAT      O61294   0.256   8.481   9.793
20351WAT     H161295   0.300   8.391   9.798
20351WAT     H261296   0.309   8.547   9.846
20352WAT      O61297   3.608   9.831   6.490
20352WAT     H161298   3.589   9.863   6.582
20352WAT     H261299   3.678   9.889   6.448
20353WAT      O61300   6.211   5.171   2.533
20353WAT     H161301   6.259   5.089   2.565
20353WAT     H261302   6.129   5.144   2.483
20354WAT      O61303   2.644   0.458   9.063
20354WAT     H161304   2.601   0.457   8.973
20354WAT     H261305   2.741   0.483   9.053
20355WAT      O61306   8.353   9.140   4.328
20355WAT     H161307   8.423   9.120   4.397
20355WAT     H261308   8.366   9.080   4.249
20356WAT      O61309   5.342   4.176   3.763
20356WAT     H161310   5.297   4.223   3.687
20356WAT     H261311   5.275   4.125   3.816
20357WAT      O61312   8.339   1.652   2.196
20357WAT     H161313   8.349   1.557   2.167
20357WAT     H261314   8.422   1.682   2.243
20358WAT      O61315   5.707   2.275   9.474
20358WAT     H161316   5.623   2.312   9.515
20358WAT     H261317   5.730   2.189   9.518
20359WAT      O61318   4.049   8.298   9.800
20359WAT     H161319   3.957   8.310   9.763
20359WAT     H261320   4.108   8.260   9.729
20360WAT      O61321   7.266   9.570   9.535
20360WAT     H161322   7.323   9.607   9.461
20360WAT     H261323   7.301   9.481   9.563
20361WAT      O61324   7.558   5.396   2.175
20361WAT     H161325   7.573   5.320   2.112
20361WAT     H261326   7.564   5.482   2.125
20362WAT      O61327   7.139   1.099   3.080
20362WAT     H161328   7.180   1.107   2.989
20362WAT     H261329   7.191   1.155   3.145
20363WAT      O61330   1.377   5.722   1.282
20363WAT     H161331   1.317   5.728   1.361
20363WAT     H261332   1.451   5.789   1.291
20364WAT      O61333   4.664   1.467   0.646
20364WAT     H161334   4.643   1.544   0.706
20364WAT     H261335   4.761   1.445   0.653
20365WAT      O61336   3.666   3.718   8.173
20365WAT     H161337   3.684   3.629   8.132
20365WAT     H261338   3.653   3.786   8.101
20366WAT      O61339   0.425   8.733   5.301
20366WAT     H161340   0.360   8.713   5.227
20366WAT     H261341   0.441   8.649   5.354
20367WAT      O61342   9.854   6.496   2.248
20367WAT     H161343   9.848   6.547   2.334
20367WAT     H261344   9.937   6.440   2.248
20368WAT      O61345   3.906   9.646   1.565
20368WAT     H161346   3.807   9.634   1.578
20368WAT     H261347   3.938   9.578   1.499
20369WAT      O61348   1.898   8.389   6.091
20369WAT     H161349   1.882   8.304   6.141
20369WAT     H261350   1.867   8.378   5.996
20370WAT      O61351   0.752   6.007   7.218
20370WAT     H161352   0.769   6.019   7.121
20370WAT     H261353   0.666   6.053   7.243
20371WAT      O61354   1.041   9.378   3.046
20371WAT     H161355   1.098   9.346   2.971
20371WAT     H261356   1.099   9.420   3.116
20372WAT      O61357   8.559   7.874   8.448
20372WAT     H161358   8.471   7.830   8.429
20372WAT     H261359   8.542   7.966   8.485
20373WAT      O61360   3.574   1.809   1.413
20373WAT     H161361   3.565   1.803   1.314
20373WAT     H261362   3.522   1.735   1.456
20374WAT      O61363   2.977   7.841   2.558
20374WAT     H161364   3.059   7.787   2.576
20374WAT     H261365   2.897   7.782   2.562
20375WAT      O61366   7.296   3.599   9.017
20375WAT     H161367   7.274   3.509   8.978
20375WAT     H261368   7.213   3.641   9.052
20376WAT      O61369   1.655   5.781   8.556
20376WAT     H161370   1.604   5.745   8.635
20376WAT     H261371   1.636   5.725   8.476
20377WAT      O61372   9.269   5.917   3.851
20377WAT     H161373   9.172   5.910   3.829
20377WAT     H261374   9.310   5.990   3.795
20378WAT      O61375   4.557   0.686   5.188
20378WAT     H161376   4.556   0.772   5.239
20378WAT     H261377   4.578   0.703   5.092
20379WAT      O61378   2.445   3.625   2.189
20379WAT     H161379   2.425   3.528   2.200
20379WAT     H261380   2.409   3.676   2.267
20380WAT      O61381   6.865   8.621   7.378
20380WAT     H161382   6.798   8.550   7.362
20380WAT     H261383   6.953   8.580   7.402
20381WAT      O61384   2.669   8.961   5.507
20381WAT     H161385   2.647   9.056   5.528
20381WAT     H261386   2.618   8.901   5.569
20382WAT      O61387   9.172   4.308   1.286
20382WAT     H161388   9.109   4.235   1.311
20382WAT     H261389   9.167   4.323   1.187
20383WAT      O61390   0.021   2.521   7.820
20383WAT     H161391  -0.000   2.454   7.891
20383WAT     H261392   0.101   2.492   7.769
20384WAT      O61393   8.157   2.818   4.074
20384WAT     H161394   8.099   2.747   4.115
20384WAT     H261395   8.239   2.829   4.129
20385WAT      O61396   0.495   8.615   0.754
20385WAT     H161397   0.460   8.622   0.847
20385WAT     H261398   0.582   8.566   0.754
20386WAT      O61399   7.923   4.119   6.557
20386WAT     H161400   7.982   4.200   6.554
20386WAT     H261401   7.965   4.049   6.614
20387WAT      O61402   2.306   3.609   1.925
20387WAT     H161403   2.236   3.676   1.900
20387WAT     H261404   2.340   3.627   2.017
20388WAT      O61405   7.121   8.373   0.277
20388WAT     H161406   7.087   8.372   0.183
20388WAT     H261407   7.046   8.393   0.339
20389WAT      O61408   7.576   6.447   4.184
20389WAT     H161409   7.598   6.542   4.206
20389WAT     H261410   7.499   6.417   4.240
20390WAT      O61411   2.119   2.607   3.347
20390WAT     H161412   2.164   2.577   3.263
20390WAT     H261413   2.084   2.700   3.335
20391WAT      O61414   0.367   4.928   6.118
20391WAT     H161415   0.351   4.891   6.026
20391WAT     H261416   0.301   4.887   6.181
20392WAT      O61417   6.837   0.093   6.508
20392WAT     H161418   6.792   0.125   6.591
20392WAT     H261419   6.936   0.101   6.518
20393WAT      O61420   5.006   0.305   7.577
20393WAT     H161421   4.964   0.382   7.625
20393WAT     H261422   5.032   0.235   7.644
20394WAT      O61423   5.667   7.966   3.630
20394WAT     H161424   5.690   7.890   3.691
20394WAT     H261425   5.600   7.935   3.562
20395WAT      O61426   8.961   8.750   1.682
20395WAT     H161427   9.023   8.829   1.689
20395WAT     H261428   8.910   8.756   1.597
20396WAT      O61429   3.344   9.638   1.834
20396WAT     H161430   3.399   9.578   1.892
20396WAT     H261431   3.305   9.585   1.758
20397WAT      O61432   0.451   9.323   5.512
20397WAT     H161433   0.354   9.346   5.510
20397WAT     H261434   0.499   9.376   5.442
20398WAT      O61435   7.288   5.760   8.522
20398WAT     H161436   7.311   5.777   8.426
20398WAT     H261437   7.370   5.733   8.572
20399WAT      O61438   2.597   4.492   2.808
20399WAT     H161439   2.501   4.474   2.787
20399WAT     H261440   2.645   4.523   2.726
20400WAT      O61441   6.062   5.015   0.586
20400WAT     H161442   6.086   4.969   0.501
20400WAT     H261443   6.002   5.093   0.566
20401WAT      O61444   7.443   6.221   3.944
20401WAT     H161445   7.359   6.211   3.892
20401WAT     H261446   7.442   6.158   4.022
20402WAT      O61447   2.057   5.507   7.519
20402WAT     H161448   2.057   5.407   7.510
20402WAT     H261449   2.003   5.533   7.599
20403WAT      O61450   9.366   2.951   6.902
20403WAT     H161451   9.419   2.916   6.825
20403WAT     H261452   9.279   2.988   6.868
20404WAT      O61453   5.576   7.722   1.331
20404WAT     H161454   5.484   7.711   1.294
20404WAT     H261455   5.586   7.815   1.367
20405WAT      O61456   2.515   4.801   1.048
20405WAT     H161457   2.442   4.858   1.011
20405WAT     H261458   2.476   4.719   1.090
20406WAT      O61459   0.151   3.056   3.584
20406WAT     H161460   0.133   2.979   3.522
20406WAT     H261461   0.152   3.141   3.531
20407WAT      O61462   4.820   6.209   7.280
20407WAT     H161463   4.868   6.131   7.240
20407WAT     H261464   4.850   6.222   7.375
20408WAT      O61465   0.293   8.449   9.230
20408WAT     H161466   0.289   8.548   9.215
20408WAT     H261467   0.212   8.421   9.282
20409WAT      O61468   3.542   1.192   2.040
20409WAT     H161469   3.460   1.143   2.071
20409WAT     H261470   3.514   1.267   1.981
20410WAT      O61471   4.031   4.511   3.489
20410WAT     H161472   4.105   4.494   3.554
20410WAT     H261473   3.951   4.545   3.538
20411WAT      O61474   9.183   4.722   5.462
20411WAT     H161475   9.161   4.638   5.512
20411WAT     H261476   9.106   4.747   5.403
20412WAT      O61477   0.224   3.516   8.344
20412WAT     H161478   0.223   3.460   8.261
20412WAT     H261479   0.262   3.463   8.419
20413WAT      O61480   6.898   4.053   3.649
20413WAT     H161481   6.990   4.067   3.612
20413WAT     H261482   6.846   3.994   3.587
20414WAT      O61483   9.822   6.998   1.691
20414WAT     H161484   9.912   7.003   1.647
20414WAT     H261485   9.832   6.966   1.785
20415WAT      O61486   8.935   3.784   0.754
20415WAT     H161487   8.941   3.879   0.723
20415WAT     H261488   8.966   3.778   0.849
20416WAT      O61489   2.526   6.705   3.269
20416WAT     H161490   2.479   6.785   3.230
20416WAT     H261491   2.587   6.665   3.200
20417WAT      O61492   7.560   6.381   0.334
20417WAT     H161493   7.474   6.330   0.332
20417WAT     H261494   7.540   6.479   0.338
20418WAT      O61495   1.617   0.857   5.668
20418WAT     H161496   1.622   0.951   5.633
20418WAT     H261497   1.591   0.795   5.594
20419WAT      O61498   0.762   2.364   2.255
20419WAT     H161499   0.845   2.349   2.201
20419WAT     H261500   0.786   2.387   2.349
20420WAT      O61501   4.451   5.853   0.133
20420WAT     H161502   4.391   5.832   0.056
20420WAT     H261503   4.477   5.950   0.129
20421WAT      O61504   3.593   3.031   9.595
20421WAT     H161505   3.626   3.027   9.689
20421WAT     H261506   3.529   3.107   9.585
20422WAT      O61507   6.513   0.343   1.261
20422WAT     H161508   6.548   0.436   1.276
20422WAT     H261509   6.438   0.346   1.194
20423WAT      O61510   9.218   2.604   0.351
20423WAT     H161511   9.296   2.626   0.293
20423WAT     H261512   9.176   2.690   0.383
20424WAT      O61513   3.725   8.775   0.917
20424WAT     H161514   3.671   8.848   0.874
20424WAT     H261515   3.781   8.814   0.990
20425WAT      O61516   9.011   0.285   1.598
20425WAT     H161517   9.035   0.376   1.563
20425WAT     H261518   9.053   0.215   1.540
20426WAT      O61519   9.034   1.201   5.936
20426WAT     H161520   8.962   1.266   5.914
20426WAT     H261521   9.123   1.243   5.916
20427WAT      O61522   7.483   9.548   5.130
20427WAT     H161523   7.403   9.537   5.072
20427WAT     H261524   7.482   9.638   5.173
20428WAT      O61525   4.890   5.399   9.535
20428WAT     H161526   4.958   5.368   9.601
20428WAT     H261527   4.798   5.374   9.568
20429WAT      O61528   7.691   4.792   8.041
20429WAT     H161529   7.696   4.869   7.977
20429WAT     H261530   7.751   4.809   8.119
20430WAT      O61531   3.521   1.561   6.825
20430WAT     H161532   3.472   1.593   6.906
20430WAT     H261533   3.569   1.476   6.846
20431WAT      O61534   1.787   4.342   6.365
20431WAT     H161535   1.863   4.392   6.406
20431WAT     H261536   1.700   4.385   6.391
20432WAT      O61537   6.479   0.504   5.056
20432WAT     H161538   6.464   0.508   4.957
20432WAT     H261539   6.391   0.505   5.103
20433WAT      O61540   1.734   3.644   3.668
20433WAT     H161541   1.780   3.723   3.630
20433WAT     H261542   1.728   3.652   3.767
20434WAT      O61543   7.815   4.739   6.671
20434WAT     H161544   7.798   4.838   6.680
20434WAT     H261545   7.830   4.699   6.761
20435WAT      O61546   2.877   1.500   7.846
20435WAT     H161547   2.869   1.540   7.937
20435WAT     H261548   2.972   1.479   7.826
20436WAT      O61549   2.636   5.108   9.415
20436WAT     H161550   2.615   5.110   9.317
20436WAT     H261551   2.674   5.195   9.443
20437WAT      O61552   9.359   4.819   0.699
20437WAT     H161553   9.339   4.915   0.678
20437WAT     H261554   9.273   4.768   0.706
20438WAT      O61555   5.826   8.624   2.421
20438WAT     H161556   5.732   8.608   2.449
20438WAT     H261557   5.850   8.720   2.438
20439WAT      O61558   1.868   3.088   6.446
20439WAT     H161559   1.778   3.084   6.402
20439WAT     H261560   1.904   3.181   6.439
20440WAT      O61561   8.010   0.663   1.100
20440WAT     H161562   7.994   0.755   1.134
20440WAT     H261563   7.935   0.637   1.039
20441WAT      O61564   2.935   6.392   6.480
20441WAT     H161565   3.029   6.418   6.503
20441WAT     H261566   2.896   6.339   6.555
20442WAT      O61567   0.880   1.268   2.567
20442WAT     H161568   0.953   1.317   2.614
20442WAT     H261569   0.849   1.322   2.489
20443WAT      O61570   7.864   0.909   4.080
20443WAT     H161571   7.941   0.960   4.042
20443WAT     H261572   7.846   0.941   4.173
20444WAT      O61573   5.770   9.224   4.888
20444WAT     H161574   5.803   9.316   4.910
20444WAT     H261575   5.683   9.230   4.840
20445WAT      O61576   8.942   2.820   5.505
20445WAT     H161577   8.910   2.908   5.539
20445WAT     H261578   9.039   2.808   5.528
20446WAT      O61579   7.101   6.189   0.145
20446WAT     H161580   7.097   6.274   0.092
20446WAT     H261581   7.028   6.127   0.114
20447WAT      O61582   9.810   5.584   4.845
20447WAT     H161583   9.719   5.544   4.856
20447WAT     H261584   9.874   5.515   4.811
20448WAT      O61585   5.930   1.660   3.635
20448WAT     H161586   5.959   1.745   3.591
20448WAT     H261587   5.937   1.670   3.734
20449WAT      O61588   2.499   8.842   8.691
20449WAT     H161589   2.546   8.768   8.644
20449WAT     H261590   2.484   8.917   8.627
20450WAT      O61591   4.820   7.550   5.085
20450WAT     H161592   4.829   7.453   5.065
20450WAT     H261593   4.741   7.587   5.037
20451WAT      O61594   9.571   5.104   4.170
20451WAT     H161595   9.590   5.138   4.078
20451WAT     H261596   9.598   5.008   4.176
20452WAT      O61597   3.754   9.298   6.399
20452WAT     H161598   3.661   9.324   6.426
20452WAT     H261599   3.793   9.371   6.342
20453WAT      O61600   4.071   9.245   7.350
20453WAT     H161601   4.147   9.308   7.345
20453WAT     H261602   4.087   9.180   7.425
20454WAT      O61603   7.765   3.624   3.007
20454WAT     H161604   7.723   3.634   2.917
20454WAT     H261605   7.865   3.629   2.998
20455WAT      O61606   2.900   6.211   8.395
20455WAT     H161607   2.906   6.122   8.439
20455WAT     H261608   2.805   6.231   8.372
20456WAT      O61609   1.625   3.883   9.712
20456WAT     H161610   1.693   3.812   9.726
20456WAT     H261611   1.550   3.847   9.656
20457WAT      O61612   3.185   3.761   1.655
20457WAT     H161613   3.179   3.743   1.557
20457WAT     H261614   3.134   3.691   1.705
20458WAT      O61615   8.294   2.377   4.337
20458WAT     H161616   8.249   2.456   4.379
20458WAT     H261617   8.331   2.404   4.248
20459WAT      O61618   9.008   8.483   6.498
20459WAT     H161619   9.085   8.483   6.433
20459WAT     H261620   8.927   8.520   6.453
20460WAT      O61621   4.054   8.755   7.492
20460WAT     H161622   3.956   8.767   7.506
20460WAT     H261623   4.070   8.699   7.411
20461WAT      O61624   2.641   2.755   5.479
20461WAT     H161625   2.740   2.758   5.467
20461WAT     H261626   2.602   2.686   5.418
20462WAT      O61627   4.091   8.127   3.702
20462WAT     H161628   4.002   8.172   3.708
20462WAT     H261629   4.105   8.070   3.784
20463WAT      O61630   6.822   3.778   8.068
20463WAT     H161631   6.787   3.812   8.155
20463WAT     H261632   6.765   3.811   7.993
20464WAT      O61633   5.118   8.978   7.619
20464WAT     H161634   5.141   8.881   7.609
20464WAT     H261635   5.184   9.021   7.680
20465WAT      O61636   8.966   8.947   7.785
20465WAT     H161637   8.891   8.947   7.851
20465WAT     H261638   8.950   9.018   7.717
20466WAT      O61639   6.772   7.088   9.678
20466WAT     H161640   6.824   7.167   9.647
20466WAT     H261641   6.708   7.061   9.607
20467WAT      O61642   8.259   7.253   6.212
20467WAT     H161643   8.321   7.242   6.134
20467WAT     H261644   8.295   7.325   6.273
20468WAT      O61645   1.530   3.213   7.669
20468WAT     H161646   1.581   3.298   7.654
20468WAT     H261647   1.595   3.137   7.673
20469WAT      O61648   1.644   2.451   6.671
20469WAT     H161649   1.699   2.370   6.691
20469WAT     H261650   1.612   2.491   6.757
20470WAT      O61651   3.612   2.826   2.072
20470WAT     H161652   3.596   2.748   2.012
20470WAT     H261653   3.613   2.796   2.167
20471WAT      O61654   8.184   3.904   1.499
20471WAT     H161655   8.139   3.830   1.549
20471WAT     H261656   8.124   3.983   1.494
20472WAT      O61657   4.555   7.340   6.018
20472WAT     H161658   4.460   7.313   6.030
20472WAT     H261659   4.606   7.322   6.103
20473WAT      O61660   1.195   4.704   5.075
20473WAT     H161661   1.100   4.707   5.045
20473WAT     H261662   1.199   4.692   5.174
20474WAT      O61663   6.071   1.147   9.306
20474WAT     H161664   6.061   1.067   9.364
20474WAT     H261665   6.080   1.118   9.210
20475WAT      O61666   7.528   9.065   8.364
20475WAT     H161667   7.518   8.990   8.430
20475WAT     H261668   7.589   9.134   8.401
20476WAT      O61669   5.118   8.052   8.257
20476WAT     H161670   5.036   8.015   8.299
20476WAT     H261671   5.092   8.117   8.185
20477WAT      O61672   9.630   7.544   8.472
20477WAT     H161673   9.717   7.524   8.517
20477WAT     H261674   9.646   7.551   8.373
20478WAT      O61675   8.224   1.182   9.793
20478WAT     H161676   8.323   1.174   9.797
20478WAT     H261677   8.194   1.260   9.848
20479WAT      O61678   7.979   0.027   5.710
20479WAT     H161679   8.042   0.103   5.726
20479WAT     H261680   7.916   0.018   5.787
20480WAT      O61681   7.214   0.738   7.138
20480WAT     H161682   7.284   0.807   7.156
20480WAT     H261683   7.161   0.723   7.222
20481WAT      O61684   5.447   1.123   7.391
20481WAT     H161685   5.473   1.208   7.345
20481WAT     H261686   5.504   1.111   7.472
20482WAT      O61687   9.130   5.951   3.263
20482WAT     H161688   9.122   5.963   3.362
20482WAT     H261689   9.217   5.988   3.232
20483WAT      O61690   8.400   5.208   3.784
20483WAT     H161691   8.349   5.137   3.736
20483WAT     H261692   8.392   5.295   3.735
20484WAT      O61693   1.376   6.806   8.320
20484WAT     H161694   1.314   6.772   8.250
20484WAT     H261695   1.328   6.811   8.408
20485WAT      O61696   3.537   1.075   9.249
20485WAT     H161697   3.520   0.979   9.275
20485WAT     H261698   3.606   1.077   9.177
20486WAT      O61699   8.274   1.740   5.278
20486WAT     H161700   8.259   1.817   5.216
20486WAT     H261701   8.364   1.748   5.320
20487WAT      O61702   0.146   8.176   9.627
20487WAT     H161703   0.080   8.251   9.638
20487WAT     H261704   0.106   8.107   9.567
20488WAT      O61705   1.869   8.370   1.869
20488WAT     H161706   1.919   8.320   1.940
20488WAT     H261707   1.928   8.385   1.790
20489WAT      O61708   6.829   5.501   5.294
20489WAT     H161709   6.795   5.581   5.343
20489WAT     H261710   6.768   5.478   5.219
20490WAT      O61711   3.779   4.617   1.276
20490WAT     H161712   3.871   4.654   1.277
20490WAT     H261713   3.713   4.692   1.270
20491WAT      O61714   4.612   6.238   8.124
20491WAT     H161715   4.648   6.188   8.045
20491WAT     H261716   4.608   6.177   8.203
20492WAT      O61717   2.637   4.462   3.428
20492WAT     H161718   2.693   4.466   3.511
20492WAT     H261719   2.693   4.481   3.348
20493WAT      O61720   9.828   0.413   7.115
20493WAT     H161721   9.733   0.402   7.143
20493WAT     H261722   9.848   0.511   7.105
20494WAT      O61723   5.504   8.093   2.165
20494WAT     H161724   5.537   7.999   2.154
20494WAT     H261725   5.472   8.106   2.259
20495WAT      O61726   6.570   6.029   5.878
20495WAT     H161727   6.619   6.054   5.793
20495WAT     H261728   6.558   6.111   5.934
20496WAT      O61729   8.574   9.810   4.633
20496WAT     H161730   8.537   9.807   4.540
20496WAT     H261731   8.593   9.904   4.659
20497WAT      O61732   5.543   3.798   7.164
20497WAT     H161733   5.527   3.862   7.089
20497WAT     H261734   5.554   3.706   7.128
20498WAT      O61735   2.997   1.121   4.491
20498WAT     H161736   2.944   1.183   4.434
20498WAT     H261737   3.036   1.171   4.568
20499WAT      O61738   9.078   1.400   4.461
20499WAT     H161739   8.979   1.399   4.470
20499WAT     H261740   9.113   1.306   4.464
20500WAT      O61741   0.118   0.302   5.356
20500WAT     H161742   0.064   0.333   5.435
20500WAT     H261743   0.114   0.202   5.351
20501WAT      O61744   0.428   3.664   3.282
20501WAT     H161745   0.453   3.743   3.226
20501WAT     H261746   0.493   3.590   3.265
20502WAT      O61747   8.404   4.349   5.654
20502WAT     H161748   8.441   4.433   5.693
20502WAT     H261749   8.400   4.278   5.724
20503WAT      O61750   6.175   1.832   9.753
20503WAT     H161751   6.239   1.821   9.830
20503WAT     H261752   6.196   1.764   9.683
20504WAT      O61753   2.960   9.757   5.028
20504WAT     H161754   3.007   9.763   5.116
20504WAT     H261755   2.970   9.843   4.979
20505WAT      O61756   4.119   1.048   6.832
20505WAT     H161757   4.186   1.030   6.904
20505WAT     H261758   4.090   0.961   6.792
20506WAT      O61759   8.785   1.595   3.727
20506WAT     H161760   8.708   1.619   3.785
20506WAT     H261761   8.869   1.593   3.781
20507WAT      O61762   3.361   8.078   8.456
20507WAT     H161763   3.321   8.071   8.364
20507WAT     H261764   3.293   8.049   8.524
20508WAT      O61765   7.482   4.652   7.682
20508WAT     H161766   7.437   4.694   7.761
20508WAT     H261767   7.567   4.701   7.663
20509WAT      O61768   1.802   3.000   0.523
20509WAT     H161769   1.777   3.096   0.534
20509WAT     H261770   1.894   2.985   0.560
20510WAT      O61771   5.851   7.948   6.857
20510WAT     H161772   5.855   8.015   6.783
20510WAT     H261773   5.816   7.861   6.822
20511WAT      O61774   0.605   3.360   7.630
20511WAT     H161775   0.550   3.276   7.628
20511WAT     H261776   0.661   3.360   7.713
20512WAT      O61777   4.926   8.273   6.098
20512WAT     H161778   4.993   8.346   6.086
20512WAT     H261779   4.857   8.301   6.165
20513WAT      O61780   6.491   3.599   4.399
20513WAT     H161781   6.484   3.544   4.316
20513WAT     H261782   6.585   3.634   4.408
20514WAT      O61783   9.300   4.575   6.533
20514WAT     H161784   9.370   4.570   6.462
20514WAT     H261785   9.211   4.552   6.494
20515WAT      O61786   1.482   9.018   3.266
20515WAT     H161787   1.572   9.003   3.227
20515WAT     H261788   1.481   8.988   3.362
20516WAT      O61789   5.927   8.237   3.140
20516WAT     H161790   5.917   8.327   3.183
20516WAT     H261791   5.996   8.240   3.069
20517WAT      O61792   5.803   5.685   0.836
20517WAT     H161793   5.722   5.628   0.846
20517WAT     H261794   5.810   5.747   0.915
20518WAT      O61795   5.558   1.370   8.897
20518WAT     H161796   5.577   1.306   8.971
20518WAT     H261797   5.511   1.322   8.822
20519WAT      O61798   3.857   2.611   5.723
20519WAT     H161799   3.859   2.543   5.649
20519WAT     H261800   3.769   2.659   5.723
20520WAT      O61801   3.476   6.618   4.834
20520WAT     H161802   3.388   6.645   4.795
20520WAT     H261803   3.499   6.679   4.910
20521WAT      O61804   5.670   6.264   7.926
20521WAT     H161805   5.689   6.214   8.011
20521WAT     H261806   5.729   6.344   7.920
20522WAT      O61807   9.575   3.363   4.849
20522WAT     H161808   9.563   3.454   4.808
20522WAT     H261809   9.498   3.305   4.824
20523WAT      O61810   2.750   7.128   6.093
20523WAT     H161811   2.820   7.130   6.165
20523WAT     H261812   2.671   7.181   6.122
20524WAT      O61813   4.835   7.460   7.131
20524WAT     H161814   4.824   7.547   7.082
20524WAT     H261815   4.758   7.448   7.194
20525WAT      O61816   1.811   1.810   9.181
20525WAT     H161817   1.827   1.802   9.083
20525WAT     H261818   1.721   1.772   9.203
20526WAT      O61819   3.371   1.524   6.531
20526WAT     H161820   3.404   1.523   6.625
20526WAT     H261821   3.448   1.530   6.468
20527WAT      O61822   5.975   0.622   2.715
20527WAT     H161823   5.882   0.595   2.690
20527WAT     H261824   5.990   0.718   2.691
20528WAT      O61825   0.111   0.168   3.617
20528WAT     H161826   0.172   0.180   3.695
20528WAT     H261827   0.022   0.210   3.636
20529WAT      O61828   6.307   0.395   3.233
20529WAT     H161829   6.342   0.305   3.259
20529WAT     H261830   6.358   0.428   3.153
20530WAT      O61831   9.755   8.102   8.324
20530WAT     H161832   9.718   8.165   8.255
20530WAT     H261833   9.737   8.008   8.296
20531WAT      O61834   0.987   5.751   4.533
20531WAT     H161835   0.999   5.656   4.505
20531WAT     H261836   1.077   5.794   4.543
20532WAT      O61837   7.239   8.194   0.596
20532WAT     H161838   7.232   8.179   0.498
20532WAT     H261839   7.296   8.123   0.637
20533WAT      O61840   1.444   1.116   9.794
20533WAT     H161841   1.406   1.197   9.749
20533WAT     H261842   1.505   1.068   9.731
20534WAT      O61843   6.636   0.028   2.134
20534WAT     H161844   6.709  -0.022   2.180
20534WAT     H261845   6.556  -0.032   2.123
20535WAT      O61846   2.155   5.301   3.522
20535WAT     H161847   2.148   5.202   3.514
20535WAT     H261848   2.066   5.339   3.549
20536WAT      O61849   3.889   7.676   7.189
20536WAT     H161850   3.793   7.706   7.180
20536WAT     H261851   3.892   7.576   7.193
20537WAT      O61852   5.413   6.396   0.401
20537WAT     H161853   5.403   6.304   0.363
20537WAT     H261854   5.492   6.441   0.359
20538WAT      O61855   8.961   1.097   8.411
20538WAT     H161856   8.920   1.029   8.472
20538WAT     H261857   8.964   1.060   8.318
20539WAT      O61858   4.257   0.534   0.467
20539WAT     H161859   4.305   0.455   0.429
20539WAT     H261860   4.320   0.587   0.523
20540WAT      O61861   9.436   8.215   3.081
20540WAT     H161862   9.526   8.233   3.121
20540WAT     H261863   9.441   8.222   2.981
20541WAT      O61864   6.503   6.836   7.229
20541WAT     H161865   6.496   6.909   7.161
20541WAT     H261866   6.585   6.850   7.285
20542WAT      O61867   7.217   7.577   1.476
20542WAT     H161868   7.303   7.530   1.458
20542WAT     H261869   7.165   7.585   1.391
20543WAT      O61870   0.896   8.981   2.671
20543WAT     H161871   0.828   8.943   2.609
20543WAT     H261872   0.933   8.908   2.729
20544WAT      O61873   9.235   8.334   1.726
20544WAT     H161874   9.225   8.245   1.771
20544WAT     H261875   9.307   8.386   1.772
20545WAT      O61876   9.687   5.954   3.833
20545WAT     H161877   9.753   5.975   3.905
20545WAT     H261878   9.662   6.039   3.786
20546WAT      O61879   6.217   2.962   8.219
20546WAT     H161880   6.209   2.865   8.198
20546WAT     H261881   6.127   3.005   8.213
20547WAT      O61882   3.400   0.370   0.178
20547WAT     H161883   3.418   0.373   0.276
20547WAT     H261884   3.389   0.275   0.148
20548WAT      O61885   2.674   6.276   1.074
20548WAT     H161886   2.680   6.356   1.133
20548WAT     H261887   2.751   6.215   1.093
20549WAT      O61888   2.440   4.306   7.530
20549WAT     H161889   2.493   4.365   7.591
20549WAT     H261890   2.427   4.353   7.443
20550WAT      O61891   9.095   8.958   4.396
20550WAT     H161892   9.143   8.977   4.311
20550WAT     H261893   9.093   8.860   4.413
20551WAT      O61894   9.459   4.132   4.002
20551WAT     H161895   9.526   4.082   3.947
20551WAT     H261896   9.389   4.069   4.034
20552WAT      O61897   3.832   5.690   1.583
20552WAT     H161898   3.836   5.653   1.490
20552WAT     H261899   3.923   5.720   1.611
20553WAT      O61900   4.203   9.255   3.997
20553WAT     H161901   4.168   9.170   3.959
20553WAT     H261902   4.270   9.295   3.933
20554WAT      O61903   7.977   0.298   9.174
20554WAT     H161904   8.057   0.337   9.220
20554WAT     H261905   7.896   0.308   9.232
20555WAT      O61906   8.156   5.693   1.444
20555WAT     H161907   8.233   5.635   1.471
20555WAT     H261908   8.164   5.718   1.348
20556WAT      O61909   6.124   4.119   4.080
20556WAT     H161910   6.137   4.028   4.119
20556WAT     H261911   6.031   4.127   4.044
20557WAT      O61912   0.646   0.067   9.796
20557WAT     H161913   0.626  -0.031   9.794
20557WAT     H261914   0.582   0.115   9.737
20558WAT      O61915   8.964   2.634   2.072
20558WAT     H161916   8.987   2.569   2.145
20558WAT     H261917   9.023   2.714   2.079
20559WAT      O61918   5.724   5.193   0.853
20559WAT     H161919   5.748   5.101   0.885
20559WAT     H261920   5.634   5.218   0.890
20560WAT      O61921   3.818   5.720   5.676
20560WAT     H161922   3.869   5.642   5.640
20560WAT     H261923   3.782   5.774   5.600
20561WAT      O61924   6.386   9.028   0.183
20561WAT     H161925   6.314   9.073   0.238
20561WAT     H261926   6.359   8.934   0.164
20562WAT      O61927   0.062   5.137   6.420
20562WAT     H161928   0.108   5.222   6.443
20562WAT     H261929   0.076   5.116   6.323
20563WAT      O61930   6.847   6.808   7.133
20563WAT     H161931   6.932   6.852   7.103
20563WAT     H261932   6.779   6.878   7.155
20564WAT      O61933   1.243   8.684   5.166
20564WAT     H161934   1.273   8.750   5.235
20564WAT     H261935   1.151   8.652   5.189
20565WAT      O61936   0.690   5.072   1.757
20565WAT     H161937   0.656   4.986   1.719
20565WAT     H261938   0.790   5.075   1.748
20566WAT      O61939   2.781   9.434   3.652
20566WAT     H161940   2.810   9.401   3.563
20566WAT     H261941   2.794   9.533   3.657
20567WAT      O61942   0.569   1.392   5.003
20567WAT     H161943   0.627   1.392   4.921
20567WAT     H261944   0.494   1.326   4.991
20568WAT      O61945   7.703   1.917   2.916
20568WAT     H161946   7.701   1.817   2.906
20568WAT     H261947   7.742   1.941   3.005
20569WAT      O61948   3.966   7.259   8.637
20569WAT     H161949   4.045   7.308   8.602
20569WAT     H261950   3.940   7.187   8.572
20570WAT      O61951   5.842   4.810   8.680
20570WAT     H161952   5.811   4.834   8.772
20570WAT     H261953   5.931   4.764   8.686
20571WAT      O61954   7.416   8.057   4.535
20571WAT     H161955   7.380   8.123   4.469
20571WAT     H261956   7.513   8.075   4.550
20572WAT      O61957   7.107   7.474   9.096
20572WAT     H161958   7.187   7.480   9.036
20572WAT     H261959   7.135   7.483   9.192
20573WAT      O61960   3.108   6.075   2.821
20573WAT     H161961   3.048   6.148   2.852
20573WAT     H261962   3.193   6.077   2.874
20574WAT      O61963   8.077   4.923   7.918
20574WAT     H161964   7.990   4.957   7.882
20574WAT     H261965   8.153   4.968   7.872
20575WAT      O61966   3.592   4.887   9.515
20575WAT     H161967   3.662   4.929   9.458
20575WAT     H261968   3.595   4.788   9.505
20576WAT      O61969   7.659   7.323   3.251
20576WAT     H161970   7.643   7.411   3.297
20576WAT     H261971   7.579   7.264   3.263
20577WAT      O61972   5.582   0.785   2.857
20577WAT     H161973   5.660   0.774   2.919
20577WAT     H261974   5.614   0.814   2.767
20578WAT      O61975   4.580   5.661   6.752
20578WAT     H161976   4.516   5.647   6.828
20578WAT     H261977   4.623   5.574   6.728
20579WAT      O61978   3.150   6.933   2.353
20579WAT     H161979   3.171   7.030   2.362
20579WAT     H261980   3.178   6.901   2.262
20580WAT      O61981   8.171   4.574   9.777
20580WAT     H161982   8.249   4.550   9.720
20580WAT     H261983   8.112   4.638   9.727
20581WAT      O61984   7.482   9.406   8.507
20581WAT     H161985   7.481   9.361   8.597
20581WAT     H261986   7.564   9.378   8.457
20582WAT      O61987   9.818   7.894   4.626
20582WAT     H161988   9.808   7.812   4.682
20582WAT     H261989   9.877   7.873   4.548
20583WAT      O61990   9.220   6.456   5.592
20583WAT     H161991   9.251   6.537   5.542
20583WAT     H261992   9.121   6.448   5.584
20584WAT      O61993   5.484   3.794   8.942
20584WAT     H161994   5.446   3.716   8.893
20584WAT     H261995   5.509   3.765   9.035
20585WAT      O61996   8.868   8.622   2.536
20585WAT     H161997   8.964   8.646   2.542
20585WAT     H261998   8.824   8.674   2.463
20586WAT      O61999   6.363   3.683   6.266
20586WAT     H162000   6.421   3.630   6.328
20586WAT     H262001   6.278   3.707   6.312
20587WAT      O62002   7.219   9.323   2.128
20587WAT     H162003   7.300   9.328   2.070
20587WAT     H262004   7.188   9.416   2.150
20588WAT      O62005   1.523   5.822   6.906
20588WAT     H162006   1.544   5.823   6.808
20588WAT     H262007   1.508   5.727   6.936
20589WAT      O62008   1.266   1.695   5.088
20589WAT     H162009   1.244   1.669   4.993
20589WAT     H262010   1.234   1.788   5.105
20590WAT      O62011   0.616   8.855   3.825
20590WAT     H162012   0.660   8.920   3.763
20590WAT     H262013   0.685   8.791   3.860
20591WAT      O62014   1.973   7.328   8.830
20591WAT     H162015   1.922   7.392   8.888
20591WAT     H262016   1.948   7.343   8.735
20592WAT      O62017   9.224   9.001   5.893
20592WAT     H162018   9.222   8.915   5.842
20592WAT     H262019   9.140   9.011   5.945
20593WAT      O62020   8.933   1.981   5.660
20593WAT     H162021   8.856   1.976   5.596
20593WAT     H262022   8.941   2.074   5.696
20594WAT      O62023   1.670   1.763   4.469
20594WAT     H162024   1.572   1.744   4.457
20594WAT     H262025   1.682   1.860   4.489
20595WAT      O62026   7.826   7.482   4.736
20595WAT     H162027   7.869   7.413   4.678
20595WAT     H262028   7.886   7.562   4.742
20596WAT      O62029   6.583   0.687   8.552
20596WAT     H162030   6.597   0.718   8.646
20596WAT     H262031   6.485   0.677   8.534
20597WAT      O62032   1.277   0.072   3.085
20597WAT     H162033   1.312   0.031   3.001
20597WAT     H262034   1.305   0.168   3.090
20598WAT      O62035   7.562   3.996   9.766
20598WAT     H162036   7.554   4.065   9.838
20598WAT     H262037   7.539   4.037   9.678
20599WAT      O62038   1.786   7.937   4.852
20599WAT     H162039   1.714   7.879   4.817
20599WAT     H262040   1.871   7.921   4.801
20600WAT      O62041   6.989   1.448   6.832
20600WAT     H162042   6.982   1.546   6.849
20600WAT     H262043   7.043   1.405   6.904
20601WAT      O62044   7.353   4.070   0.197
20601WAT     H162045   7.418   4.070   0.274
20601WAT     H262046   7.332   3.976   0.171
20602WAT      O62047   5.974   1.397   3.961
20602WAT     H162048   5.889   1.346   3.944
20602WAT     H262049   5.964   1.491   3.927
20603WAT      O62050   8.218   2.327   5.470
20603WAT     H162051   8.193   2.230   5.467
20603WAT     H262052   8.163   2.378   5.404
20604WAT      O62053   8.198   2.954   5.448
20604WAT     H162054   8.137   2.933   5.372
20604WAT     H262055   8.165   3.036   5.495
20605WAT      O62056   0.023   4.388   9.809
20605WAT     H162057  -0.027   4.332   9.742
20605WAT     H262058   0.117   4.356   9.816
20606WAT      O62059   8.108   8.570   0.932
20606WAT     H162060   8.105   8.668   0.952
20606WAT     H262061   8.070   8.553   0.841
20607WAT      O62062   6.706   2.998   0.474
20607WAT     H162063   6.715   2.935   0.550
20607WAT     H262064   6.616   3.042   0.478
20608WAT      O62065   3.121   7.266   3.334
20608WAT     H162066   3.081   7.354   3.359
20608WAT     H262067   3.214   7.260   3.370
20609WAT      O62068   4.906   9.626   4.854
20609WAT     H162069   4.952   9.542   4.881
20609WAT     H262070   4.850   9.608   4.773
20610WAT      O62071   1.259   5.092   8.821
20610WAT     H162072   1.332   5.049   8.768
20610WAT     H262073   1.189   5.126   8.758
20611WAT      O62074   9.192   6.699   6.685
20611WAT     H162075   9.237   6.617   6.650
20611WAT     H262076   9.216   6.778   6.628
20612WAT      O62077   5.725   2.616   6.738
20612WAT     H162078   5.744   2.612   6.837
20612WAT     H262079   5.762   2.701   6.701
20613WAT      O62080   8.765   1.368   0.578
20613WAT     H162081   8.674   1.361   0.617
20613WAT     H262082   8.834   1.353   0.649
20614WAT      O62083   1.709   9.458   3.587
20614WAT     H162084   1.645   9.402   3.534
20614WAT     H262085   1.658   9.527   3.639
20615WAT      O62086   3.969   5.847   2.774
20615WAT     H162087   3.898   5.899   2.727
20615WAT     H262088   4.057   5.891   2.760
20616WAT      O62089   3.383   5.561   0.957
20616WAT     H162090   3.297   5.573   1.006
20616WAT     H262091   3.423   5.473   0.980
20617WAT      O62092   9.434   3.570   5.820
20617WAT     H162093   9.516   3.530   5.779
20617WAT     H262094   9.451   3.667   5.838
20618WAT      O62095   6.831   6.683   6.454
20618WAT     H162096   6.914   6.729   6.424
20618WAT     H262097   6.847   6.585   6.457
20619WAT      O62098   1.860   6.355   4.789
20619WAT     H162099   1.832   6.275   4.841
20619WAT     H262100   1.929   6.328   4.721
20620WAT      O62101   3.014   1.811   6.518
20620WAT     H162102   3.000   1.901   6.560
20620WAT     H262103   2.946   1.747   6.553
20621WAT      O62104   3.908   8.261   5.116
20621WAT     H162105   3.915   8.177   5.062
20621WAT     H262106   3.881   8.237   5.210
20622WAT      O62107   0.154   2.922   8.302
20622WAT     H162108   0.090   2.924   8.379
20622WAT     H262109   0.248   2.922   8.336
20623WAT      O62110   0.159   2.997   5.462
20623WAT     H162111   0.213   3.047   5.530
20623WAT     H262112   0.148   3.054   5.380
20624WAT      O62113   3.915   6.202   0.639
20624WAT     H162114   3.861   6.140   0.582
20624WAT     H262115   3.854   6.266   0.685
20625WAT      O62116   5.987   0.777   5.332
20625WAT     H162117   5.909   0.834   5.308
20625WAT     H262118   6.014   0.721   5.253
20626WAT      O62119   0.769   8.827   5.098
20626WAT     H162120   0.723   8.740   5.083
20626WAT     H262121   0.715   8.901   5.057
20627WAT      O62122   8.087   6.834   4.628
20627WAT     H162123   8.114   6.901   4.697
20627WAT     H262124   8.114   6.742   4.657
20628WAT      O62125   0.180   7.459   2.997
20628WAT     H162126   0.248   7.406   3.048
20628WAT     H262127   0.110   7.398   2.960
20629WAT      O62128   2.402   7.823   6.810
20629WAT     H162129   2.369   7.729   6.798
20629WAT     H262130   2.331   7.876   6.856
20630WAT      O62131   5.937   0.027   0.483
20630WAT     H162132   5.888   0.052   0.566
20630WAT     H262133   6.032   0.005   0.505
20631WAT      O62134   8.210   9.769   8.368
20631WAT     H162135   8.275   9.761   8.444
20631WAT     H262136   8.162   9.683   8.355
20632WAT      O62137   7.044   5.821   8.888
20632WAT     H162138   7.009   5.742   8.837
20632WAT     H262139   7.107   5.872   8.830
20633WAT      O62140   9.675   0.385   8.874
20633WAT     H162141   9.675   0.475   8.918
20633WAT     H262142   9.769   0.358   8.854
20634WAT      O62143   5.588   2.169   3.243
20634WAT     H162144   5.625   2.247   3.293
20634WAT     H262145   5.662   2.105   3.221
20635WAT      O62146   5.324   4.725   9.139
20635WAT     H162147   5.401   4.671   9.173
20635WAT     H262148   5.284   4.679   9.059
20636WAT      O62149   4.014   3.532   6.765
20636WAT     H162150   3.921   3.568   6.758
20636WAT     H262151   4.066   3.557   6.684
20637WAT      O62152   8.161   8.009   4.984
20637WAT     H162153   8.229   8.081   4.975
20637WAT     H262154   8.092   8.035   5.052
20638WAT      O62155   2.055   9.322   3.464
20638WAT     H162156   2.018   9.334   3.371
20638WAT     H262157   2.036   9.405   3.518
20639WAT      O62158   8.833   2.441   6.297
20639WAT     H162159   8.915   2.494   6.320
20639WAT     H262160   8.757   2.503   6.278
20640WAT      O62161   4.952   7.476   2.314
20640WAT     H162162   4.984   7.554   2.261
20640WAT     H262163   4.872   7.436   2.269
20641WAT      O62164   8.666   4.128   5.541
20641WAT     H162165   8.669   4.123   5.641
20641WAT     H262166   8.700   4.217   5.510
20642WAT      O62167   2.043   7.653   6.785
20642WAT     H162168   2.126   7.602   6.807
20642WAT     H262169   2.065   7.729   6.724
20643WAT      O62170   8.544   2.872   7.704
20643WAT     H162171   8.475   2.876   7.776
20643WAT     H262172   8.499   2.873   7.614
20644WAT      O62173   5.222   5.629   9.031
20644WAT     H162174   5.281   5.567   9.082
20644WAT     H262175   5.149   5.662   9.091
20645WAT      O62176   6.692   0.280   2.401
20645WAT     H162177   6.675   0.370   2.362
20645WAT     H262178   6.783   0.248   2.375
20646WAT      O62179   6.485   2.865   3.119
20646WAT     H162180   6.430   2.838   3.040
20646WAT     H262181   6.433   2.928   3.176
20647WAT      O62182   6.119   3.727   7.872
20647WAT     H162183   6.073   3.790   7.810
20647WAT     H262184   6.183   3.778   7.930
20648WAT      O62185   7.973   3.321   6.534
20648WAT     H162186   7.918   3.390   6.581
20648WAT     H262187   8.002   3.358   6.445
20649WAT      O62188   8.786   3.917   5.833
20649WAT     H162189   8.883   3.909   5.809
20649WAT     H262190   8.772   3.882   5.925
20650WAT      O62191   6.586   7.125   1.608
20650WAT     H162192   6.574   7.036   1.652
20650WAT     H262193   6.624   7.111   1.516
20651WAT      O62194   0.433   1.180   6.655
20651WAT     H162195   0.478   1.208   6.570
20651WAT     H262196   0.334   1.191   6.646
20652WAT      O62197   2.216   5.805   9.444
20652WAT     H162198   2.249   5.801   9.349
20652WAT     H262199   2.294   5.816   9.505
20653WAT      O62200   1.707   9.681   3.341
20653WAT     H162201   1.758   9.682   3.426
20653WAT     H262202   1.768   9.658   3.265
20654WAT      O62203   5.144   2.608   5.810
20654WAT     H162204   5.218   2.627   5.746
20654WAT     H262205   5.063   2.580   5.759
20655WAT      O62206   8.100   1.504   7.056
20655WAT     H162207   8.134   1.591   7.093
20655WAT     H262208   8.075   1.444   7.131
20656WAT      O62209   1.432   9.052   2.163
20656WAT     H162210   1.455   9.089   2.253
20656WAT     H262211   1.379   9.121   2.112
20657WAT      O62212   9.561   6.936   3.891
20657WAT     H162213   9.527   7.025   3.924
20657WAT     H262214   9.653   6.948   3.853
20658WAT      O62215   8.679   6.632   8.799
20658WAT     H162216   8.653   6.590   8.712
20658WAT     H262217   8.674   6.564   8.872
20659WAT      O62218   9.619   5.670   5.662
20659WAT     H162219   9.675   5.667   5.745
20659WAT     H262220   9.634   5.757   5.615
20660WAT      O62221   0.159   6.050   1.207
20660WAT     H162222   0.191   5.958   1.228
20660WAT     H262223   0.067   6.045   1.169
20661WAT      O62224   2.253   7.546   3.292
20661WAT     H162225   2.220   7.454   3.312
20661WAT     H262226   2.319   7.543   3.217
20662WAT      O62227   6.103   0.977   7.723
20662WAT     H162228   6.144   0.906   7.666
20662WAT     H262229   6.074   0.938   7.810
20663WAT      O62230   1.509   2.952   4.882
20663WAT     H162231   1.540   3.026   4.822
20663WAT     H262232   1.462   2.882   4.828
20664WAT      O62233   8.650   7.199   7.521
20664WAT     H162234   8.581   7.272   7.527
20664WAT     H262235   8.636   7.135   7.597
20665WAT      O62236   0.165   6.518   3.241
20665WAT     H162237   0.181   6.444   3.307
20665WAT     H262238   0.112   6.590   3.284
20666WAT      O62239   0.084   4.155   4.349
20666WAT     H162240   0.164   4.202   4.312
20666WAT     H262241   0.068   4.184   4.443
20667WAT      O62242   5.081   6.853   9.198
20667WAT     H162243   5.135   6.818   9.274
20667WAT     H262244   5.104   6.949   9.183
20668WAT      O62245   4.380   4.271   0.543
20668WAT     H162246   4.354   4.326   0.622
20668WAT     H262247   4.306   4.271   0.476
20669WAT      O62248   2.719   9.221   8.006
20669WAT     H162249   2.745   9.282   8.081
20669WAT     H262250   2.647   9.159   8.037
20670WAT      O62251   5.493   5.766   0.888
20670WAT     H162252   5.505   5.682   0.834
20670WAT     H262253   5.573   5.824   0.877
20671WAT      O62254   2.738   1.113   9.751
20671WAT     H162255   2.647   1.144   9.725
20671WAT     H262256   2.796   1.191   9.771
20672WAT      O62257   0.933   3.970   4.380
20672WAT     H162258   1.027   3.983   4.348
20672WAT     H262259   0.922   3.877   4.416
20673WAT      O62260   7.849   5.451   8.438
20673WAT     H162261   7.843   5.539   8.485
20673WAT     H262262   7.766   5.435   8.384
20674WAT      O62263   6.653   9.131   6.662
20674WAT     H162264   6.731   9.093   6.712
20674WAT     H262265   6.686   9.199   6.597
20675WAT      O62266   1.937   5.631   3.119
20675WAT     H162267   1.970   5.598   3.030
20675WAT     H262268   1.906   5.725   3.110
20676WAT      O62269   3.838   2.791   6.899
20676WAT     H162270   3.796   2.800   6.809
20676WAT     H262271   3.889   2.705   6.904
20677WAT      O62272   0.279   4.547   6.181
20677WAT     H162273   0.224   4.515   6.258
20677WAT     H262274   0.272   4.646   6.174
20678WAT      O62275   0.901   4.476   8.028
20678WAT     H162276   0.829   4.539   8.058
20678WAT     H262277   0.963   4.525   7.967
20679WAT      O62278   0.623   5.635   3.315
20679WAT     H162279   0.643   5.568   3.386
20679WAT     H262280   0.525   5.634   3.295
20680WAT      O62281   2.503   3.862   6.543
20680WAT     H162282   2.470   3.955   6.555
20680WAT     H262283   2.541   3.851   6.451
20681WAT      O62284   5.465   9.739   8.679
20681WAT     H162285   5.509   9.789   8.604
20681WAT     H262286   5.479   9.641   8.667
20682WAT      O62287   8.304   2.116   4.336
20682WAT     H162288   8.301   2.072   4.246
20682WAT     H262289   8.282   2.213   4.326
20683WAT      O62290   4.750   7.342   5.615
20683WAT     H162291   4.690   7.421   5.604
20683WAT     H262292   4.790   7.319   5.526
20684WAT      O62293   2.926   5.466   2.647
20684WAT     H162294   2.994   5.513   2.704
20684WAT     H262295   2.973   5.400   2.588
20685WAT      O62296   8.213   7.484   3.125
20685WAT     H162297   8.302   7.442   3.111
20685WAT     H262298   8.169   7.443   3.205
20686WAT      O62299   5.362   8.007   3.034
20686WAT     H162300   5.272   8.045   3.053
20686WAT     H262301   5.380   8.010   2.935
20687WAT      O62302   6.463   9.477   9.277
20687WAT     H162303   6.549   9.520   9.304
20687WAT     H262304   6.428   9.521   9.194
20688WAT      O62305   4.449   1.230   1.463
20688WAT     H162306   4.350   1.226   1.449
20688WAT     H262307   4.495   1.179   1.391
20689WAT      O62308   9.013   5.718   7.649
20689WAT     H162309   9.083   5.653   7.620
20689WAT     H262310   9.056   5.797   7.692
20690WAT      O62311   2.910   5.356   8.934
20690WAT     H162312   2.961   5.426   8.883
20690WAT     H262313   2.834   5.323   8.877
20691WAT      O62314   7.458   0.095   0.058
20691WAT     H162315   7.453   0.011   0.005
20691WAT     H262316   7.480   0.074   0.153
20692WAT      O62317   7.326   8.064   1.028
20692WAT     H162318   7.265   8.044   1.104
20692WAT     H262319   7.314   8.160   1.000
20693WAT      O62320   2.264   3.545   8.388
20693WAT     H162321   2.237   3.597   8.307
20693WAT     H262322   2.359   3.568   8.412
20694WAT      O62323   7.089   6.508   8.535
20694WAT     H162324   7.001   6.471   8.508
20694WAT     H262325   7.090   6.607   8.520
20695WAT      O62326   6.616   3.422   4.825
20695WAT     H162327   6.532   3.410   4.773
20695WAT     H262328   6.695   3.419   4.763
20696WAT      O62329   7.830   0.014   0.082
20696WAT     H162330   7.887  -0.034   0.016
20696WAT     H262331   7.751  -0.043   0.106
20697WAT      O62332   8.340   3.116   0.382
20697WAT     H162333   8.295   3.079   0.301
20697WAT     H262334   8.271   3.148   0.447
20698WAT      O62335   4.533   9.774   3.383
20698WAT     H162336   4.538   9.821   3.472
20698WAT     H262337   4.580   9.686   3.389
20699WAT      O62338   4.642   7.508   8.911
20699WAT     H162339   4.601   7.561   8.986
20699WAT     H262340   4.642   7.562   8.828
20700WAT      O62341   7.258   2.494   1.841
20700WAT     H162342   7.257   2.503   1.941
20700WAT     H262343   7.326   2.426   1.814
20701WAT      O62344   1.033   0.660   1.732
20701WAT     H162345   0.987   0.722   1.669
20701WAT     H262346   1.119   0.700   1.762
20702WAT      O62347   2.626   3.906   9.715
20702WAT     H162348   2.621   3.806   9.704
20702WAT     H262349   2.666   3.927   9.805
20703WAT      O62350   1.158   3.863   4.866
20703WAT     H162351   1.115   3.868   4.956
20703WAT     H262352   1.162   3.768   4.835
20704WAT      O62353   8.250   0.693   0.754
20704WAT     H162354   8.235   0.753   0.833
20704WAT     H262355   8.331   0.636   0.771
20705WAT      O62356   8.508   5.970   8.488
20705WAT     H162357   8.588   6.023   8.515
20705WAT     H262358   8.450   5.955   8.569
20706WAT      O62359   6.140   9.808   3.894
20706WAT     H162360   6.056   9.755   3.903
20706WAT     H262361   6.119   9.900   3.862
20707WAT      O62362   7.777   2.584   1.039
20707WAT     H162363   7.786   2.670   1.089
20707WAT     H262364   7.860   2.568   0.985
20708WAT      O62365   0.370   8.202   7.394
20708WAT     H162366   0.430   8.158   7.461
20708WAT     H262367   0.276   8.171   7.407
20709WAT      O62368   1.592   8.696   3.065
20709WAT     H162369   1.618   8.673   2.971
20709WAT     H262370   1.494   8.678   3.078
20710WAT      O62371   2.509   3.557   6.394
20710WAT     H162372   2.495   3.560   6.493
20710WAT     H262373   2.527   3.649   6.359
20711WAT      O62374   3.482   8.775   3.999
20711WAT     H162375   3.556   8.806   3.940
20711WAT     H262376   3.519   8.741   4.085
20712WAT      O62377   7.638   9.280   5.596
20712WAT     H162378   7.563   9.339   5.567
20712WAT     H262379   7.699   9.331   5.656
20713WAT      O62380   8.273   8.412   4.879
20713WAT     H162381   8.187   8.449   4.915
20713WAT     H262382   8.339   8.487   4.868
20714WAT      O62383   8.698   0.722   7.501
20714WAT     H162384   8.753   0.657   7.554
20714WAT     H262385   8.758   0.781   7.447
20715WAT      O62386   5.248   1.410   4.300
20715WAT     H162387   5.258   1.323   4.252
20715WAT     H262388   5.182   1.400   4.374
20716WAT      O62389   9.409   0.445   8.803
20716WAT     H162390   9.402   0.534   8.847
20716WAT     H262391   9.497   0.403   8.825
20717WAT      O62392   0.254   0.621   4.316
20717WAT     H162393   0.251   0.718   4.291
20717WAT     H262394   0.169   0.577   4.287
20718WAT      O62395   1.229   8.939   1.857
20718WAT     H162396   1.262   8.868   1.795
20718WAT     H262397   1.307   8.983   1.901
20719WAT      O62398   4.875   9.303   3.868
20719WAT     H162399   4.955   9.313   3.928
20719WAT     H262400   4.880   9.216   3.820
20720WAT      O62401   2.917   2.210   1.986
20720WAT     H162402   2.831   2.219   1.935
20720WAT     H262403   2.964   2.298   1.988
20721WAT      O62404   1.466   3.637   6.833
20721WAT     H162405   1.404   3.572   6.789
20721WAT     H262406   1.554   3.594   6.850
20722WAT      O62407   8.165   2.592   5.031
20722WAT     H162408   8.105   2.637   4.965
20722WAT     H262409   8.224   2.660   5.075
20723WAT      O62410   7.798   5.408   4.740
20723WAT     H162411   7.743   5.423   4.658
20723WAT     H262412   7.891   5.382   4.712
20724WAT      O62413   5.527   1.777   6.168
20724WAT     H162414   5.448   1.836   6.154
20724WAT     H262415   5.507   1.711   6.241
20725WAT      O62416   8.375   9.101   5.715
20725WAT     H162417   8.356   9.065   5.806
20725WAT     H262418   8.472   9.091   5.694
20726WAT      O62419   0.710   6.406   0.971
20726WAT     H162420   0.692   6.312   0.942
20726WAT     H262421   0.682   6.469   0.898
20727WAT      O62422   0.529   5.429   5.317
20727WAT     H162423   0.473   5.371   5.376
20727WAT     H262424   0.580   5.373   5.252
20728WAT      O62425   7.893   3.565   5.046
20728WAT     H162426   7.860   3.656   5.072
20728WAT     H262427   7.859   3.542   4.955
20729WAT      O62428   9.709   6.356   7.954
20729WAT     H162429   9.805   6.382   7.941
20729WAT     H262430   9.668   6.415   8.023
20730WAT      O62431   5.137   7.668   8.043
20730WAT     H162432   5.162   7.756   8.003
20730WAT     H262433   5.084   7.683   8.126
20731WAT      O62434   8.748   3.706   5.223
20731WAT     H162435   8.809   3.635   5.258
20731WAT     H262436   8.741   3.780   5.290
20732WAT      O62437   6.473   5.875   2.806
20732WAT     H162438   6.467   5.837   2.713
20732WAT     H262439   6.387   5.861   2.853
20733WAT      O62440   1.241   2.451   0.161
20733WAT     H162441   1.245   2.354   0.184
20733WAT     H262442   1.145   2.479   0.152
20734WAT      O62443   0.605   7.687   1.483
20734WAT     H162444   0.669   7.629   1.432
20734WAT     H262445   0.656   7.756   1.534
20735WAT      O62446   0.346   5.831   0.196
20735WAT     H162447   0.305   5.923   0.199
20735WAT     H262448   0.275   5.763   0.214
20736WAT      O62449   5.951   9.304   1.782
20736WAT     H162450   5.898   9.377   1.740
20736WAT     H262451   5.959   9.321   1.881
20737WAT      O62452   9.057   7.594   3.611
20737WAT     H162453   9.059   7.655   3.691
20737WAT     H262454   9.069   7.648   3.528
20738WAT      O62455   5.651   4.554   8.145
20738WAT     H162456   5.590   4.562   8.224
20738WAT     H262457   5.710   4.474   8.156
20739WAT      O62458   0.743   8.408   3.047
20739WAT     H162459   0.804   8.369   3.115
20739WAT     H262460   0.706   8.495   3.081
20740WAT      O62461   4.560   1.231   5.292
20740WAT     H162462   4.601   1.256   5.380
20740WAT     H262463   4.549   1.313   5.236
20741WAT      O62464   1.815   5.928   2.279
20741WAT     H162465   1.741   5.944   2.345
20741WAT     H262466   1.789   5.967   2.190
20742WAT      O62467   2.618   1.192   6.431
20742WAT     H162468   2.549   1.125   6.402
20742WAT     H262469   2.652   1.241   6.351
20743WAT      O62470   7.484   4.504   5.498
20743WAT     H162471   7.390   4.537   5.506
20743WAT     H262472   7.537   4.566   5.441
20744WAT      O62473   8.507   4.778   9.351
20744WAT     H162474   8.469   4.822   9.432
20744WAT     H262475   8.605   4.798   9.344
20745WAT      O62476   1.374   8.930   9.572
20745WAT     H162477   1.275   8.915   9.581
20745WAT     H262478   1.395   9.026   9.589
20746WAT      O62479   1.201   9.845   8.251
20746WAT     H162480   1.221   9.747   8.248
20746WAT     H262481   1.128   9.866   8.186
20747WAT      O62482   7.497   3.704   7.147
20747WAT     H162483   7.436   3.638   7.103
20747WAT     H262484   7.591   3.668   7.147
20748WAT      O62485   7.241   8.607   0.699
20748WAT     H162486   7.287   8.539   0.642
20748WAT     H262487   7.289   8.694   0.694
20749WAT      O62488   0.837   0.662   4.014
20749WAT     H162489   0.928   0.694   4.042
20749WAT     H262490   0.834   0.654   3.915
20750WAT      O62491   6.148   0.323   7.793
20750WAT     H162492   6.135   0.328   7.694
20750WAT     H262493   6.245   0.315   7.813
20751WAT      O62494   5.319   3.399   3.105
20751WAT     H162495   5.321   3.426   3.201
20751WAT     H262496   5.400   3.434   3.058
20752WAT      O62497   6.096   4.718   4.085
20752WAT     H162498   6.106   4.802   4.138
20752WAT     H262499   6.172   4.656   4.105
20753WAT      O62500   0.424   1.168   8.190
20753WAT     H162501   0.402   1.093   8.253
20753WAT     H262502   0.370   1.249   8.215
20754WAT      O62503   1.479   4.047   2.470
20754WAT     H162504   1.477   3.975   2.539
20754WAT     H262505   1.423   4.019   2.392
20755WAT      O62506   0.841   2.238   4.669
20755WAT     H162507   0.932   2.196   4.667
20755WAT     H262508   0.771   2.166   4.663
20756WAT      O62509   3.847   0.074   4.448
20756WAT     H162510   3.773   0.010   4.425
20756WAT     H262511   3.930   0.023   4.471
20757WAT      O62512   0.732   4.986   7.813
20757WAT     H162513   0.828   5.007   7.833
20757WAT     H262514   0.722   4.888   7.796
20758WAT      O62515   6.684   3.497   8.153
20758WAT     H162516   6.748   3.570   8.131
20758WAT     H262517   6.590   3.534   8.150
20759WAT      O62518   9.531   6.213   4.303
20759WAT     H162519   9.627   6.231   4.323
20759WAT     H262520   9.499   6.278   4.234
20760WAT      O62521   7.058   4.607   9.276
20760WAT     H162522   6.992   4.627   9.204
20760WAT     H262523   7.120   4.535   9.245
20761WAT      O62524   7.835   7.190   5.839
20761WAT     H162525   7.798   7.246   5.765
20761WAT     H262526   7.776   7.110   5.853
20762WAT      O62527   0.661   7.299   3.838
20762WAT     H162528   0.637   7.207   3.869
20762WAT     H262529   0.633   7.310   3.743
20763WAT      O62530   0.797   6.586   1.323
20763WAT     H162531   0.773   6.664   1.380
20763WAT     H262532   0.778   6.501   1.372
20764WAT      O62533   8.749   5.701   0.122
20764WAT     H162534   8.836   5.696   0.170
20764WAT     H262535   8.714   5.609   0.106
20765WAT      O62536   6.755   1.276   7.975
20765WAT     H162537   6.819   1.268   8.052
20765WAT     H262538   6.707   1.364   7.981
20766WAT      O62539   5.670   0.072   2.118
20766WAT     H162540   5.574   0.085   2.093
20766WAT     H262541   5.701   0.150   2.171
20767WAT      O62542   4.104   7.441   3.702
20767WAT     H162543   4.026   7.387   3.670
20767WAT     H262544   4.138   7.402   3.788
20768WAT      O62545   4.778   4.491   1.426
20768WAT     H162546   4.749   4.579   1.390
20768WAT     H262547   4.745   4.480   1.520
20769WAT      O62548   8.990   2.222   7.980
20769WAT     H162549   8.972   2.236   8.078
20769WAT     H262550   8.939   2.289   7.927
20770WAT      O62551   5.465   9.536   3.878
20770WAT     H162552   5.533   9.544   3.950
20770WAT     H262553   5.429   9.443   3.875
20771WAT      O62554   1.450   2.546   0.066
20771WAT     H162555   1.375   2.510   0.122
20771WAT     H262556   1.417   2.564  -0.027
20772WAT      O62557   2.313   3.455   8.642
20772WAT     H162558   2.341   3.545   8.676
20772WAT     H262559   2.256   3.467   8.561
20773WAT      O62560   0.073   6.447   3.832
20773WAT     H162561   0.118   6.436   3.921
20773WAT     H262562   0.013   6.527   3.835
20774WAT      O62563   7.126   0.423   6.915
20774WAT     H162564   7.209   0.403   6.967
20774WAT     H262565   7.136   0.510   6.867
20775WAT      O62566   9.696   4.762   2.043
20775WAT     H162567   9.745   4.838   2.085
20775WAT     H262568   9.677   4.692   2.111
20776WAT      O62569   8.448   5.959   6.672
20776WAT     H162570   8.362   5.949   6.721
20776WAT     H262571   8.489   5.869   6.657
20777WAT      O62572   0.604   3.905   4.459
20777WAT     H162573   0.622   3.969   4.385
20777WAT     H262574   0.525   3.848   4.436
20778WAT      O62575   9.118   4.530   0.119
20778WAT     H162576   9.127   4.580   0.205
20778WAT     H262577   9.209   4.511   0.082
20779WAT      O62578   0.207   0.480   3.778
20779WAT     H162579   0.295   0.528   3.778
20779WAT     H262580   0.141   0.532   3.724
20780WAT      O62581   0.149   4.408   6.692
20780WAT     H162582   0.210   4.441   6.764
20780WAT     H262583   0.055   4.433   6.715
20781WAT      O62584   5.406   0.644   4.856
20781WAT     H162585   5.315   0.679   4.836
20781WAT     H262586   5.459   0.639   4.771
20782WAT      O62587   2.517   3.692   1.752
20782WAT     H162588   2.527   3.754   1.829
20782WAT     H262589   2.439   3.631   1.767
20783WAT      O62590   8.698   9.584   0.389
20783WAT     H162591   8.750   9.541   0.315
20783WAT     H262592   8.604   9.550   0.388
20784WAT      O62593   8.581   1.726   9.253
20784WAT     H162594   8.544   1.710   9.344
20784WAT     H262595   8.583   1.640   9.202
20785WAT      O62596   8.747   8.834   3.254
20785WAT     H162597   8.832   8.805   3.209
20785WAT     H262598   8.672   8.775   3.225
20786WAT      O62599   2.885   2.515   1.308
20786WAT     H162600   2.851   2.574   1.236
20786WAT     H262601   2.979   2.542   1.332
20787WAT      O62602   1.397   6.672   1.967
20787WAT     H162603   1.493   6.648   1.957
20787WAT     H262604   1.382   6.713   2.058
20788WAT      O62605   7.387   6.304   6.421
20788WAT     H162606   7.381   6.299   6.321
20788WAT     H262607   7.303   6.266   6.461
20789WAT      O62608   2.532   9.085   6.131
20789WAT     H162609   2.513   9.089   6.229
20789WAT     H262610   2.446   9.092   6.080
20790WAT      O62611   4.257   4.676   1.942
20790WAT     H162612   4.163   4.695   1.915
20790WAT     H262613   4.280   4.727   2.025
20791WAT      O62614   3.247   9.166   3.074
20791WAT     H162615   3.341   9.139   3.090
20791WAT     H262616   3.237   9.200   2.981
20792WAT      O62617   7.760   6.209   7.622
20792WAT     H162618   7.766   6.309   7.627
20792WAT     H262619   7.833   6.174   7.564
20793WAT      O62620   2.186   5.509   6.288
20793WAT     H162621   2.228   5.520   6.198
20793WAT     H262622   2.230   5.435   6.337
20794WAT      O62623   6.589   3.793   6.535
20794WAT     H162624   6.564   3.702   6.504
20794WAT     H262625   6.509   3.837   6.578
20795WAT      O62626   0.716   2.998   2.774
20795WAT     H162627   0.779   2.971   2.847
20795WAT     H262628   0.668   3.081   2.801
20796WAT      O62629   9.640   0.131   7.998
20796WAT     H162630   9.558   0.177   8.031
20796WAT     H262631   9.640   0.037   8.029
20797WAT      O62632   0.385   1.928   7.568
20797WAT     H162633   0.474   1.930   7.613
20797WAT     H262634   0.323   1.993   7.612
20798WAT      O62635   5.764   8.852   3.238
20798WAT     H162636   5.831   8.822   3.171
20798WAT     H262637   5.746   8.950   3.227
20799WAT      O62638   3.881   2.231   9.615
20799WAT     H162639   3.936   2.301   9.570
20799WAT     H262640   3.888   2.241   9.714
20800WAT      O62641   3.783   2.062   8.408
20800WAT     H162642   3.739   2.120   8.339
20800WAT     H262643   3.879   2.050   8.385
20801WAT      O62644   2.273   0.213   4.203
20801WAT     H162645   2.318   0.301   4.218
20801WAT     H262646   2.256   0.169   4.291
20802WAT      O62647   6.179   7.014   8.174
20802WAT     H162648   6.187   6.925   8.219
20802WAT     H262649   6.269   7.058   8.172
20803WAT      O62650   4.544   2.964   1.594
20803WAT     H162651   4.543   3.064   1.588
20803WAT     H262652   4.534   2.925   1.503
20804WAT      O62653   0.286   3.644   0.811
20804WAT     H162654   0.270   3.602   0.900
20804WAT     H262655   0.217   3.614   0.746
20805WAT      O62656   4.043   0.168   2.646
20805WAT     H162657   3.992   0.254   2.647
20805WAT     H262658   4.063   0.140   2.740
20806WAT      O62659   5.726   4.509   8.477
20806WAT     H162660   5.770   4.492   8.565
20806WAT     H262661   5.781   4.575   8.424
20807WAT      O62662   9.544   3.051   1.322
20807WAT     H162663   9.536   3.150   1.323
20807WAT     H262664   9.635   3.024   1.352
20808WAT      O62665   7.370   4.280   4.645
20808WAT     H162666   7.271   4.287   4.660
20808WAT     H262667   7.416   4.355   4.692
20809WAT      O62668   9.388   6.834   7.210
20809WAT     H162669   9.362   6.929   7.224
20809WAT     H262670   9.363   6.806   7.117
20810WAT      O62671   3.938   4.841   8.923
20810WAT     H162672   3.840   4.843   8.943
20810WAT     H262673   3.959   4.905   8.849
20811WAT      O62674   7.893   6.085   7.393
20811WAT     H162675   7.981   6.055   7.431
20811WAT     H262676   7.852   6.011   7.340
20812WAT      O62677   7.267   8.896   6.570
20812WAT     H162678   7.169   8.876   6.579
20812WAT     H262679   7.317   8.811   6.552
20813WAT      O62680   7.588   9.129   1.809
20813WAT     H162681   7.544   9.050   1.850
20813WAT     H262682   7.588   9.120   1.709
20814WAT      O62683   1.178   5.750   5.485
20814WAT     H162684   1.082   5.771   5.470
20814WAT     H262685   1.228   5.833   5.508
20815WAT      O62686   8.288   9.079   5.217
20815WAT     H162687   8.338   9.136   5.152
20815WAT     H262688   8.288   9.123   5.307
20816WAT      O62689   2.507   8.491   9.829
20816WAT     H162690   2.539   8.467   9.737
20816WAT     H262691   2.507   8.409   9.887
20817WAT      O62692   0.789   0.069   3.566
20817WAT     H162693   0.698   0.030   3.576
20817WAT     H262694   0.784   0.169   3.570
20818WAT      O62695   9.085   5.236   5.428
20818WAT     H162696   9.163   5.298   5.420
20818WAT     H262697   9.001   5.290   5.439
20819WAT      O62698   1.080   5.429   1.442
20819WAT     H162699   1.112   5.373   1.519
20819WAT     H262700   0.982   5.417   1.431
20820WAT      O62701   0.375   4.361   0.969
20820WAT     H162702   0.412   4.452   0.949
20820WAT     H262703   0.290   4.371   1.021
20821WAT      O62704   3.550   8.513   7.536
20821WAT     H162705   3.467   8.568   7.541
20821WAT     H262706   3.558   8.456   7.618
20822WAT      O62707   1.450   6.011   6.190
20822WAT     H162708   1.358   6.051   6.193
20822WAT     H262709   1.461   5.948   6.267
20823WAT      O62710   0.904   1.134   7.943
20823WAT     H162711   0.984   1.113   7.887
20823WAT     H262712   0.886   1.057   8.005
20824WAT      O62713   8.970   0.427   2.377
20824WAT     H162714   8.892   0.408   2.318
20824WAT     H262715   8.942   0.491   2.449
20825WAT      O62716   4.633   0.795   6.300
20825WAT     H162717   4.618   0.833   6.209
20825WAT     H262718   4.636   0.870   6.367
20826WAT      O62719   0.243   9.396   7.030
20826WAT     H162720   0.262   9.488   6.997
20826WAT     H262721   0.169   9.355   6.976
20827WAT      O62722   3.831   8.757   2.048
20827WAT     H162723   3.754   8.807   2.008
20827WAT     H262724   3.872   8.812   2.121
20828WAT      O62725   7.033   1.027   7.466
20828WAT     H162726   6.955   0.992   7.414
20828WAT     H262727   7.001   1.071   7.549
20829WAT      O62728   2.505   3.266   2.179
20829WAT     H162729   2.599   3.298   2.189
20829WAT     H262730   2.502   3.166   2.188
20830WAT      O62731   2.914   4.503   1.507
20830WAT     H162732   3.005   4.507   1.465
20830WAT     H262733   2.857   4.576   1.470
20831WAT      O62734   9.658   9.475   3.477
20831WAT     H162735   9.694   9.450   3.388
20831WAT     H262736   9.714   9.435   3.549
20832WAT      O62737   2.754   5.020   8.948
20832WAT     H162738   2.711   5.007   9.037
20832WAT     H262739   2.719   5.104   8.905
20833WAT      O62740   0.845   3.454   6.971
20833WAT     H162741   0.773   3.442   6.903
20833WAT     H262742   0.934   3.459   6.926
20834WAT      O62743   3.255   2.677   0.348
20834WAT     H162744   3.281   2.697   0.254
20834WAT     H262745   3.156   2.664   0.352
20835WAT      O62746   4.285   0.568   6.073
20835WAT     H162747   4.374   0.590   6.032
20835WAT     H262748   4.225   0.532   6.001
20836WAT      O62749   0.346   7.784   6.470
20836WAT     H162750   0.323   7.875   6.502
20836WAT     H262751   0.339   7.719   6.545
20837WAT      O62752   4.348   7.450   1.724
20837WAT     H162753   4.302   7.375   1.677
20837WAT     H262754   4.340   7.533   1.669
20838WAT      O62755   7.038   7.339   3.106
20838WAT     H162756   7.034   7.361   3.204
20838WAT     H262757   7.010   7.243   3.093
20839WAT      O62758   2.770   5.235   5.083
20839WAT     H162759   2.686   5.183   5.095
20839WAT     H262760   2.748   5.328   5.051
20840WAT      O62761   9.674   4.860   3.059
20840WAT     H162762   9.695   4.763   3.070
20840WAT     H262763   9.687   4.886   2.963
20841WAT      O62764   5.652   5.350   9.494
20841WAT     H162765   5.621   5.431   9.444
20841WAT     H262766   5.744   5.325   9.465
20842WAT      O62767   0.029   8.826   9.077
20842WAT     H162768   0.023   8.841   8.979
20842WAT     H262769  -0.063   8.808   9.114
20843WAT      O62770   9.814   1.551   1.256
20843WAT     H162771   9.718   1.532   1.276
20843WAT     H262772   9.872   1.494   1.313
20844WAT      O62773   1.394   6.503   4.406
20844WAT     H162774   1.489   6.514   4.377
20844WAT     H262775   1.338   6.574   4.363
20845WAT      O62776   6.406   5.973   7.492
20845WAT     H162777   6.486   6.026   7.517
20845WAT     H262778   6.326   6.033   7.483
20846WAT      O62779   2.614   0.897   4.088
20846WAT     H162780   2.588   0.974   4.030
20846WAT     H262781   2.708   0.871   4.069
20847WAT      O62782   4.967   7.673   8.926
20847WAT     H162783   4.931   7.580   8.934
20847WAT     H262784   5.051   7.672   8.871
20848WAT      O62785   2.430   3.234   1.515
20848WAT     H162786   2.506   3.171   1.526
20848WAT     H262787   2.432   3.274   1.424
20849WAT      O62788   8.658   5.311   2.329
20849WAT     H162789   8.574   5.352   2.296
20849WAT     H262790   8.681   5.349   2.419
20850WAT      O62791   5.434   7.990   3.291
20850WAT     H162792   5.386   8.002   3.204
20850WAT     H262793   5.528   8.024   3.281
20851WAT      O62794   2.616   8.793   2.920
20851WAT     H162795   2.707   8.753   2.933
20851WAT     H262796   2.574   8.811   3.009
20852WAT      O62797   7.401   9.744   6.994
20852WAT     H162798   7.373   9.671   7.057
20852WAT     H262799   7.340   9.744   6.915
20853WAT      O62800   8.620   3.726   7.256
20853WAT     H162801   8.572   3.640   7.238
20853WAT     H262802   8.711   3.705   7.292
20854WAT      O62803   3.219   4.052   0.838
20854WAT     H162804   3.169   4.137   0.825
20854WAT     H262805   3.175   3.979   0.784
20855WAT      O62806   0.946   0.742   7.762
20855WAT     H162807   0.912   0.725   7.669
20855WAT     H262808   1.042   0.770   7.757
20856WAT      O62809   2.145   9.786   6.342
20856WAT     H162810   2.069   9.844   6.314
20856WAT     H262811   2.192   9.751   6.261
20857WAT      O62812   3.679   4.352   2.004
20857WAT     H162813   3.633   4.414   2.068
20857WAT     H262814   3.745   4.296   2.054
20858WAT      O62815   2.343   9.224   2.831
20858WAT     H162816   2.293   9.265   2.907
20858WAT     H262817   2.315   9.128   2.821
20859WAT      O62818   6.904   4.543   2.014
20859WAT     H162819   6.873   4.479   2.085
20859WAT     H262820   6.959   4.615   2.057
20860WAT      O62821   8.151   9.112   8.538
20860WAT     H162822   8.177   9.165   8.458
20860WAT     H262823   8.169   9.165   8.621
20861WAT      O62824   0.598   4.601   6.100
20861WAT     H162825   0.619   4.589   6.003
20861WAT     H262826   0.499   4.614   6.110
20862WAT      O62827   2.541   3.799   2.717
20862WAT     H162828   2.624   3.743   2.718
20862WAT     H262829   2.555   3.880   2.774
20863WAT      O62830   4.334   3.777   2.295
20863WAT     H162831   4.379   3.706   2.241
20863WAT     H262832   4.269   3.827   2.238
20864WAT      O62833   3.368   3.546   1.330
20864WAT     H162834   3.443   3.607   1.352
20864WAT     H262835   3.388   3.454   1.364
20865WAT      O62836   6.958   0.861   1.943
20865WAT     H162837   6.973   0.801   2.022
20865WAT     H262838   6.861   0.859   1.918
20866WAT      O62839   3.488   2.462   7.349
20866WAT     H162840   3.570   2.519   7.345
20866WAT     H262841   3.466   2.429   7.258
20867WAT      O62842   2.118   6.798   5.932
20867WAT     H162843   2.179   6.826   5.858
20867WAT     H262844   2.161   6.723   5.983
20868WAT      O62845   6.090   4.384   8.485
20868WAT     H162846   6.045   4.305   8.443
20868WAT     H262847   6.119   4.448   8.414
20869WAT      O62848   8.323   2.690   2.242
20869WAT     H162849   8.307   2.600   2.202
20869WAT     H262850   8.325   2.759   2.170
20870WAT      O62851   9.402   9.744   5.210
20870WAT     H162852   9.361   9.828   5.243
20870WAT     H262853   9.348   9.666   5.241
20871WAT      O62854   8.696   1.110   5.819
20871WAT     H162855   8.745   1.024   5.804
20871WAT     H262856   8.755   1.173   5.870
20872WAT      O62857   1.938   1.447   7.716
20872WAT     H162858   1.922   1.384   7.792
20872WAT     H262859   1.851   1.487   7.688
20873WAT      O62860   4.597   6.849   1.967
20873WAT     H162861   4.634   6.798   1.889
20873WAT     H262862   4.585   6.945   1.941
20874WAT      O62863   8.389   9.067   3.038
20874WAT     H162864   8.322   9.002   3.075
20874WAT     H262865   8.405   9.140   3.104
20875WAT      O62866   6.124   8.235   5.999
20875WAT     H162867   6.086   8.142   5.993
20875WAT     H262868   6.157   8.263   5.908
20876WAT      O62869   8.757   8.370   3.567
20876WAT     H162870   8.669   8.326   3.551
20876WAT     H262871   8.817   8.354   3.489
20877WAT      O62872   8.638   8.609   7.977
20877WAT     H162873   8.681   8.523   7.950
20877WAT     H262874   8.583   8.595   8.059
20878WAT      O62875   1.978   1.573   5.332
20878WAT     H162876   1.910   1.517   5.284
20878WAT     H262877   2.066   1.528   5.331
20879WAT      O62878   3.152   2.505   9.319
20879WAT     H162879   3.232   2.488   9.261
20879WAT     H262880   3.174   2.578   9.384
20880WAT      O62881   3.755   7.537   5.884
20880WAT     H162882   3.704   7.549   5.969
20880WAT     H262883   3.842   7.587   5.890
20881WAT      O62884   0.141   4.831   6.260
20881WAT     H162885   0.127   4.825   6.359
20881WAT     H262886   0.079   4.899   6.221
20882WAT      O62887   8.339   6.363   3.914
20882WAT     H162888   8.431   6.336   3.884
20882WAT     H262889   8.274   6.292   3.887
20883WAT      O62890   1.023   1.924   1.204
20883WAT     H162891   1.091   1.993   1.178
20883WAT     H262892   0.943   1.934   1.145
20884WAT      O62893   6.639   8.994   0.265
20884WAT     H162894   6.542   9.005   0.242
20884WAT     H262895   6.674   8.911   0.220
20885WAT      O62896   4.106   8.084   7.015
20885WAT     H162897   4.199   8.047   7.027
20885WAT     H262898   4.076   8.126   7.100
20886WAT      O62899   8.742   5.083   1.714
20886WAT     H162900   8.787   5.032   1.787
20886WAT     H262901   8.735   5.026   1.632
20887WAT      O62902   1.457   3.493   8.109
20887WAT     H162903   1.543   3.451   8.138
20887WAT     H262904   1.417   3.542   8.187
20888WAT      O62905   7.368   6.480   5.345
20888WAT     H162906   7.372   6.540   5.425
20888WAT     H262907   7.273   6.456   5.327
20889WAT      O62908   2.158   0.490   4.777
20889WAT     H162909   2.078   0.537   4.812
20889WAT     H262910   2.153   0.393   4.800
20890WAT      O62911   7.012   4.845   5.925
20890WAT     H162912   6.995   4.857   6.023
20890WAT     H262913   6.928   4.864   5.874
20891WAT      O62914   5.674   8.081   2.810
20891WAT     H162915   5.698   8.177   2.793
20891WAT     H262916   5.575   8.070   2.805
20892WAT      O62917   7.874   3.978   4.303
20892WAT     H162918   7.808   3.992   4.376
20892WAT     H262919   7.876   4.059   4.244
20893WAT      O62920   6.002   7.175   6.035
20893WAT     H162921   6.099   7.178   6.008
20893WAT     H262922   5.971   7.080   6.036
20894WAT      O62923   1.184   8.786   1.288
20894WAT     H162924   1.224   8.781   1.197
20894WAT     H262925   1.239   8.847   1.345
20895WAT      O62926   0.107   0.499   1.757
20895WAT     H162927   0.031   0.491   1.821
20895WAT     H262928   0.130   0.408   1.722
20896WAT      O62929   9.848   9.693   6.387
20896WAT     H162930   9.937   9.702   6.430
20896WAT     H262931   9.776   9.718   6.452
20897WAT      O62932   0.691   8.129   4.905
20897WAT     H162933   0.661   8.218   4.870
20897WAT     H262934   0.754   8.142   4.981
20898WAT      O62935   1.841   8.944   6.222
20898WAT     H162936   1.805   8.912   6.309
20898WAT     H262937   1.890   9.031   6.236
20899WAT      O62938   7.080   6.692   4.885
20899WAT     H162939   6.990   6.720   4.852
20899WAT     H262940   7.077   6.681   4.984
20900WAT      O62941   7.768   6.193   6.983
20900WAT     H162942   7.695   6.128   6.963
20900WAT     H262943   7.789   6.190   7.081
20901WAT      O62944   0.801   5.235   3.757
20901WAT     H162945   0.851   5.173   3.695
20901WAT     H262946   0.847   5.324   3.759
20902WAT      O62947   7.083   3.841   7.409
20902WAT     H162948   7.041   3.864   7.321
20902WAT     H262949   7.052   3.750   7.439
20903WAT      O62950   8.364   3.270   9.659
20903WAT     H162951   8.398   3.318   9.740
20903WAT     H262952   8.433   3.203   9.629
20904WAT      O62953   0.041   1.471   2.612
20904WAT     H162954   0.105   1.463   2.689
20904WAT     H262955   0.052   1.562   2.570
20905WAT      O62956   4.214   3.800   4.512
20905WAT     H162957   4.123   3.813   4.472
20905WAT     H262958   4.238   3.703   4.511
20906WAT      O62959   4.873   0.670   7.594
20906WAT     H162960   4.870   0.712   7.503
20906WAT     H262961   4.784   0.631   7.615
20907WAT      O62962   0.523   1.451   1.750
20907WAT     H162963   0.542   1.545   1.779
20907WAT     H262964   0.580   1.428   1.672
20908WAT      O62965   6.689   8.720   1.070
20908WAT     H162966   6.743   8.764   1.142
20908WAT     H262967   6.607   8.678   1.110
20909WAT      O62968   6.766   6.912   9.132
20909WAT     H162969   6.842   6.911   9.067
20909WAT     H262970   6.774   6.833   9.193
20910WAT      O62971   8.893   9.757   4.626
20910WAT     H162972   8.909   9.663   4.595
20910WAT     H262973   8.818   9.798   4.573
20911WAT      O62974   5.329   8.397   8.174
20911WAT     H162975   5.381   8.350   8.102
20911WAT     H262976   5.250   8.341   8.199
20912WAT      O62977   2.575   7.171   3.219
20912WAT     H162978   2.586   7.199   3.123
20912WAT     H262979   2.638   7.225   3.276
20913WAT      O62980   5.680   1.213   0.995
20913WAT     H162981   5.704   1.233   0.900
20913WAT     H262982   5.760   1.175   1.041
20914WAT      O62983   8.730   9.202   5.414
20914WAT     H162984   8.708   9.191   5.317
20914WAT     H262985   8.782   9.286   5.428
20915WAT      O62986   2.864   9.522   8.460
20915WAT     H162987   2.777   9.570   8.471
20915WAT     H262988   2.899   9.495   8.550
20916WAT      O62989   3.566   6.364   6.524
20916WAT     H162990   3.540   6.269   6.509
20916WAT     H262991   3.665   6.370   6.538
20917WAT      O62992   5.215   5.034   0.495
20917WAT     H162993   5.305   5.076   0.483
20917WAT     H262994   5.201   4.966   0.423
20918WAT      O62995   4.607   7.365   1.808
20918WAT     H162996   4.643   7.451   1.845
20918WAT     H262997   4.520   7.382   1.762
20919WAT      O62998   4.740   8.326   0.046
20919WAT     H162999   4.704   8.233   0.049
20919WAT     H263000   4.840   8.323   0.055
20920WAT      O63001   4.295   7.413   6.773
20920WAT     H163002   4.300   7.484   6.703
20920WAT     H263003   4.212   7.424   6.827
20921WAT      O63004   4.972   7.916   0.775
20921WAT     H163005   5.061   7.871   0.771
20921WAT     H263006   4.985   8.015   0.769
20922WAT      O63007   5.995   1.893   3.504
20922WAT     H163008   6.033   1.977   3.464
20922WAT     H263009   5.931   1.851   3.440
20923WAT      O63010   1.397   2.927   7.084
20923WAT     H163011   1.324   2.879   7.133
20923WAT     H263012   1.389   3.026   7.100
20924WAT      O63013   7.025   7.561   4.798
20924WAT     H163014   7.097   7.550   4.866
20924WAT     H263015   6.979   7.474   4.783
20925WAT      O63016   1.041   7.500   5.750
20925WAT     H163017   1.134   7.534   5.735
20925WAT     H263018   0.976   7.563   5.707
20926WAT      O63019   0.170   8.815   2.292
20926WAT     H163020   0.243   8.752   2.266
20926WAT     H263021   0.115   8.773   2.364
20927WAT      O63022   9.394   2.454   5.183
20927WAT     H163023   9.439   2.435   5.270
20927WAT     H263024   9.333   2.533   5.194
20928WAT      O63025   1.732   9.816   6.880
20928WAT     H163026   1.771   9.840   6.969
20928WAT     H263027   1.795   9.845   6.807
20929WAT      O63028   8.819   5.246   0.283
20929WAT     H163029   8.767   5.170   0.246
20929WAT     H263030   8.770   5.285   0.361
20930WAT      O63031   5.502   9.007   0.929
20930WAT     H163032   5.507   8.973   1.023
20930WAT     H263033   5.462   9.099   0.928
20931WAT      O63034   5.816   5.415   0.440
20931WAT     H163035   5.732   5.464   0.466
20931WAT     H263036   5.852   5.454   0.355
20932WAT      O63037   1.319   4.064   0.703
20932WAT     H163038   1.264   4.147   0.708
20932WAT     H263039   1.288   4.007   0.628
20933WAT      O63040   5.551   5.592   4.150
20933WAT     H163041   5.534   5.671   4.091
20933WAT     H263042   5.500   5.603   4.236
20934WAT      O63043   9.456   5.968   8.316
20934WAT     H163044   9.491   5.981   8.408
20934WAT     H263045   9.368   6.015   8.307
20935WAT      O63046   1.252   2.928   4.093
20935WAT     H163047   1.214   2.970   4.011
20935WAT     H263048   1.296   2.998   4.149
20936WAT      O63049   6.375   4.275   4.940
20936WAT     H163050   6.383   4.180   4.911
20936WAT     H263051   6.367   4.333   4.859
20937WAT      O63052   9.367   5.427   7.004
20937WAT     H163053   9.443   5.409   7.067
20937WAT     H263054   9.371   5.362   6.928
20938WAT      O63055   2.888   8.412   1.572
20938WAT     H163056   2.961   8.354   1.537
20938WAT     H263057   2.904   8.432   1.669
20939WAT      O63058   3.814   9.147   8.232
20939WAT     H163059   3.740   9.081   8.222
20939WAT     H263060   3.805   9.196   8.319
20940WAT      O63061   2.808   7.637   6.150
20940WAT     H163062   2.850   7.561   6.200
20940WAT     H263063   2.734   7.602   6.093
20941WAT      O63064   9.142   0.010   7.518
20941WAT     H163065   9.142   0.082   7.587
20941WAT     H263066   9.234   0.003   7.478
20942WAT      O63067   9.713   5.044   5.521
20942WAT     H163068   9.632   5.087   5.561
20942WAT     H263069   9.719   4.949   5.552
20943WAT      O63070   3.935   9.206   2.879
20943WAT     H163071   3.878   9.126   2.859
20943WAT     H263072   4.006   9.214   2.808
20944WAT      O63073   4.640   3.502   6.672
20944WAT     H163074   4.699   3.552   6.607
20944WAT     H263075   4.690   3.486   6.757
20945WAT      O63076   9.781   6.805   4.150
20945WAT     H163077   9.837   6.885   4.127
20945WAT     H263078   9.786   6.789   4.249
20946WAT      O63079   7.062   8.981   4.451
20946WAT     H163080   6.984   8.951   4.506
20946WAT     H263081   7.140   8.921   4.467
20947WAT      O63082   4.868   3.070   3.072
20947WAT     H163083   4.787   3.033   3.027
20947WAT     H263084   4.920   2.995   3.114
20948WAT      O63085   4.606   8.243   2.671
20948WAT     H163086   4.692   8.226   2.718
20948WAT     H263087   4.611   8.211   2.577
20949WAT      O63088   6.008   2.506   2.510
20949WAT     H163089   5.944   2.520   2.435
20949WAT     H263090   6.102   2.513   2.476
20950WAT      O63091   2.627   0.997   1.640
20950WAT     H163092   2.654   1.023   1.733
20950WAT     H263093   2.668   1.062   1.575
20951WAT      O63094   1.993   8.188   2.079
20951WAT     H163095   1.930   8.168   2.154
20951WAT     H263096   2.047   8.107   2.058
20952WAT      O63097   5.112   4.606   6.621
20952WAT     H163098   5.042   4.576   6.686
20952WAT     H263099   5.107   4.705   6.610
20953WAT      O63100   8.889   0.392   7.552
20953WAT     H163101   8.841   0.308   7.577
20953WAT     H263102   8.936   0.379   7.464
20954WAT      O63103   5.671   8.494   7.743
20954WAT     H163104   5.668   8.573   7.683
20954WAT     H263105   5.766   8.461   7.750
20955WAT      O63106   9.094   6.849   5.850
20955WAT     H163107   9.072   6.780   5.919
20955WAT     H263108   9.190   6.877   5.861
20956WAT      O63109   1.306   3.531   7.149
20956WAT     H163110   1.392   3.512   7.102
20956WAT     H263111   1.289   3.459   7.217
20957WAT      O63112   6.062   1.531   2.310
20957WAT     H163113   6.144   1.518   2.253
20957WAT     H263114   6.048   1.449   2.366
20958WAT      O63115   8.939   9.348   1.360
20958WAT     H163116   8.945   9.414   1.434
20958WAT     H263117   9.025   9.297   1.353
20959WAT      O63118   8.094   5.536   1.224
20959WAT     H163119   8.105   5.500   1.317
20959WAT     H263120   8.002   5.515   1.192
20960WAT      O63121   7.248   3.560   9.499
20960WAT     H163122   7.264   3.504   9.580
20960WAT     H263123   7.307   3.529   9.424
20961WAT      O63124   3.227   4.819   8.794
20961WAT     H163125   3.237   4.720   8.806
20961WAT     H263126   3.135   4.847   8.824
20962WAT      O63127   6.653   2.611   8.780
20962WAT     H163128   6.711   2.531   8.792
20962WAT     H263129   6.596   2.599   8.699
20963WAT      O63130   7.746   9.197   8.714
20963WAT     H163131   7.659   9.208   8.763
20963WAT     H263132   7.741   9.246   8.627
20964WAT      O63133   2.994   3.527   7.433
20964WAT     H163134   3.076   3.471   7.450
20964WAT     H263135   3.020   3.624   7.435
20965WAT      O63136   1.683   2.943   2.587
20965WAT     H163137   1.770   2.923   2.633
20965WAT     H263138   1.683   3.038   2.556
20966WAT      O63139   6.607   2.956   2.830
20966WAT     H163140   6.526   3.008   2.856
20966WAT     H263141   6.646   2.913   2.911
20967WAT      O63142   3.571   2.386   6.467
20967WAT     H163143   3.614   2.303   6.503
20967WAT     H263144   3.559   2.378   6.368
20968WAT      O63145   5.906   3.879   6.816
20968WAT     H163146   5.806   3.883   6.809
20968WAT     H263147   5.937   3.786   6.799
20969WAT      O63148   3.316   2.890   6.415
20969WAT     H163149   3.247   2.877   6.485
20969WAT     H263150   3.407   2.895   6.458
20970WAT      O63151   5.795   4.648   6.493
20970WAT     H163152   5.706   4.642   6.537
20970WAT     H263153   5.785   4.688   6.401
20971WAT      O63154   1.308   8.030   4.574
20971WAT     H163155   1.341   8.115   4.615
20971WAT     H263156   1.382   7.963   4.571
20972WAT      O63157   3.813   2.501   4.662
20972WAT     H163158   3.783   2.584   4.709
20972WAT     H263159   3.746   2.477   4.592
20973WAT      O63160   6.312   8.550   7.964
20973WAT     H163161   6.366   8.591   7.891
20973WAT     H263162   6.255   8.477   7.926
20974WAT      O63163   6.290   6.298   2.367
20974WAT     H163164   6.220   6.251   2.314
20974WAT     H263165   6.379   6.287   2.323
20975WAT      O63166   7.470   1.130   8.392
20975WAT     H163167   7.389   1.155   8.446
20975WAT     H263168   7.515   1.052   8.435
20976WAT      O63169   6.041   6.947   0.321
20976WAT     H163170   6.055   6.997   0.407
20976WAT     H263171   6.063   6.850   0.334
20977WAT      O63172   1.410   0.631   4.189
20977WAT     H163173   1.382   0.717   4.233
20977WAT     H263174   1.339   0.562   4.202
20978WAT      O63175   4.704   1.683   5.420
20978WAT     H163176   4.637   1.635   5.478
20978WAT     H263177   4.696   1.781   5.435
20979WAT      O63178   5.172   3.115   2.653
20979WAT     H163179   5.123   3.118   2.740
20979WAT     H263180   5.223   3.200   2.640
20980WAT      O63181   7.255   8.831   8.997
20980WAT     H163182   7.355   8.834   8.990
20980WAT     H263183   7.215   8.889   8.926
20981WAT      O63184   1.975   2.350   2.363
20981WAT     H163185   1.964   2.289   2.285
20981WAT     H263186   1.898   2.338   2.426
20982WAT      O63187   0.953   3.945   9.066
20982WAT     H163188   0.980   3.865   9.012
20982WAT     H263189   0.919   4.017   9.005
20983WAT      O63190   2.162   4.602   1.243
20983WAT     H163191   2.252   4.563   1.226
20983WAT     H263192   2.135   4.659   1.166
20984WAT      O63193   5.223   3.371   1.548
20984WAT     H163194   5.182   3.302   1.489
20984WAT     H263195   5.151   3.418   1.600
20985WAT      O63196   2.533   9.119   8.777
20985WAT     H163197   2.514   9.021   8.779
20985WAT     H263198   2.616   9.136   8.724
20986WAT      O63199   6.254   4.792   3.083
20986WAT     H163200   6.335   4.849   3.068
20986WAT     H263201   6.177   4.829   3.031
20987WAT      O63202   1.368   0.476   9.477
20987WAT     H163203   1.285   0.516   9.438
20987WAT     H263204   1.368   0.487   9.576
20988WAT      O63205   2.751   1.875   1.973
20988WAT     H163206   2.684   1.944   2.000
20988WAT     H263207   2.729   1.788   2.018
20989WAT      O63208   0.108   3.069   2.809
20989WAT     H163209   0.193   3.084   2.758
20989WAT     H263210   0.045   3.016   2.753
20990WAT      O63211   0.928   1.178   9.485
20990WAT     H163212   1.024   1.205   9.492
20990WAT     H263213   0.881   1.237   9.419
20991WAT      O63214   8.012   4.489   4.102
20991WAT     H163215   8.109   4.495   4.080
20991WAT     H263216   7.987   4.394   4.119
20992WAT      O63217   7.757   3.437   9.149
20992WAT     H163218   7.796   3.384   9.225
20992WAT     H263219   7.703   3.513   9.186
20993WAT      O63220   1.584   8.747   7.083
20993WAT     H163221   1.563   8.833   7.129
20993WAT     H263222   1.551   8.751   6.988
20994WAT      O63223   1.193   5.017   9.307
20994WAT     H163224   1.225   4.924   9.322
20994WAT     H263225   1.176   5.061   9.395
20995WAT      O63226   9.402   1.548   4.760
20995WAT     H163227   9.471   1.535   4.689
20995WAT     H263228   9.432   1.506   4.845
20996WAT      O63229   3.181   5.947   8.805
20996WAT     H163230   3.247   5.874   8.789
20996WAT     H263231   3.197   6.021   8.741
20997WAT      O63232   5.360   6.342   4.366
20997WAT     H163233   5.316   6.258   4.398
20997WAT     H263234   5.341   6.416   4.431
20998WAT      O63235   3.478   1.854   1.164
20998WAT     H163236   3.464   1.938   1.112
20998WAT     H263237   3.391   1.805   1.174
20999WAT      O63238   3.571   2.105   0.450
20999WAT     H163239   3.593   2.149   0.537
20999WAT     H263240   3.472   2.109   0.434
21000WAT      O63241   5.434   7.283   5.314
21000WAT     H163242   5.527   7.302   5.283
21000WAT     H263243   5.413   7.186   5.301
21001WAT      O63244   6.476   5.545   5.744
21001WAT     H163245   6.462   5.474   5.675
21001WAT     H263246   6.461   5.634   5.703
21002WAT      O63247   9.498   5.920   4.015
21002WAT     H163248   9.405   5.926   3.978
21002WAT     H263249   9.564   5.937   3.941
21003WAT      O63250   1.274   1.612   7.703
21003WAT     H163251   1.283   1.683   7.633
21003WAT     H263252   1.326   1.531   7.676
21004WAT      O63253   8.183   3.461   9.297
21004WAT     H163254   8.169   3.365   9.322
21004WAT     H263255   8.210   3.513   9.378
21005WAT      O63256   9.805   5.228   4.824
21005WAT     H163257   9.829   5.271   4.911
21005WAT     H263258   9.882   5.174   4.791
21006WAT      O63259   8.324   0.031   5.354
21006WAT     H163260   8.344   0.116   5.303
21006WAT     H263261   8.347   0.044   5.450
21007WAT      O63262   1.056   9.280   2.415
21007WAT     H163263   1.113   9.361   2.432
21007WAT     H263264   0.959   9.307   2.415
21008WAT      O63265   8.061   7.098   6.169
21008WAT     H163266   8.137   7.162   6.184
21008WAT     H263267   8.056   7.033   6.245
21009WAT      O63268   4.913   1.554   9.349
21009WAT     H163269   4.943   1.507   9.266
21009WAT     H263270   4.974   1.631   9.368
21010WAT      O63271   7.920   4.646   4.746
21010WAT     H163272   8.005   4.606   4.781
21010WAT     H263273   7.854   4.655   4.820
21011WAT      O63274   9.514   8.291   3.941
21011WAT     H163275   9.421   8.326   3.936
21011WAT     H263276   9.516   8.197   3.907
21012WAT      O63277   8.094   2.541   4.697
21012WAT     H163278   8.089   2.445   4.725
21012WAT     H263279   8.113   2.546   4.599
21013WAT      O63280   7.756   6.710   1.823
21013WAT     H163281   7.748   6.655   1.906
21013WAT     H263282   7.697   6.671   1.751
21014WAT      O63283   8.535   3.570   5.195
21014WAT     H163284   8.541   3.487   5.252
21014WAT     H263285   8.624   3.615   5.192
21015WAT      O63286   9.798   5.072   9.332
21015WAT     H163287   9.801   5.018   9.248
21015WAT     H263288   9.706   5.072   9.369
21016WAT      O63289   7.231   9.138   0.412
21016WAT     H163290   7.137   9.151   0.381
21016WAT     H263291   7.293   9.151   0.334
21017WAT      O63292   3.805   0.446   3.396
21017WAT     H163293   3.748   0.520   3.359
21017WAT     H263294   3.754   0.398   3.467
21018WAT      O63295   6.862   7.523   4.135
21018WAT     H163296   6.899   7.532   4.227
21018WAT     H263297   6.922   7.465   4.080
21019WAT      O63298   5.840   1.146   5.151
21019WAT     H163299   5.903   1.106   5.085
21019WAT     H263300   5.875   1.236   5.179
21020WAT      O63301   5.871   5.086   3.890
21020WAT     H163302   5.789   5.058   3.940
21020WAT     H263303   5.864   5.184   3.868
21021WAT      O63304   7.469   7.229   1.897
21021WAT     H163305   7.419   7.224   1.810
21021WAT     H263306   7.567   7.225   1.880
21022WAT      O63307   5.010   0.665   0.499
21022WAT     H163308   5.014   0.650   0.598
21022WAT     H263309   5.072   0.740   0.474
21023WAT      O63310   4.259   2.588   9.126
21023WAT     H163311   4.179   2.596   9.186
21023WAT     H263312   4.334   2.546   9.176
21024WAT      O63313   6.123   7.952   7.987
21024WAT     H163314   6.104   7.972   8.083
21024WAT     H263315   6.070   8.014   7.929
21025WAT      O63316   6.054   1.909   2.659
21025WAT     H163317   6.147   1.944   2.646
21025WAT     H263318   6.035   1.839   2.590
21026WAT      O63319   4.272   2.094   6.539
21026WAT     H163320   4.263   2.180   6.489
21026WAT     H263321   4.205   2.029   6.505
21027WAT      O63322   3.449   9.021   4.279
21027WAT     H163323   3.510   8.970   4.219
21027WAT     H263324   3.491   9.032   4.369
21028WAT      O63325   9.286   7.092   2.419
21028WAT     H163326   9.204   7.053   2.461
21028WAT     H263327   9.359   7.023   2.421
21029WAT      O63328   1.975   7.814   8.235
21029WAT     H163329   1.979   7.787   8.139
21029WAT     H263330   1.926   7.901   8.243
21030WAT      O63331   6.262   9.344   7.657
21030WAT     H163332   6.252   9.267   7.720
21030WAT     H263333   6.357   9.375   7.659
21031WAT      O63334   8.876   8.421   0.153
21031WAT     H163335   8.920   8.470   0.077
21031WAT     H263336   8.840   8.334   0.120
21032WAT      O63337   0.045   3.374   0.116
21032WAT     H163338  -0.049   3.361   0.086
21032WAT     H263339   0.063   3.472   0.129
21033WAT      O63340   9.823   5.082   0.415
21033WAT     H163341   9.724   5.074   0.400
21033WAT     H263342   9.844   5.171   0.455
21034WAT      O63343   0.105   4.338   7.125
21034WAT     H163344   0.016   4.302   7.095
21034WAT     H263345   0.096   4.377   7.216
21035WAT      O63346   5.616   2.701   0.028
21035WAT     H163347   5.678   2.636   0.071
21035WAT     H263348   5.565   2.751   0.098
21036WAT      O63349   8.304   2.676   9.455
21036WAT     H163350   8.308   2.665   9.356
21036WAT     H263351   8.314   2.773   9.478
21037WAT      O63352   3.197   6.166   1.383
21037WAT     H163353   3.129   6.227   1.343
21037WAT     H263354   3.269   6.221   1.427
21038WAT      O63355   7.855   8.415   3.845
21038WAT     H163356   7.925   8.468   3.796
21038WAT     H263357   7.844   8.326   3.800
21039WAT      O63358   6.343   2.764   1.608
21039WAT     H163359   6.359   2.767   1.706
21039WAT     H263360   6.260   2.710   1.590
21040WAT      O63361   7.595   5.871   2.577
21040WAT     H163362   7.644   5.927   2.644
21040WAT     H263363   7.660   5.832   2.512
21041WAT      O63364   9.710   6.243   4.063
21041WAT     H163365   9.741   6.282   3.977
21041WAT     H263366   9.611   6.257   4.072
21042WAT      O63367   7.453   4.657   2.183
21042WAT     H163368   7.385   4.587   2.206
21042WAT     H263369   7.425   4.744   2.223
21043WAT      O63370   3.242   1.250   8.441
21043WAT     H163371   3.184   1.179   8.401
21043WAT     H263372   3.241   1.330   8.381
21044WAT      O63373   0.553   3.446   2.596
21044WAT     H163374   0.583   3.393   2.517
21044WAT     H263375   0.453   3.440   2.604
21045WAT      O63376   9.311   8.138   7.534
21045WAT     H163377   9.284   8.094   7.449
21045WAT     H263378   9.316   8.237   7.521
21046WAT      O63379   3.365   6.628   0.928
21046WAT     H163380   3.325   6.587   1.010
21046WAT     H263381   3.402   6.718   0.950
21047WAT      O63382   9.085   1.775   1.524
21047WAT     H163383   9.142   1.714   1.469
21047WAT     H263384   9.064   1.858   1.472
21048WAT      O63385   1.749   1.307   2.174
21048WAT     H163386   1.649   1.301   2.172
21048WAT     H263387   1.780   1.370   2.103
21049WAT      O63388   9.878   8.142   6.545
21049WAT     H163389   9.832   8.229   6.528
21049WAT     H263390   9.844   8.073   6.481
21050WAT      O63391   4.410   9.251   4.491
21050WAT     H163392   4.429   9.346   4.469
21050WAT     H263393   4.348   9.212   4.424
21051WAT      O63394   4.020   0.967   9.882
21051WAT     H163395   4.070   0.882   9.868
21051WAT     H263396   4.073   1.028   9.941
21052WAT      O63397   1.769   1.316   6.576
21052WAT     H163398   1.859   1.339   6.539
21052WAT     H263399   1.772   1.225   6.617
21053WAT      O63400   4.544   0.118   5.374
21053WAT     H163401   4.621   0.180   5.358
21053WAT     H263402   4.510   0.084   5.286
21054WAT      O63403   4.422   2.102   1.319
21054WAT     H163404   4.405   2.121   1.223
21054WAT     H263405   4.341   2.059   1.360
21055WAT      O63406   9.603   3.125   9.072
21055WAT     H163407   9.611   3.055   9.143
21055WAT     H263408   9.648   3.094   8.988
21056WAT      O63409   6.364   7.754   1.676
21056WAT     H163410   6.310   7.745   1.592
21056WAT     H263411   6.458   7.779   1.654
21057WAT      O63412   7.464   6.825   3.926
21057WAT     H163413   7.544   6.858   3.977
21057WAT     H263414   7.495   6.780   3.842
21058WAT      O63415   0.848   2.024   7.030
21058WAT     H163416   0.923   1.995   7.089
21058WAT     H263417   0.849   2.123   7.020
21059WAT      O63418   1.645   1.501   0.418
21059WAT     H163419   1.664   1.409   0.384
21059WAT     H263420   1.730   1.552   0.425
21060WAT      O63421   2.774   9.527   7.876
21060WAT     H163422   2.702   9.580   7.921
21060WAT     H263423   2.738   9.438   7.849
21061WAT      O63424   3.246   7.139   1.688
21061WAT     H163425   3.195   7.207   1.634
21061WAT     H263426   3.342   7.139   1.657
21062WAT      O63427   7.895   1.132   3.496
21062WAT     H163428   7.901   1.122   3.397
21062WAT     H263429   7.972   1.085   3.540
21063WAT      O63430   0.959   1.449   3.569
21063WAT     H163431   0.988   1.536   3.531
21063WAT     H263432   0.927   1.389   3.496
21064WAT      O63433   3.876   3.230   7.433
21064WAT     H163434   3.847   3.135   7.428
21064WAT     H263435   3.928   3.254   7.351
21065WAT      O63436   2.512   2.349   9.297
21065WAT     H163437   2.611   2.336   9.306
21065WAT     H263438   2.473   2.376   9.385
21066WAT      O63439   8.803   7.840   5.807
21066WAT     H163440   8.897   7.806   5.812
21066WAT     H263441   8.739   7.763   5.805
21067WAT      O63442   5.207   0.649   6.052
21067WAT     H163443   5.247   0.695   6.131
21067WAT     H263444   5.279   0.618   5.990
21068WAT      O63445   0.193   3.493   1.015
21068WAT     H163446   0.191   3.448   1.104
21068WAT     H263447   0.205   3.424   0.944
21069WAT      O63448   9.524   2.378   9.136
21069WAT     H163449   9.535   2.286   9.172
21069WAT     H263450   9.559   2.382   9.042
21070WAT      O63451   2.943   6.499   7.762
21070WAT     H163452   2.849   6.520   7.733
21070WAT     H263453   2.996   6.583   7.767
21071WAT      O63454   5.105   4.457   9.739
21071WAT     H163455   5.073   4.482   9.830
21071WAT     H263456   5.032   4.411   9.689
21072WAT      O63457   5.041   4.881   6.584
21072WAT     H163458   5.058   4.936   6.502
21072WAT     H263459   4.943   4.881   6.604
21073WAT      O63460   8.159   8.618   4.258
21073WAT     H163461   8.245   8.631   4.209
21073WAT     H263462   8.089   8.586   4.193
21074WAT      O63463   7.885   3.989   7.695
21074WAT     H163464   7.814   4.042   7.741
21074WAT     H263465   7.868   3.988   7.597
21075WAT      O63466   0.138   0.785   4.868
21075WAT     H163467   0.130   0.728   4.786
21075WAT     H263468   0.063   0.764   4.931
21076WAT      O63469   4.853   0.390   5.032
21076WAT     H163470   4.847   0.481   5.072
21076WAT     H263471   4.763   0.360   5.002
21077WAT      O63472   0.053   1.631   2.287
21077WAT     H163473   0.045   1.711   2.228
21077WAT     H263474   0.141   1.587   2.271
21078WAT      O63475   7.700   1.777   7.486
21078WAT     H163476   7.750   1.771   7.572
21078WAT     H263477   7.635   1.701   7.480
21079WAT      O63478   1.549   7.349   0.952
21079WAT     H163479   1.543   7.364   1.051
21079WAT     H263480   1.507   7.426   0.904
21080WAT      O63481   7.442   6.283   1.553
21080WAT     H163482   7.353   6.273   1.508
21080WAT     H263483   7.447   6.221   1.631
21081WAT      O63484   0.793   9.811   2.434
21081WAT     H163485   0.887   9.828   2.406
21081WAT     H263486   0.730   9.852   2.368
21082WAT      O63487   6.409   9.739   3.940
21082WAT     H163488   6.310   9.739   3.927
21082WAT     H263489   6.439   9.829   3.972
21083WAT      O63490   6.241   4.676   9.342
21083WAT     H163491   6.256   4.600   9.405
21083WAT     H263492   6.143   4.687   9.326
21084WAT      O63493   8.229   3.284   5.320
21084WAT     H163494   8.184   3.360   5.272
21084WAT     H263495   8.160   3.231   5.369
21085WAT      O63496   8.690   4.793   3.707
21085WAT     H163497   8.649   4.883   3.723
21085WAT     H263498   8.619   4.723   3.714
21086WAT      O63499   2.881   1.378   2.639
21086WAT     H163500   2.940   1.457   2.657
21086WAT     H263501   2.791   1.410   2.608
21087WAT      O63502   5.965   5.844   4.812
21087WAT     H163503   5.871   5.856   4.843
21087WAT     H263504   5.974   5.756   4.765
21088WAT      O63505   2.711   1.185   8.205
21088WAT     H163506   2.641   1.223   8.145
21088WAT     H263507   2.760   1.112   8.157
21089WAT      O63508   3.945   0.919   5.526
21089WAT     H163509   3.991   0.902   5.439
21089WAT     H263510   3.987   0.999   5.570
21090WAT      O63511   1.297   4.875   1.531
21090WAT     H163512   1.303   4.775   1.526
21090WAT     H263513   1.314   4.905   1.625
21091WAT      O63514   6.257   9.721   5.412
21091WAT     H163515   6.266   9.677   5.502
21091WAT     H263516   6.340   9.703   5.359
21092WAT      O63517   0.967   4.014   6.015
21092WAT     H163518   0.877   4.056   6.029
21092WAT     H263519   1.037   4.085   6.015
21093WAT      O63520   4.949   2.995   5.189
21093WAT     H163521   4.902   2.942   5.118
21093WAT     H263522   4.901   3.081   5.205
21094WAT      O63523   1.753   0.432   0.518
21094WAT     H163524   1.844   0.401   0.544
21094WAT     H263525   1.761   0.514   0.461
21095WAT      O63526   5.720   9.594   3.402
21095WAT     H163527   5.730   9.684   3.358
21095WAT     H263528   5.809   9.564   3.437
21096WAT      O63529   9.856   8.141   4.793
21096WAT     H163530   9.914   8.060   4.804
21096WAT     H263531   9.790   8.145   4.868
21097WAT      O63532   2.125   1.269   4.550
21097WAT     H163533   2.162   1.189   4.503
21097WAT     H263534   2.137   1.257   4.649
21098WAT      O63535   9.185   3.622   2.309
21098WAT     H163536   9.275   3.643   2.349
21098WAT     H263537   9.162   3.691   2.241
21099WAT      O63538   3.498   1.234   9.463
21099WAT     H163539   3.562   1.235   9.540
21099WAT     H263540   3.525   1.164   9.397
21100WAT      O63541   3.376   0.570   0.581
21100WAT     H163542   3.296   0.593   0.636
21100WAT     H263543   3.430   0.501   0.628
21101WAT      O63544   1.685   5.542   3.100
21101WAT     H163545   1.647   5.604   3.032
21101WAT     H263546   1.778   5.570   3.122
21102WAT      O63547   6.193   4.285   6.075
21102WAT     H163548   6.261   4.243   6.015
21102WAT     H263549   6.117   4.319   6.020
21103WAT      O63550   9.063   7.127   4.317
21103WAT     H163551   9.123   7.060   4.275
21103WAT     H263552   8.993   7.081   4.371
21104WAT      O63553   0.771   2.573   1.781
21104WAT     H163554   0.825   2.501   1.738
21104WAT     H263555   0.675   2.565   1.752
21105WAT      O63556   5.479   4.793   0.073
21105WAT     H163557   5.438   4.761   0.158
21105WAT     H263558   5.578   4.792   0.081
21106WAT      O63559   1.281   4.603   1.457
21106WAT     H163560   1.268   4.507   1.481
21106WAT     H263561   1.227   4.625   1.375
21107WAT      O63562   1.096   6.850   9.417
21107WAT     H163563   1.169   6.867   9.351
21107WAT     H263564   1.008   6.844   9.369
21108WAT      O63565   3.820   8.581   4.034
21108WAT     H163566   3.776   8.575   3.944
21108WAT     H263567   3.911   8.540   4.029
21109WAT      O63568   9.180   7.497   9.278
21109WAT     H163569   9.188   7.585   9.232
21109WAT     H263570   9.114   7.440   9.230
21110WAT      O63571   4.121   2.205   9.062
21110WAT     H163572   4.035   2.158   9.038
21110WAT     H263573   4.143   2.272   8.991
21111WAT      O63574   8.608   6.687   0.899
21111WAT     H163575   8.700   6.699   0.862
21111WAT     H263576   8.567   6.604   0.862
21112WAT      O63577   2.514   8.278   6.630
21112WAT     H163578   2.474   8.360   6.670
21112WAT     H263579   2.607   8.299   6.600
21113WAT      O63580   4.696   3.881   8.337
21113WAT     H163581   4.613   3.826   8.330
21113WAT     H263582   4.752   3.849   8.414
21114WAT      O63583   1.761   4.219   5.977
21114WAT     H163584   1.856   4.209   5.949
21114WAT     H263585   1.746   4.172   6.064
21115WAT      O63586   6.377   3.066   3.300
21115WAT     H163587   6.361   3.159   3.332
21115WAT     H263588   6.339   3.001   3.366
21116WAT      O63589   8.709   5.500   7.246
21116WAT     H163590   8.740   5.519   7.153
21116WAT     H263591   8.672   5.407   7.251
21117WAT      O63592   9.520   5.131   3.690
21117WAT     H163593   9.501   5.117   3.593
21117WAT     H263594   9.553   5.045   3.730
21118WAT      O63595   6.175   3.609   0.732
21118WAT     H163596   6.214   3.519   0.716
21118WAT     H263597   6.159   3.655   0.644
21119WAT      O63598   0.749   4.473   3.307
21119WAT     H163599   0.749   4.559   3.256
21119WAT     H263600   0.655   4.447   3.328
21120WAT      O63601   7.730   5.400   0.395
21120WAT     H163602   7.768   5.364   0.311
21120WAT     H263603   7.658   5.339   0.428
21121WAT      O63604   1.871   8.811   5.263
21121WAT     H163605   1.866   8.780   5.358
21121WAT     H263606   1.798   8.876   5.246
21122WAT      O63607   9.461   8.017   1.232
21122WAT     H163608   9.469   8.083   1.306
21122WAT     H263609   9.391   8.048   1.167
21123WAT      O63610   4.988   0.298   5.880
21123WAT     H163611   4.975   0.200   5.889
21123WAT     H263612   5.060   0.316   5.812
21124WAT      O63613   8.553   6.555   4.711
21124WAT     H163614   8.563   6.512   4.622
21124WAT     H263615   8.634   6.609   4.733
21125WAT      O63616   5.449   3.358   8.517
21125WAT     H163617   5.362   3.308   8.516
21125WAT     H263618   5.436   3.447   8.560
21126WAT      O63619   0.982   6.281   6.122
21126WAT     H163620   0.956   6.234   6.038
21126WAT     H263621   0.925   6.248   6.197
21127WAT      O63622   1.010   8.424   5.883
21127WAT     H163623   0.999   8.439   5.981
21127WAT     H263624   1.074   8.491   5.846
21128WAT      O63625   1.354   1.742   7.396
21128WAT     H163626   1.282   1.746   7.326
21128WAT     H263627   1.425   1.678   7.366
21129WAT      O63628   7.462   7.437   6.480
21129WAT     H163629   7.558   7.408   6.480
21129WAT     H263630   7.416   7.398   6.400
21130WAT      O63631   7.215   3.594   0.572
21130WAT     H163632   7.251   3.547   0.652
21130WAT     H263633   7.278   3.584   0.495
21131WAT      O63634   9.883   4.787   5.937
21131WAT     H163635   9.786   4.801   5.917
21131WAT     H263636   9.939   4.831   5.867
21132WAT      O63637   5.288   7.087   7.815
21132WAT     H163638   5.368   7.140   7.841
21132WAT     H263639   5.315   6.992   7.800
21133WAT      O63640   0.365   3.451   3.719
21133WAT     H163641   0.436   3.513   3.753
21133WAT     H263642   0.395   3.410   3.633
21134WAT      O63643   1.735   3.910   4.797
21134WAT     H163644   1.673   3.836   4.824
21134WAT     H263645   1.689   3.969   4.731
21135WAT      O63646   1.438   1.795   3.669
21135WAT     H163647   1.485   1.763   3.752
21135WAT     H263648   1.503   1.798   3.593
21136WAT      O63649   7.070   6.406   9.872
21136WAT     H163650   7.105   6.411   9.779
21136WAT     H263651   6.971   6.394   9.870
21137WAT      O63652   0.911   3.244   9.412
21137WAT     H163653   0.913   3.315   9.481
21137WAT     H263654   0.953   3.277   9.328
21138WAT      O63655   6.496   9.662   8.326
21138WAT     H163656   6.571   9.602   8.300
21138WAT     H263657   6.449   9.694   8.244
21139WAT      O63658   1.439   3.041   0.204
21139WAT     H163659   1.471   2.980   0.132
21139WAT     H263660   1.339   3.041   0.206
21140WAT      O63661   4.662   6.131   3.320
21140WAT     H163662   4.692   6.222   3.290
21140WAT     H263663   4.606   6.089   3.249
21141WAT      O63664   4.230   9.110   8.953
21141WAT     H163665   4.134   9.131   8.933
21141WAT     H263666   4.251   9.131   9.048
21142WAT      O63667   6.942   5.668   2.685
21142WAT     H163668   6.899   5.588   2.728
21142WAT     H263669   6.882   5.747   2.697
21143WAT      O63670   9.123   3.446   1.228
21143WAT     H163671   9.182   3.479   1.155
21143WAT     H263672   9.178   3.397   1.296
21144WAT      O63673   2.426   6.360   7.190
21144WAT     H163674   2.381   6.351   7.279
21144WAT     H263675   2.488   6.283   7.175
21145WAT      O63676   7.866   5.895   3.749
21145WAT     H163677   7.890   5.809   3.793
21145WAT     H263678   7.767   5.902   3.743
21146WAT      O63679   0.173   5.642   0.288
21146WAT     H163680   0.098   5.672   0.229
21146WAT     H263681   0.214   5.559   0.249
21147WAT      O63682   6.930   1.251   9.309
21147WAT     H163683   6.994   1.176   9.325
21147WAT     H263684   6.943   1.322   9.379
21148WAT      O63685   3.568   7.700   6.552
21148WAT     H163686   3.533   7.739   6.467
21148WAT     H263687   3.668   7.710   6.555
21149WAT      O63688   2.633   7.478   7.565
21149WAT     H163689   2.619   7.386   7.602
21149WAT     H263690   2.673   7.472   7.474
21150WAT      O63691   0.804   0.860   0.080
21150WAT     H163692   0.824   0.927   0.009
21150WAT     H263693   0.885   0.849   0.139
21151WAT      O63694   4.042   7.836   8.345
21151WAT     H163695   4.054   7.748   8.300
21151WAT     H263696   3.969   7.830   8.413
21152WAT      O63697   1.057   5.989   7.999
21152WAT     H163698   1.138   5.931   7.992
21152WAT     H263699   0.987   5.944   8.054
21153WAT      O63700   1.806   1.061   6.655
21153WAT     H163701   1.835   1.057   6.750
21153WAT     H263702   1.824   0.973   6.611
21154WAT      O63703   6.776   0.642   3.052
21154WAT     H163704   6.708   0.622   3.122
21154WAT     H263705   6.862   0.671   3.095
21155WAT      O63706   0.420   7.819   4.585
21155WAT     H163707   0.355   7.761   4.634
21155WAT     H263708   0.489   7.853   4.650
21156WAT      O63709   6.272   7.765   2.561
21156WAT     H163710   6.224   7.679   2.575
21156WAT     H263711   6.362   7.760   2.605
21157WAT      O63712   1.595   7.019   6.723
21157WAT     H163713   1.610   7.093   6.789
21157WAT     H263714   1.541   6.947   6.765
21158WAT      O63715   7.018   5.268   8.059
21158WAT     H163716   6.993   5.293   7.965
21158WAT     H263717   7.116   5.251   8.064
21159WAT      O63718   0.461   1.823   2.846
21159WAT     H163719   0.455   1.902   2.907
21159WAT     H263720   0.509   1.749   2.893
21160WAT      O63721   6.448   8.496   5.234
21160WAT     H163722   6.410   8.572   5.181
21160WAT     H263723   6.543   8.515   5.257
21161WAT      O63724   8.161   0.165   5.845
21161WAT     H163725   8.117   0.179   5.934
21161WAT     H263726   8.236   0.100   5.854
21162WAT      O63727   7.865   4.777   3.925
21162WAT     H163728   7.952   4.826   3.925
21162WAT     H263729   7.875   4.691   3.874
21163WAT      O63730   5.656   0.433   1.022
21163WAT     H163731   5.754   0.413   1.024
21163WAT     H263732   5.628   0.449   0.927
21164WAT      O63733   9.685   6.038   2.941
21164WAT     H163734   9.702   5.959   3.000
21164WAT     H263735   9.677   6.008   2.846
21165WAT      O63736   8.078   5.159   8.874
21165WAT     H163737   8.031   5.167   8.786
21165WAT     H263738   8.158   5.100   8.864
21166WAT      O63739   5.986   6.409   1.379
21166WAT     H163740   6.023   6.496   1.348
21166WAT     H263741   6.053   6.361   1.436
21167WAT      O63742   5.800   9.092   7.338
21167WAT     H163743   5.875   9.063   7.397
21167WAT     H263744   5.826   9.175   7.289
21168WAT      O63745   7.670   4.919   2.571
21168WAT     H163746   7.760   4.906   2.611
21168WAT     H263747   7.610   4.843   2.595
21169WAT      O63748   5.639   0.470   8.756
21169WAT     H163749   5.615   0.373   8.757
21169WAT     H263750   5.608   0.511   8.671
21170WAT      O63751   3.951   3.122   3.991
21170WAT     H163752   3.944   3.127   3.892
21170WAT     H263753   3.950   3.214   4.030
21171WAT      O63754   0.914   2.091   0.513
21171WAT     H163755   0.820   2.087   0.547
21171WAT     H263756   0.966   2.012   0.546
21172WAT      O63757   2.150   8.478   4.951
21172WAT     H163758   2.108   8.539   5.017
21172WAT     H263759   2.180   8.394   4.996
21173WAT      O63760   6.600   8.425   0.793
21173WAT     H163761   6.564   8.413   0.886
21173WAT     H263762   6.678   8.488   0.797
21174WAT      O63763   5.409   7.108   1.161
21174WAT     H163764   5.508   7.118   1.174
21174WAT     H263765   5.389   7.098   1.063
21175WAT      O63766   9.079   1.937   3.701
21175WAT     H163767   9.138   1.905   3.775
21175WAT     H263768   9.070   2.037   3.706
21176WAT      O63769   2.246   4.593   8.865
21176WAT     H163770   2.234   4.494   8.878
21176WAT     H263771   2.331   4.623   8.909
21177WAT      O63772   9.701   4.548   5.712
21177WAT     H163773   9.611   4.558   5.670
21177WAT     H263774   9.694   4.565   5.810
21178WAT      O63775   2.151   3.825   4.187
21178WAT     H163776   2.162   3.855   4.093
21178WAT     H263777   2.154   3.904   4.248
21179WAT      O63778   8.457   0.603   9.641
21179WAT     H163779   8.534   0.601   9.577
21179WAT     H263780   8.482   0.554   9.725
21180WAT      O63781   7.970   6.767   3.813
21180WAT     H163782   7.919   6.684   3.788
21180WAT     H263783   7.938   6.801   3.901
21181WAT      O63784   0.212   5.129   5.236
21181WAT     H163785   0.171   5.106   5.324
21181WAT     H263786   0.172   5.072   5.164
21182WAT      O63787   2.488   4.020   7.887
21182WAT     H163788   2.581   4.040   7.919
21182WAT     H263789   2.429   4.004   7.966
21183WAT      O63790   9.303   1.398   7.292
21183WAT     H163791   9.249   1.345   7.357
21183WAT     H263792   9.370   1.338   7.248
21184WAT      O63793   6.853   2.283   7.579
21184WAT     H163794   6.821   2.248   7.491
21184WAT     H263795   6.869   2.382   7.572
21185WAT      O63796   2.792   2.574   0.455
21185WAT     H163797   2.810   2.480   0.485
21185WAT     H263798   2.702   2.602   0.488
21186WAT      O63799   2.628   5.320   7.641
21186WAT     H163800   2.634   5.347   7.737
21186WAT     H263801   2.532   5.321   7.612
21187WAT      O63802   4.854   4.688   6.122
21187WAT     H163803   4.828   4.771   6.170
21187WAT     H263804   4.816   4.688   6.030
21188WAT      O63805   6.604   2.704   5.094
21188WAT     H163806   6.611   2.674   5.189
21188WAT     H263807   6.601   2.804   5.091
21189WAT      O63808   5.007   5.295   2.173
21189WAT     H163809   4.953   5.286   2.090
21189WAT     H263810   4.950   5.279   2.253
21190WAT      O63811   8.318   1.529   8.036
21190WAT     H163812   8.366   1.580   7.964
21190WAT     H263813   8.377   1.523   8.117
21191WAT      O63814   4.871   9.613   8.266
21191WAT     H163815   4.956   9.600   8.215
21191WAT     H263816   4.854   9.711   8.278
21192WAT      O63817   7.018   0.971   8.404
21192WAT     H163818   6.944   1.010   8.459
21192WAT     H263819   7.020   0.872   8.418
21193WAT      O63820   8.283   3.583   3.610
21193WAT     H163821   8.290   3.681   3.624
21193WAT     H263822   8.289   3.563   3.512
21194WAT      O63823   4.397   1.267   7.538
21194WAT     H163824   4.479   1.292   7.487
21194WAT     H263825   4.415   1.185   7.593
21195WAT      O63826   8.602   4.866   3.378
21195WAT     H163827   8.629   4.871   3.282
21195WAT     H263828   8.636   4.946   3.428
21196WAT      O63829   4.355   7.691   7.681
21196WAT     H163830   4.265   7.690   7.725
21196WAT     H263831   4.424   7.718   7.748
21197WAT      O63832   5.138   6.978   4.054
21197WAT     H163833   5.056   6.990   3.999
21197WAT     H263834   5.219   6.979   3.995
21198WAT      O63835   6.216   8.086   4.571
21198WAT     H163836   6.289   8.062   4.635
21198WAT     H263837   6.142   8.132   4.621
21199WAT      O63838   0.383   2.030   3.869
21199WAT     H163839   0.439   2.112   3.886
21199WAT     H263840   0.290   2.058   3.847
21200WAT      O63841   4.815   0.035   8.307
21200WAT     H163842   4.873   0.074   8.380
21200WAT     H263843   4.806   0.101   8.233
21201WAT      O63844   4.021   7.657   3.310
21201WAT     H163845   4.043   7.714   3.389
21201WAT     H263846   3.927   7.624   3.317
21202WAT      O63847   7.875   7.206   3.330
21202WAT     H163848   7.792   7.259   3.314
21202WAT     H263849   7.870   7.163   3.420
21203WAT      O63850   9.846   8.126   0.374
21203WAT     H163851   9.771   8.173   0.326
21203WAT     H263852   9.934   8.154   0.333
21204WAT      O63853   0.040   3.915   4.625
21204WAT     H163854   0.018   3.870   4.538
21204WAT     H263855   0.066   3.845   4.692
21205WAT      O63856   1.479   3.221   0.972
21205WAT     H163857   1.380   3.215   0.961
21205WAT     H263858   1.504   3.317   0.991
21206WAT      O63859   6.754   0.697   7.886
21206WAT     H163860   6.700   0.767   7.932
21206WAT     H263861   6.825   0.664   7.948
21207WAT      O63862   8.971   0.062   5.049
21207WAT     H163863   8.884   0.107   5.068
21207WAT     H263864   9.047   0.122   5.075
21208WAT      O63865   6.185   0.599   1.677
21208WAT     H163866   6.087   0.615   1.663
21208WAT     H263867   6.237   0.675   1.636
21209WAT      O63868   3.290   7.277   7.068
21209WAT     H163869   3.346   7.214   7.015
21209WAT     H263870   3.195   7.246   7.068
21210WAT      O63871   8.047   6.487   8.584
21210WAT     H163872   8.090   6.562   8.532
21210WAT     H263873   7.992   6.525   8.658
21211WAT      O63874   3.939   8.276   6.506
21211WAT     H163875   3.918   8.370   6.530
21211WAT     H263876   3.922   8.261   6.409
21212WAT      O63877   5.317   7.905   4.635
21212WAT     H163878   5.308   7.808   4.656
21212WAT     H263879   5.279   7.923   4.544
21213WAT      O63880   3.737   2.902   1.415
21213WAT     H163881   3.650   2.950   1.424
21213WAT     H263882   3.762   2.896   1.319
21214WAT      O63883   8.476   3.657   8.191
21214WAT     H163884   8.509   3.579   8.245
21214WAT     H263885   8.435   3.624   8.106
21215WAT      O63886   0.945   6.398   2.770
21215WAT     H163887   0.957   6.483   2.719
21215WAT     H263888   0.906   6.418   2.860
21216WAT      O63889   3.982   3.967   8.232
21216WAT     H163890   4.027   4.055   8.238
21216WAT     H263891   3.886   3.976   8.260
21217WAT      O63892   5.682   8.526   0.218
21217WAT     H163893   5.626   8.599   0.257
21217WAT     H263894   5.704   8.459   0.290
21218WAT      O63895   8.412   5.933   2.883
21218WAT     H163896   8.408   5.846   2.834
21218WAT     H263897   8.330   5.986   2.864
21219WAT      O63898   6.109   9.502   5.591
21219WAT     H163899   6.036   9.449   5.635
21219WAT     H263900   6.096   9.599   5.611
21220WAT      O63901   9.022   7.166   9.598
21220WAT     H163902   9.101   7.162   9.538
21220WAT     H263903   9.016   7.081   9.652
21221WAT      O63904   6.732   3.979   1.709
21221WAT     H163905   6.642   4.018   1.690
21221WAT     H263906   6.803   4.044   1.681
21222WAT      O63907   6.346   4.249   0.965
21222WAT     H163908   6.379   4.256   0.871
21222WAT     H263909   6.267   4.310   0.977
21223WAT      O63910   6.093   1.755   6.261
21223WAT     H163911   6.014   1.796   6.217
21223WAT     H263912   6.131   1.684   6.201
21224WAT      O63913   1.897   7.448   3.674
21224WAT     H163914   1.831   7.398   3.730
21224WAT     H263915   1.860   7.537   3.649
21225WAT      O63916   8.227   7.985   2.871
21225WAT     H163917   8.166   7.908   2.894
21225WAT     H263918   8.234   7.992   2.772
21226WAT      O63919   6.956   7.078   3.033
21226WAT     H163920   6.864   7.038   3.029
21226WAT     H263921   7.022   7.015   2.992
21227WAT      O63922   7.315   3.928   8.680
21227WAT     H163923   7.373   3.846   8.682
21227WAT     H263924   7.330   3.982   8.763
21228WAT      O63925   3.868   6.536   3.615
21228WAT     H163926   3.931   6.585   3.555
21228WAT     H263927   3.776   6.573   3.604
21229WAT      O63928   0.448   0.852   9.741
21229WAT     H163929   0.391   0.935   9.737
21229WAT     H263930   0.475   0.835   9.836
21230WAT      O63931   1.664   7.974   8.017
21230WAT     H163932   1.658   7.874   8.015
21230WAT     H263933   1.612   8.012   7.940
21231WAT      O63934   7.890   6.410   5.851
21231WAT     H163935   7.820   6.436   5.917
21231WAT     H263936   7.927   6.320   5.876
21232WAT      O63937   3.617   4.292   2.959
21232WAT     H163938   3.532   4.283   2.907
21232WAT     H263939   3.666   4.205   2.957
21233WAT      O63940   6.138   7.167   4.191
21233WAT     H163941   6.235   7.173   4.166
21233WAT     H263942   6.114   7.245   4.248
21234WAT      O63943   8.021   8.256   8.450
21234WAT     H163944   7.952   8.270   8.379
21234WAT     H263945   8.062   8.165   8.439
21235WAT      O63946   5.186   9.640   5.030
21235WAT     H163947   5.242   9.612   4.952
21235WAT     H263948   5.090   9.633   5.006
21236WAT      O63949   5.519   6.459   2.569
21236WAT     H163950   5.523   6.535   2.505
21236WAT     H263951   5.437   6.405   2.551
21237WAT      O63952   8.325   4.094   6.107
21237WAT     H163953   8.231   4.107   6.137
21237WAT     H263954   8.372   4.031   6.169
21238WAT      O63955   8.319   9.529   7.068
21238WAT     H163956   8.308   9.517   7.167
21238WAT     H263957   8.330   9.626   7.048
21239WAT      O63958   1.875   5.506   6.511
21239WAT     H163959   1.775   5.507   6.516
21239WAT     H263960   1.906   5.581   6.452
21240WAT      O63961   1.826   0.635   2.516
21240WAT     H163962   1.799   0.540   2.532
21240WAT     H263963   1.782   0.668   2.432
21241WAT      O63964   5.952   7.466   6.772
21241WAT     H163965   5.954   7.532   6.847
21241WAT     H263966   5.904   7.384   6.801
21242WAT      O63967   6.591   1.193   2.227
21242WAT     H163968   6.579   1.098   2.195
21242WAT     H263969   6.636   1.246   2.155
21243WAT      O63970   2.052   5.914   5.998
21243WAT     H163971   1.973   5.916   5.936
21243WAT     H263972   2.100   5.827   5.989
21244WAT      O63973   1.557   6.983   4.764
21244WAT     H163974   1.600   6.943   4.683
21244WAT     H263975   1.598   7.072   4.783
21245WAT      O63976   9.017   4.460   7.911
21245WAT     H163977   9.097   4.520   7.904
21245WAT     H263978   9.009   4.426   8.004
21246WAT      O63979   1.846   5.356   4.950
21246WAT     H163980   1.828   5.262   4.923
21246WAT     H263981   1.915   5.358   5.022
21247WAT      O63982   9.639   7.319   8.734
21247WAT     H163983   9.718   7.376   8.712
21247WAT     H263984   9.601   7.347   8.822
21248WAT      O63985   0.211   8.385   8.971
21248WAT     H163986   0.247   8.389   9.064
21248WAT     H263987   0.221   8.292   8.935
21249WAT      O63988   9.347   9.782   2.840
21249WAT     H163989   9.295   9.800   2.924
21249WAT     H263990   9.395   9.866   2.813
21250WAT      O63991   3.247   4.888   7.923
21250WAT     H163992   3.223   4.982   7.899
21250WAT     H263993   3.315   4.853   7.859
21251WAT      O63994   7.377   9.360   9.302
21251WAT     H163995   7.278   9.363   9.312
21251WAT     H263996   7.415   9.452   9.314
21252WAT      O63997   7.453   0.645   9.611
21252WAT     H163998   7.528   0.580   9.616
21252WAT     H263999   7.480   0.723   9.555
21253WAT      O64000   1.913   5.694   8.541
21253WAT     H164001   1.994   5.753   8.534
21253WAT     H264002   1.836   5.747   8.575
21254WAT      O64003   5.692   9.653   0.630
21254WAT     H164004   5.743   9.568   0.647
21254WAT     H264005   5.632   9.672   0.707
21255WAT      O64006   0.032   6.339   7.373
21255WAT     H164007   0.028   6.239   7.381
21255WAT     H264008  -0.058   6.374   7.347
21256WAT      O64009   2.795   3.887   3.090
21256WAT     H164010   2.750   3.947   3.157
21256WAT     H264011   2.803   3.795   3.128
21257WAT      O64012   1.830   5.015   1.906
21257WAT     H164013   1.862   5.074   1.832
21257WAT     H264014   1.825   4.921   1.873
21258WAT      O64015   5.400   5.296   8.483
21258WAT     H164016   5.381   5.345   8.568
21258WAT     H264017   5.497   5.274   8.477
21259WAT      O64018   8.796   6.114   4.746
21259WAT     H164019   8.809   6.099   4.648
21259WAT     H264020   8.778   6.211   4.762
21260WAT      O64021   0.927   0.846   1.029
21260WAT     H164022   1.015   0.861   1.074
21260WAT     H264023   0.911   0.747   1.018
21261WAT      O64024   4.963   9.580   9.594
21261WAT     H164025   4.984   9.482   9.587
21261WAT     H264026   4.978   9.610   9.688
21262WAT      O64027   9.547   8.262   2.004
21262WAT     H164028   9.517   8.341   2.058
21262WAT     H264029   9.467   8.204   1.983
21263WAT      O64030   6.902   1.677   1.173
21263WAT     H164031   6.861   1.757   1.217
21263WAT     H264032   6.830   1.613   1.147
21264WAT      O64033   5.962   0.299   9.000
21264WAT     H164034   5.876   0.260   9.033
21264WAT     H264035   6.028   0.302   9.075
21265WAT      O64036   7.010   5.195   0.104
21265WAT     H164037   6.984   5.239   0.018
21265WAT     H264038   7.051   5.106   0.084
21266WAT      O64039   8.652   4.901   8.205
21266WAT     H164040   8.651   4.809   8.166
21266WAT     H264041   8.682   4.966   8.135
21267WAT      O64042   7.490   3.357   2.797
21267WAT     H164043   7.397   3.387   2.774
21267WAT     H264044   7.485   3.280   2.861
21268WAT      O64045   6.737   4.670   2.974
21268WAT     H164046   6.676   4.595   2.946
21268WAT     H264047   6.791   4.641   3.053
21269WAT      O64048   4.635   1.319   7.401
21269WAT     H164049   4.580   1.383   7.348
21269WAT     H264050   4.650   1.236   7.348
21270WAT      O64051   2.361   8.564   8.320
21270WAT     H164052   2.291   8.493   8.309
21270WAT     H264053   2.323   8.639   8.374
21271WAT      O64054   1.825   4.843   0.267
21271WAT     H164055   1.787   4.786   0.195
21271WAT     H264056   1.752   4.877   0.326
21272WAT      O64057   2.980   4.193   0.457
21272WAT     H164058   3.031   4.209   0.373
21272WAT     H264059   2.904   4.131   0.438
21273WAT      O64060   7.194   0.639   5.838
21273WAT     H164061   7.094   0.643   5.847
21273WAT     H264062   7.236   0.679   5.919
21274WAT      O64063   8.537   9.216   1.881
21274WAT     H164064   8.537   9.117   1.891
21274WAT     H264065   8.558   9.240   1.786
21275WAT      O64066   0.143   4.983   0.969
21275WAT     H164067   0.179   5.063   0.920
21275WAT     H264068   0.173   4.987   1.064
21276WAT      O64069   8.926   1.812   7.265
21276WAT     H164070   8.952   1.719   7.239
21276WAT     H264071   8.835   1.833   7.229
21277WAT      O64072   9.157   7.445   1.340
21277WAT     H164073   9.164   7.533   1.387
21277WAT     H264074   9.209   7.376   1.391
21278WAT      O64075   9.624   0.550   4.148
21278WAT     H164076   9.573   0.629   4.111
21278WAT     H264077   9.593   0.467   4.103
21279WAT      O64078   0.808   5.795   3.385
21279WAT     H164079   0.805   5.770   3.482
21279WAT     H264080   0.744   5.737   3.334
21280WAT      O64081   9.643   1.972   0.435
21280WAT     H164082   9.728   1.984   0.487
21280WAT     H264083   9.567   1.961   0.499
21281WAT      O64084   9.577   9.193   3.749
21281WAT     H164085   9.479   9.187   3.765
21281WAT     H264086   9.601   9.141   3.667
21282WAT      O64087   1.265   7.223   7.622
21282WAT     H164088   1.293   7.245   7.715
21282WAT     H264089   1.166   7.205   7.620
21283WAT      O64090   7.201   7.141   7.315
21283WAT     H164091   7.103   7.164   7.317
21283WAT     H264092   7.215   7.054   7.363
21284WAT      O64093   5.208   2.621   2.188
21284WAT     H164094   5.164   2.702   2.227
21284WAT     H264095   5.298   2.610   2.229
21285WAT      O64096   5.149   5.040   7.239
21285WAT     H164097   5.225   5.074   7.183
21285WAT     H264098   5.131   5.106   7.313
21286WAT      O64099   5.707   0.280   1.687
21286WAT     H164100   5.732   0.377   1.694
21286WAT     H264101   5.608   0.271   1.678
21287WAT      O64102   6.764   3.463   1.818
21287WAT     H164103   6.762   3.563   1.808
21287WAT     H264104   6.788   3.439   1.912
21288WAT      O64105   8.524   8.471   3.909
21288WAT     H164106   8.611   8.512   3.936
21288WAT     H264107   8.523   8.375   3.937
21289WAT      O64108   8.014   3.833   5.390
21289WAT     H164109   7.944   3.813   5.322
21289WAT     H264110   8.103   3.802   5.357
21290WAT      O64111   0.454   1.957   9.387
21290WAT     H164112   0.409   1.876   9.425
21290WAT     H264113   0.552   1.953   9.408
21291WAT      O64114   1.884   5.152   7.386
21291WAT     H164115   1.821   5.153   7.464
21291WAT     H264116   1.978   5.162   7.418
21292WAT      O64117   6.371   3.448   0.134
21292WAT     H164118   6.469   3.430   0.147
21292WAT     H264119   6.318   3.371   0.169
21293WAT      O64120   2.146   2.266   2.791
21293WAT     H164121   2.226   2.209   2.775
21293WAT     H264122   2.066   2.226   2.745
21294WAT      O64123   2.289   0.229   3.251
21294WAT     H164124   2.210   0.256   3.196
21294WAT     H264125   2.373   0.253   3.202
21295WAT      O64126   5.283   6.294   2.471
21295WAT     H164127   5.351   6.226   2.443
21295WAT     H264128   5.224   6.256   2.542
21296WAT      O64129   3.633   4.927   9.781
21296WAT     H164130   3.656   4.834   9.808
21296WAT     H264131   3.617   4.930   9.682
21297WAT      O64132   0.948   9.808   1.743
21297WAT     H164133   0.994   9.731   1.697
21297WAT     H264134   1.000   9.892   1.726
21298WAT      O64135   3.235   1.210   9.567
21298WAT     H164136   3.235   1.122   9.614
21298WAT     H264137   3.324   1.225   9.523
21299WAT      O64138   1.112   0.042   4.024
21299WAT     H164139   1.176   0.037   3.948
21299WAT     H264140   1.155   0.091   4.100
21300WAT      O64141   4.995   3.453   1.682
21300WAT     H164142   4.958   3.540   1.714
21300WAT     H264143   4.936   3.416   1.610
21301WAT      O64144   0.582   1.795   4.040
21301WAT     H164145   0.518   1.864   4.074
21301WAT     H264146   0.639   1.836   3.968
21302WAT      O64147   0.065   7.137   6.290
21302WAT     H164148   0.095   7.165   6.198
21302WAT     H264149  -0.026   7.175   6.308
21303WAT      O64150   4.276   7.916   6.205
21303WAT     H164151   4.184   7.900   6.241
21303WAT     H264152   4.330   7.965   6.273
21304WAT      O64153   7.519   6.797   9.451
21304WAT     H164154   7.547   6.891   9.430
21304WAT     H264155   7.458   6.764   9.378
21305WAT      O64156   7.269   4.066   3.754
21305WAT     H164157   7.218   4.127   3.814
21305WAT     H264158   7.218   4.054   3.668
21306WAT      O64159   8.150   5.013   4.174
21306WAT     H164160   8.076   5.077   4.198
21306WAT     H264161   8.127   4.922   4.207
21307WAT      O64162   2.219   4.984   0.033
21307WAT     H164163   2.299   4.960   0.088
21307WAT     H264164   2.199   4.911  -0.031
21308WAT      O64165   7.719   9.384   8.049
21308WAT     H164166   7.698   9.327   8.129
21308WAT     H264167   7.658   9.463   8.047
21309WAT      O64168   4.477   8.827   8.630
21309WAT     H164169   4.436   8.854   8.717
21309WAT     H264170   4.452   8.733   8.609
21310WAT      O64171   3.509   4.208   1.833
21310WAT     H164172   3.585   4.249   1.884
21310WAT     H264173   3.543   4.129   1.781
21311WAT      O64174   1.972   7.786   1.025
21311WAT     H164175   2.023   7.718   0.973
21311WAT     H264176   1.889   7.744   1.063
21312WAT      O64177   7.456   8.662   4.700
21312WAT     H164178   7.505   8.633   4.783
21312WAT     H264179   7.479   8.756   4.678
21313WAT      O64180   4.337   1.791   5.854
21313WAT     H164181   4.347   1.720   5.924
21313WAT     H264182   4.381   1.875   5.886
21314WAT      O64183   9.813   1.666   1.978
21314WAT     H164184   9.857   1.747   2.016
21314WAT     H264185   9.864   1.635   1.898
21315WAT      O64186   2.452   2.240   0.728
21315WAT     H164187   2.441   2.217   0.631
21315WAT     H264188   2.523   2.309   0.737
21316WAT      O64189   5.530   2.757   1.350
21316WAT     H164190   5.477   2.755   1.265
21316WAT     H264191   5.605   2.692   1.343
21317WAT      O64192   5.508   3.992   6.997
21317WAT     H164193   5.509   3.970   6.899
21317WAT     H264194   5.582   4.057   7.017
21318WAT      O64195   6.272   8.786   6.517
21318WAT     H164196   6.325   8.867   6.493
21318WAT     H264197   6.329   8.724   6.572
21319WAT      O64198   7.890   2.228   2.229
21319WAT     H164199   7.940   2.155   2.182
21319WAT     H264200   7.848   2.191   2.312
21320WAT      O64201   9.285   3.545   0.764
21320WAT     H164202   9.199   3.556   0.714
21320WAT     H264203   9.342   3.626   0.750
21321WAT      O64204   2.233   1.986   5.233
21321WAT     H164205   2.292   1.932   5.293
21321WAT     H264206   2.220   1.936   5.147
21322WAT      O64207   4.057   7.582   4.608
21322WAT     H164208   4.098   7.526   4.536
21322WAT     H264209   4.046   7.527   4.691
21323WAT      O64210   1.415   4.933   5.263
21323WAT     H164211   1.437   4.862   5.196
21323WAT     H264212   1.459   4.911   5.350
21324WAT      O64213   5.346   1.568   5.294
21324WAT     H164214   5.359   1.611   5.205
21324WAT     H264215   5.435   1.545   5.334
21325WAT      O64216   4.743   7.775   9.719
21325WAT     H164217   4.747   7.768   9.819
21325WAT     H264218   4.655   7.814   9.692
21326WAT      O64219   2.409   2.350   5.199
21326WAT     H164220   2.359   2.304   5.272
21326WAT     H264221   2.487   2.294   5.171
21327WAT      O64222   9.468   8.399   2.225
21327WAT     H164223   9.488   8.497   2.216
21327WAT     H264224   9.546   8.353   2.269
21328WAT      O64225   8.145   9.688   8.015
21328WAT     H164226   8.159   9.591   7.995
21328WAT     H264227   8.175   9.743   7.937
21329WAT      O64228   1.602   8.470   6.896
21329WAT     H164229   1.559   8.558   6.878
21329WAT     H264230   1.533   8.398   6.893
21330WAT      O64231   9.620   9.127   7.615
21330WAT     H164232   9.675   9.102   7.695
21330WAT     H264233   9.677   9.124   7.533
21331WAT      O64234   8.478   6.314   4.935
21331WAT     H164235   8.431   6.390   4.890
21331WAT     H264236   8.475   6.326   5.034
21332WAT      O64237   0.090   4.735   5.333
21332WAT     H164238   0.062   4.819   5.288
21332WAT     H264239   0.052   4.656   5.283
21333WAT      O64240   7.862   9.318   9.242
21333WAT     H164241   7.948   9.361   9.215
21333WAT     H264242   7.830   9.259   9.168
21334WAT      O64243   1.586   7.653   1.425
21334WAT     H164244   1.608   7.709   1.505
21334WAT     H264245   1.649   7.576   1.421
21335WAT      O64246   3.607   5.265   9.850
21335WAT     H164247   3.652   5.330   9.911
21335WAT     H264248   3.675   5.211   9.801
21336WAT      O64249   0.835   3.902   7.052
21336WAT     H164250   0.871   3.904   6.959
21336WAT     H264251   0.743   3.863   7.051
21337WAT      O64252   0.696   6.155   3.452
21337WAT     H164253   0.706   6.253   3.431
21337WAT     H264254   0.714   6.140   3.549
21338WAT      O64255   0.384   7.081   4.775
21338WAT     H164256   0.314   7.087   4.704
21338WAT     H264257   0.431   6.993   4.768
21339WAT      O64258   0.066   4.039   1.483
21339WAT     H164259   0.160   4.026   1.513
21339WAT     H264260   0.005   4.040   1.562
21340WAT      O64261   1.630   6.215   6.125
21340WAT     H164262   1.568   6.138   6.138
21340WAT     H264263   1.721   6.190   6.159
21341WAT      O64264   2.885   5.640   4.712
21341WAT     H164265   2.820   5.594   4.653
21341WAT     H264266   2.972   5.651   4.664
21342WAT      O64267   8.150   7.460   5.450
21342WAT     H164268   8.062   7.423   5.420
21342WAT     H264269   8.202   7.389   5.497
21343WAT      O64270   4.399   3.751   1.924
21343WAT     H164271   4.458   3.679   1.889
21343WAT     H264272   4.454   3.817   1.976
21344WAT      O64273   0.856   2.957   6.428
21344WAT     H164274   0.765   2.932   6.461
21344WAT     H264275   0.859   2.948   6.329
21345WAT      O64276   4.886   1.645   8.189
21345WAT     H164277   4.948   1.643   8.111
21345WAT     H264278   4.925   1.593   8.264
21346WAT      O64279   3.773   1.529   8.338
21346WAT     H164280   3.744   1.434   8.331
21346WAT     H264281   3.733   1.582   8.263
21347WAT      O64282   1.578   0.150   3.676
21347WAT     H164283   1.499   0.122   3.621
21347WAT     H264284   1.646   0.077   3.676
21348WAT      O64285   2.942   6.081   7.114
21348WAT     H164286   2.917   6.043   7.024
21348WAT     H264287   2.940   6.181   7.109
21349WAT      O64288   9.806   4.269   3.217
21349WAT     H164289   9.769   4.182   3.251
21349WAT     H264290   9.733   4.321   3.173
21350WAT      O64291   8.089   1.331   4.472
21350WAT     H164292   8.124   1.285   4.391
21350WAT     H264293   8.151   1.315   4.549
21351WAT      O64294   2.067   3.001   0.995
21351WAT     H164295   1.989   2.945   1.025
21351WAT     H264296   2.084   3.072   1.063
21352WAT      O64297   1.178   6.331   5.089
21352WAT     H164298   1.237   6.329   5.170
21352WAT     H264299   1.163   6.238   5.056
21353WAT      O64300   4.688   2.894   5.282
21353WAT     H164301   4.637   2.979   5.281
21353WAT     H264302   4.678   2.848   5.194
21354WAT      O64303   7.731   5.106   1.284
21354WAT     H164304   7.638   5.083   1.255
21354WAT     H264305   7.763   5.037   1.350
21355WAT      O64306   4.936   9.590   7.867
21355WAT     H164307   4.848   9.541   7.861
21355WAT     H264308   5.006   9.539   7.818
21356WAT      O64309   9.541   3.746   1.330
21356WAT     H164310   9.485   3.765   1.410
21356WAT     H264311   9.559   3.832   1.281
21357WAT      O64312   2.930   8.317   6.714
21357WAT     H164313   2.874   8.299   6.795
21357WAT     H264314   2.876   8.301   6.632
21358WAT      O64315   5.736   6.770   4.376
21358WAT     H164316   5.797   6.793   4.452
21358WAT     H264317   5.684   6.851   4.349
21359WAT      O64318   0.225   2.467   4.671
21359WAT     H164319   0.215   2.514   4.583
21359WAT     H264320   0.321   2.465   4.698
21360WAT      O64321   4.646   0.144   3.662
21360WAT     H164322   4.700   0.141   3.577
21360WAT     H264323   4.705   0.120   3.739
21361WAT      O64324   7.412   7.076   6.252
21361WAT     H164325   7.333   7.108   6.201
21361WAT     H264326   7.466   7.154   6.284
21362WAT      O64327   1.749   9.526   4.375
21362WAT     H164328   1.804   9.549   4.454
21362WAT     H264329   1.726   9.428   4.378
21363WAT      O64330   9.781   2.079   6.330
21363WAT     H164331   9.757   2.002   6.271
21363WAT     H264332   9.697   2.117   6.371
21364WAT      O64333   4.288   8.492   5.421
21364WAT     H164334   4.305   8.485   5.323
21364WAT     H264335   4.234   8.575   5.439
21365WAT      O64336   7.963   4.564   1.944
21365WAT     H164337   7.902   4.587   2.020
21365WAT     H264338   7.956   4.635   1.874
21366WAT      O64339   6.309   0.033   1.670
21366WAT     H164340   6.235  -0.002   1.613
21366WAT     H264341   6.310  -0.017   1.757
21367WAT      O64342   3.906   1.635   8.982
21367WAT     H164343   3.967   1.573   9.030
21367WAT     H264344   3.830   1.660   9.042
21368WAT      O64345   0.947   6.921   8.869
21368WAT     H164346   0.954   6.949   8.965
21368WAT     H264347   0.882   6.846   8.861
21369WAT      O64348   3.254   7.727   8.267
21369WAT     H164349   3.325   7.684   8.322
21369WAT     H264350   3.197   7.657   8.224
21370WAT      O64351   7.806   1.212   8.507
21370WAT     H164352   7.732   1.178   8.564
21370WAT     H264353   7.877   1.252   8.565
21371WAT      O64354   4.368   3.163   9.585
21371WAT     H164355   4.434   3.186   9.514
21371WAT     H264356   4.395   3.076   9.628
21372WAT      O64357   2.230   6.617   0.669
21372WAT     H164358   2.147   6.670   0.649
21372WAT     H264359   2.298   6.676   0.712
21373WAT      O64360   8.802   0.448   6.614
21373WAT     H164361   8.855   0.374   6.653
21373WAT     H264362   8.764   0.420   6.526
21374WAT      O64363   4.562   0.466   2.078
21374WAT     H164364   4.634   0.531   2.055
21374WAT     H264365   4.578   0.429   2.170
21375WAT      O64366   6.869   2.691   1.625
21375WAT     H164367   6.773   2.694   1.597
21375WAT     H264368   6.878   2.732   1.716
21376WAT      O64369   2.885   7.774   0.856
21376WAT     H164370   2.915   7.709   0.925
21376WAT     H264371   2.824   7.842   0.898
21377WAT      O64372   4.046   3.850   3.836
21377WAT     H164373   4.008   3.786   3.904
21377WAT     H264374   4.136   3.818   3.808
21378WAT      O64375   3.554   1.535   7.129
21378WAT     H164376   3.490   1.459   7.118
21378WAT     H264377   3.647   1.499   7.138
21379WAT      O64378   5.557   1.061   4.437
21379WAT     H164379   5.587   0.979   4.387
21379WAT     H264380   5.572   1.142   4.381
21380WAT      O64381   5.905   7.189   9.774
21380WAT     H164382   5.967   7.264   9.753
21380WAT     H264383   5.855   7.164   9.691
21381WAT      O64384   6.543   2.144   1.965
21381WAT     H164385   6.526   2.107   2.056
21381WAT     H264386   6.579   2.072   1.905
21382WAT      O64387   9.496   1.218   8.807
21382WAT     H164388   9.494   1.221   8.907
21382WAT     H264389   9.583   1.256   8.775
21383WAT      O64390   1.515   8.807   9.054
21383WAT     H164391   1.471   8.846   9.134
21383WAT     H264392   1.470   8.721   9.029
21384WAT      O64393   8.566   2.779   8.718
21384WAT     H164394   8.574   2.788   8.817
21384WAT     H264395   8.605   2.691   8.690
21385WAT      O64396   7.232   1.214   6.507
21385WAT     H164397   7.157   1.279   6.514
21385WAT     H264398   7.309   1.257   6.459
21386WAT      O64399   4.762   9.758   4.268
21386WAT     H164400   4.775   9.847   4.310
21386WAT     H264401   4.755   9.768   4.169
21387WAT      O64402   7.090   2.238   2.262
21387WAT     H164403   7.080   2.152   2.313
21387WAT     H264404   7.129   2.308   2.322
21388WAT      O64405   1.905   5.035   9.653
21388WAT     H164406   1.895   4.953   9.597
21388WAT     H264407   1.991   5.031   9.704
21389WAT      O64408   7.184   4.929   0.889
21389WAT     H164409   7.161   5.016   0.845
21389WAT     H264410   7.154   4.853   0.831
21390WAT      O64411   5.793   3.915   2.777
21390WAT     H164412   5.724   3.941   2.710
21390WAT     H264413   5.854   3.992   2.795
21391WAT      O64414   1.882   5.927   9.372
21391WAT     H164415   1.920   5.968   9.289
21391WAT     H264416   1.859   5.999   9.438
21392WAT      O64417   6.266   3.361   0.689
21392WAT     H164418   6.353   3.337   0.646
21392WAT     H264419   6.234   3.284   0.744
21393WAT      O64420   3.481   6.711   3.528
21393WAT     H164421   3.534   6.637   3.569
21393WAT     H264422   3.523   6.739   3.442
21394WAT      O64423   4.769   5.191   4.517
21394WAT     H164424   4.735   5.262   4.456
21394WAT     H264425   4.731   5.205   4.609
21395WAT      O64426   9.786   2.961   1.405
21395WAT     H164427   9.822   2.948   1.497
21395WAT     H264428   9.860   2.990   1.344
21396WAT      O64429   4.484   0.873   3.815
21396WAT     H164430   4.531   0.936   3.877
21396WAT     H264431   4.552   0.813   3.771
21397WAT      O64432   6.204   2.497   6.334
21397WAT     H164433   6.164   2.448   6.412
21397WAT     H264434   6.238   2.586   6.366
21398WAT      O64435   2.726   1.132   5.752
21398WAT     H164436   2.685   1.049   5.716
21398WAT     H264437   2.795   1.166   5.688
21399WAT      O64438   8.650   6.651   8.244
21399WAT     H164439   8.636   6.707   8.162
21399WAT     H264440   8.576   6.584   8.251
21400WAT      O64441   7.966   2.380   3.707
21400WAT     H164442   8.018   2.461   3.734
21400WAT     H264443   7.993   2.353   3.614
21401WAT      O64444   2.095   4.212   7.573
21401WAT     H164445   2.177   4.254   7.534
21401WAT     H264446   2.051   4.277   7.635
21402WAT      O64447   5.965   7.396   0.848
21402WAT     H164448   6.043   7.431   0.796
21402WAT     H264449   5.997   7.325   0.911
21403WAT      O64450   0.159   7.411   1.051
21403WAT     H164451   0.076   7.397   1.106
21403WAT     H264452   0.194   7.503   1.067
21404WAT      O64453   3.080   2.976   6.102
21404WAT     H164454   3.020   2.922   6.160
21404WAT     H264455   3.076   3.072   6.129
21405WAT      O64456   5.170   2.953   7.536
21405WAT     H164457   5.215   3.000   7.460
21405WAT     H264458   5.153   2.858   7.511
21406WAT      O64459   6.660   5.506   3.832
21406WAT     H164460   6.729   5.487   3.762
21406WAT     H264461   6.576   5.539   3.787
21407WAT      O64462   2.556   2.049   9.789
21407WAT     H164463   2.598   2.065   9.700
21407WAT     H264464   2.467   2.003   9.777
21408WAT      O64465   8.831   7.258   3.607
21408WAT     H164466   8.798   7.351   3.593
21408WAT     H264467   8.918   7.260   3.656
21409WAT      O64468   2.592   6.564   2.631
21409WAT     H164469   2.528   6.616   2.575
21409WAT     H264470   2.672   6.539   2.577
21410WAT      O64471   5.798   1.786   9.220
21410WAT     H164472   5.760   1.807   9.130
21410WAT     H264473   5.740   1.827   9.291
21411WAT      O64474   8.242   4.987   2.043
21411WAT     H164475   8.287   4.951   1.962
21411WAT     H264476   8.245   4.919   2.116
21412WAT      O64477   7.540   7.169   7.924
21412WAT     H164478   7.603   7.138   7.995
21412WAT     H264479   7.446   7.161   7.957
21413WAT      O64480   1.984   6.723   0.582
21413WAT     H164481   1.917   6.795   0.599
21413WAT     H264482   1.938   6.644   0.542
21414WAT      O64483   3.218   0.521   0.006
21414WAT     H164484   3.267   0.499   0.090
21414WAT     H264485   3.204   0.437  -0.048
21415WAT      O64486   1.648   2.989   4.137
21415WAT     H164487   1.605   2.899   4.132
21415WAT     H264488   1.659   3.015   4.233
21416WAT      O64489   3.244   5.190   1.276
21416WAT     H164490   3.184   5.112   1.262
21416WAT     H264491   3.195   5.262   1.325
21417WAT      O64492   3.024   6.522   9.713
21417WAT     H164493   2.958   6.478   9.774
21417WAT     H264494   3.116   6.489   9.734
21418WAT      O64495   2.547   7.254   2.063
21418WAT     H164496   2.588   7.336   2.024
21418WAT     H264497   2.614   7.180   2.061
21419WAT      O64498   5.889   3.908   5.517
21419WAT     H164499   5.847   3.868   5.436
21419WAT     H264500   5.984   3.879   5.523
21420WAT      O64501   9.080   0.173   3.709
21420WAT     H164502   9.098   0.107   3.636
21420WAT     H264503   8.993   0.151   3.754
21421WAT      O64504   2.134   1.361   3.433
21421WAT     H164505   2.083   1.356   3.348
21421WAT     H264506   2.217   1.415   3.419
21422WAT      O64507   7.058   1.829   8.435
21422WAT     H164508   7.075   1.731   8.446
21422WAT     H264509   7.074   1.855   8.339
21423WAT      O64510   7.532   4.940   8.275
21423WAT     H164511   7.598   5.015   8.267
21423WAT     H264512   7.549   4.873   8.203
21424WAT      O64513   8.615   2.015   7.886
21424WAT     H164514   8.547   1.956   7.929
21424WAT     H264515   8.701   2.010   7.938
21425WAT      O64516   6.440   1.147   6.015
21425WAT     H164517   6.446   1.047   6.014
21425WAT     H264518   6.524   1.186   5.978
21426WAT      O64519   2.510   0.935   0.289
21426WAT     H164520   2.520   0.961   0.385
21426WAT     H264521   2.553   0.845   0.275
21427WAT      O64522   2.994   3.289   4.527
21427WAT     H164523   2.944   3.370   4.559
21427WAT     H264524   2.950   3.253   4.445
21428WAT      O64525   0.661   9.665   4.347
21428WAT     H164526   0.594   9.610   4.397
21428WAT     H264527   0.752   9.627   4.360
21429WAT      O64528   0.192   0.877   0.480
21429WAT     H164529   0.245   0.899   0.398
21429WAT     H264530   0.109   0.933   0.482
21430WAT      O64531   3.656   5.254   3.654
21430WAT     H164532   3.734   5.212   3.610
21430WAT     H264533   3.669   5.354   3.658
21431WAT      O64534   7.838   7.123   1.272
21431WAT     H164535   7.843   7.222   1.287
21431WAT     H264536   7.777   7.082   1.340
21432WAT      O64537   6.547   2.650   0.676
21432WAT     H164538   6.492   2.677   0.755
21432WAT     H264539   6.488   2.641   0.596
21433WAT      O64540   4.766   7.938   5.867
21433WAT     H164541   4.820   8.021   5.854
21433WAT     H264542   4.762   7.915   5.964
21434WAT      O64543   9.113   9.317   3.051
21434WAT     H164544   9.077   9.380   3.121
21434WAT     H264545   9.081   9.347   2.961
21435WAT      O64546   3.659   1.647   9.121
21435WAT     H164547   3.611   1.561   9.104
21435WAT     H264548   3.617   1.720   9.068
21436WAT      O64549   2.248   2.968   8.349
21436WAT     H164550   2.338   2.931   8.327
21436WAT     H264551   2.258   3.059   8.389
21437WAT      O64552   9.197   4.058   4.316
21437WAT     H164553   9.194   3.958   4.308
21437WAT     H264554   9.139   4.087   4.392
21438WAT      O64555   6.166   4.493   2.084
21438WAT     H164556   6.160   4.432   2.005
21438WAT     H264557   6.261   4.520   2.098
21439WAT      O64558   7.475   3.646   1.737
21439WAT     H164559   7.471   3.613   1.832
21439WAT     H264560   7.460   3.745   1.736
21440WAT      O64561   6.742   8.238   9.583
21440WAT     H164562   6.713   8.244   9.487
21440WAT     H264563   6.717   8.322   9.630
21441WAT      O64564   2.811   1.649   6.570
21441WAT     H164565   2.770   1.694   6.649
21441WAT     H264566   2.808   1.550   6.583
21442WAT      O64567   9.455   6.549   3.692
21442WAT     H164568   9.406   6.605   3.759
21442WAT     H264569   9.533   6.600   3.658
21443WAT      O64570   4.658   7.568   2.736
21443WAT     H164571   4.690   7.532   2.649
21443WAT     H264572   4.734   7.569   2.801
21444WAT      O64573   7.899   4.943   0.608
21444WAT     H164574   7.859   4.858   0.643
21444WAT     H264575   7.850   4.970   0.525
21445WAT      O64576   9.533   9.636   7.326
21445WAT     H164577   9.616   9.629   7.271
21445WAT     H264578   9.535   9.567   7.399
21446WAT      O64579   8.180   5.606   4.737
21446WAT     H164580   8.160   5.516   4.777
21446WAT     H264581   8.249   5.652   4.792
21447WAT      O64582   7.494   6.110   0.035
21447WAT     H164583   7.466   6.205   0.023
21447WAT     H264584   7.474   6.080   0.128
21448WAT      O64585   9.045   7.897   4.493
21448WAT     H164586   9.016   7.931   4.404
21448WAT     H264587   9.145   7.894   4.497
21449WAT      O64588   0.624   8.337   4.409
21449WAT     H164589   0.712   8.380   4.390
21449WAT     H264590   0.600   8.275   4.334
21450WAT      O64591   3.425   4.985   2.323
21450WAT     H164592   3.360   4.910   2.332
21450WAT     H264593   3.402   5.058   2.387
21451WAT      O64594   2.162   1.966   0.523
21451WAT     H164595   2.197   1.873   0.529
21451WAT     H264596   2.205   2.013   0.446
21452WAT      O64597   4.577   8.652   5.422
21452WAT     H164598   4.589   8.556   5.397
21452WAT     H264599   4.661   8.702   5.401
21453WAT      O64600   6.880   1.072   9.074
21453WAT     H164601   6.906   1.115   8.988
21453WAT     H264602   6.879   1.140   9.147
21454WAT      O64603   6.202   2.342   7.661
21454WAT     H164604   6.246   2.377   7.579
21454WAT     H264605   6.240   2.253   7.684
21455WAT      O64606   5.831   6.882   0.804
21455WAT     H164607   5.908   6.946   0.801
21455WAT     H264608   5.747   6.932   0.824
21456WAT      O64609   6.896   3.941   4.486
21456WAT     H164610   6.973   4.002   4.468
21456WAT     H264611   6.918   3.883   4.565
21457WAT      O64612   7.429   5.528   1.909
21457WAT     H164613   7.449   5.430   1.917
21457WAT     H264614   7.502   5.573   1.858
21458WAT      O64615   1.296   1.462   3.838
21458WAT     H164616   1.225   1.394   3.819
21458WAT     H264617   1.254   1.545   3.874
21459WAT      O64618   3.022   2.139   8.254
21459WAT     H164619   3.118   2.120   8.233
21459WAT     H264620   3.012   2.237   8.273
21460WAT      O64621   1.693   4.132   6.234
21460WAT     H164622   1.735   4.212   6.277
21460WAT     H264623   1.694   4.055   6.298
21461WAT      O64624   5.913   6.537   8.162
21461WAT     H164625   5.892   6.452   8.211
21461WAT     H264626   6.012   6.547   8.155
21462WAT      O64627   9.176   2.229   3.192
21462WAT     H164628   9.235   2.309   3.206
21462WAT     H264629   9.133   2.234   3.102
21463WAT      O64630   5.572   3.791   7.713
21463WAT     H164631   5.585   3.839   7.627
21463WAT     H264632   5.558   3.694   7.696
21464WAT      O64633   7.873   6.781   2.160
21464WAT     H164634   7.938   6.838   2.110
21464WAT     H264635   7.867   6.814   2.255
21465WAT      O64636   7.896   0.223   2.199
21465WAT     H164637   7.955   0.301   2.177
21465WAT     H264638   7.953   0.143   2.221
21466WAT      O64639   0.630   5.493   6.785
21466WAT     H164640   0.616   5.526   6.692
21466WAT     H264641   0.661   5.568   6.843
21467WAT      O64642   2.916   0.403   2.009
21467WAT     H164643   2.874   0.348   2.081
21467WAT     H264644   2.994   0.453   2.047
21468WAT      O64645   3.342   4.589   3.950
21468WAT     H164646   3.246   4.581   3.924
21468WAT     H264647   3.355   4.548   4.041
21469WAT      O64648   3.091   1.259   2.218
21469WAT     H164649   3.149   1.308   2.284
21469WAT     H264650   3.028   1.323   2.175
21470WAT      O64651   0.458   1.478   5.382
21470WAT     H164652   0.446   1.495   5.480
21470WAT     H264653   0.369   1.485   5.336
21471WAT      O64654   4.665   1.123   7.876
21471WAT     H164655   4.697   1.203   7.826
21471WAT     H264656   4.656   1.145   7.973
21472WAT      O64657   5.147   8.765   6.868
21472WAT     H164658   5.111   8.731   6.781
21472WAT     H264659   5.095   8.725   6.943
21473WAT      O64660   9.020   0.115   8.986
21473WAT     H164661   9.086   0.093   8.914
21473WAT     H264662   8.984   0.207   8.972
21474WAT      O64663   1.267   4.397   2.509
21474WAT     H164664   1.281   4.406   2.410
21474WAT     H264665   1.170   4.410   2.530
21475WAT      O64666   9.245   2.186   6.124
21475WAT     H164667   9.302   2.268   6.116
21475WAT     H264668   9.250   2.134   6.039
21476WAT      O64669   7.701   8.199   3.386
21476WAT     H164670   7.780   8.143   3.409
21476WAT     H264671   7.730   8.275   3.327
21477WAT      O64672   8.596   6.740   2.149
21477WAT     H164673   8.685   6.701   2.126
21477WAT     H264674   8.601   6.840   2.148
21478WAT      O64675   4.157   6.099   3.004
21478WAT     H164676   4.112   6.178   3.046
21478WAT     H264677   4.194   6.126   2.915
21479WAT      O64678   6.671   9.596   3.181
21479WAT     H164679   6.629   9.519   3.230
21479WAT     H264680   6.706   9.565   3.093
21480WAT      O64681   9.237   3.242   6.231
21480WAT     H164682   9.301   3.315   6.258
21480WAT     H264683   9.266   3.203   6.144
21481WAT      O64684   7.592   1.177   0.125
21481WAT     H164685   7.608   1.095   0.070
21481WAT     H264686   7.535   1.154   0.204
21482WAT      O64687   2.628   6.731   9.515
21482WAT     H164688   2.597   6.637   9.500
21482WAT     H264689   2.553   6.794   9.496
21483WAT      O64690   1.922   8.021   8.924
21483WAT     H164691   1.997   8.086   8.937
21483WAT     H264692   1.837   8.062   8.957
21484WAT      O64693   3.076   6.352   8.536
21484WAT     H164694   3.037   6.443   8.546
21484WAT     H264695   3.017   6.297   8.477
21485WAT      O64696   1.266   9.554   6.706
21485WAT     H164697   1.248   9.463   6.668
21485WAT     H264698   1.364   9.563   6.723
21486WAT      O64699   5.411   9.491   6.236
21486WAT     H164700   5.323   9.513   6.195
21486WAT     H264701   5.413   9.394   6.260
21487WAT      O64702   6.700   3.849   5.473
21487WAT     H164703   6.756   3.873   5.394
21487WAT     H264704   6.760   3.832   5.552
21488WAT      O64705   8.393   6.136   6.999
21488WAT     H164706   8.420   6.115   7.093
21488WAT     H264707   8.469   6.182   6.952
21489WAT      O64708   5.729   4.384   6.284
21489WAT     H164709   5.817   4.348   6.252
21489WAT     H264710   5.715   4.358   6.379
21490WAT      O64711   5.424   0.288   1.732
21490WAT     H164712   5.450   0.349   1.808
21490WAT     H264713   5.325   0.287   1.722
21491WAT      O64714   6.564   5.134   6.039
21491WAT     H164715   6.606   5.210   5.989
21491WAT     H264716   6.483   5.166   6.087
21492WAT      O64717   1.046   1.851   7.978
21492WAT     H164718   1.059   1.911   8.057
21492WAT     H264719   0.969   1.790   7.994
21493WAT      O64720   8.214   8.008   7.148
21493WAT     H164721   8.125   7.966   7.165
21493WAT     H264722   8.220   8.095   7.196
21494WAT      O64723   9.253   0.161   2.161
21494WAT     H164724   9.203   0.167   2.074
21494WAT     H264725   9.351   0.149   2.143
21495WAT      O64726   9.471   5.511   6.711
21495WAT     H164727   9.385   5.527   6.759
21495WAT     H264728   9.491   5.413   6.710
21496WAT      O64729   4.490   7.887   8.654
21496WAT     H164730   4.450   7.948   8.723
21496WAT     H264731   4.430   7.884   8.574
21497WAT      O64732   2.859   7.596   3.199
21497WAT     H164733   2.875   7.519   3.137
21497WAT     H264734   2.895   7.680   3.157
21498WAT      O64735   8.609   3.828   7.001
21498WAT     H164736   8.605   3.812   7.099
21498WAT     H264737   8.517   3.847   6.967
21499WAT      O64738   2.404   5.245   7.489
21499WAT     H164739   2.441   5.154   7.504
21499WAT     H264740   2.454   5.290   7.414
21500WAT      O64741   0.483   4.640   0.984
21500WAT     H164742   0.445   4.646   1.076
21500WAT     H264743   0.493   4.732   0.946
21501WAT      O64744   4.176   3.967   0.090
21501WAT     H164745   4.153   4.028   0.014
21501WAT     H264746   4.242   3.898   0.058
21502WAT      O64747   4.645   7.633   1.833
21502WAT     H164748   4.552   7.656   1.802
21502WAT     H264749   4.711   7.691   1.785
21503WAT      O64750   0.566   7.137   5.401
21503WAT     H164751   0.589   7.075   5.476
21503WAT     H264752   0.647   7.191   5.377
21504WAT      O64753   7.203   2.882   8.155
21504WAT     H164754   7.213   2.890   8.254
21504WAT     H264755   7.119   2.929   8.126
21505WAT      O64756   1.867   4.807   1.085
21505WAT     H164757   1.955   4.759   1.088
21505WAT     H264758   1.868   4.884   1.150
21506WAT      O64759   6.519   0.892   2.157
21506WAT     H164760   6.563   0.897   2.067
21506WAT     H264761   6.463   0.809   2.162
21507WAT      O64762   7.815   0.684   1.908
21507WAT     H164763   7.727   0.718   1.873
21507WAT     H264764   7.809   0.673   2.007
21508WAT      O64765   6.396   1.300   2.403
21508WAT     H164766   6.430   1.248   2.325
21508WAT     H264767   6.324   1.248   2.450
21509WAT      O64768   3.136   1.376   3.735
21509WAT     H164769   3.129   1.427   3.820
21509WAT     H264770   3.173   1.285   3.753
21510WAT      O64771   1.839   3.350   6.137
21510WAT     H164772   1.884   3.439   6.142
21510WAT     H264773   1.740   3.363   6.133
21511WAT      O64774   2.134   5.686   5.856
21511WAT     H164775   2.069   5.639   5.798
21511WAT     H264776   2.188   5.750   5.801
21512WAT      O64777   1.742   0.979   0.512
21512WAT     H164778   1.724   1.043   0.437
21512WAT     H264779   1.837   0.986   0.540
21513WAT      O64780   0.509   7.222   7.291
21513WAT     H164781   0.585   7.260   7.238
21513WAT     H264782   0.500   7.124   7.270
21514WAT      O64783   4.519   9.814   7.142
21514WAT     H164784   4.536   9.836   7.046
21514WAT     H264785   4.559   9.724   7.164
21515WAT      O64786   7.887   8.800   8.930
21515WAT     H164787   7.969   8.775   8.879
21515WAT     H264788   7.886   8.751   9.018
21516WAT      O64789   8.104   3.496   4.817
21516WAT     H164790   8.154   3.493   4.730
21516WAT     H264791   8.027   3.558   4.809
21517WAT      O64792   4.097   1.407   0.188
21517WAT     H164793   4.007   1.449   0.195
21517WAT     H264794   4.114   1.351   0.269
21518WAT      O64795   4.574   7.742   2.554
21518WAT     H164796   4.585   7.665   2.617
21518WAT     H264797   4.484   7.783   2.567
21519WAT      O64798   3.246   4.216   1.914
21519WAT     H164799   3.326   4.199   1.857
21519WAT     H264800   3.243   4.312   1.940
21520WAT      O64801   4.145   0.229   8.304
21520WAT     H164802   4.244   0.222   8.316
21520WAT     H264803   4.107   0.139   8.280
21521WAT      O64804   0.230   2.593   3.210
21521WAT     H164805   0.278   2.679   3.195
21521WAT     H264806   0.140   2.612   3.249
21522WAT      O64807   2.262   4.765   8.408
21522WAT     H164808   2.223   4.805   8.325
21522WAT     H264809   2.237   4.821   8.487
21523WAT      O64810   1.285   5.937   7.388
21523WAT     H164811   1.274   6.036   7.399
21523WAT     H264812   1.338   5.900   7.465
21524WAT      O64813   7.985   7.291   3.713
21524WAT     H164814   7.901   7.291   3.659
21524WAT     H264815   8.064   7.287   3.652
21525WAT      O64816   2.263   0.041   8.498
21525WAT     H164817   2.202   0.063   8.422
21525WAT     H264818   2.219  -0.025   8.558
21526WAT      O64819   3.695   2.413   5.535
21526WAT     H164820   3.704   2.351   5.613
21526WAT     H264821   3.780   2.412   5.482
21527WAT      O64822   6.418   3.448   1.698
21527WAT     H164823   6.328   3.437   1.657
21527WAT     H264824   6.409   3.491   1.788
21528WAT      O64825   6.092   6.225   9.766
21528WAT     H164826   6.111   6.316   9.803
21528WAT     H264827   6.041   6.172   9.834
21529WAT      O64828   8.943   0.908   4.915
21529WAT     H164829   8.995   0.824   4.934
21529WAT     H264830   8.984   0.955   4.838
21530WAT      O64831   0.507   6.540   6.520
21530WAT     H164832   0.493   6.638   6.531
21530WAT     H264833   0.445   6.505   6.449
21531WAT      O64834   9.698   7.492   9.610
21531WAT     H164835   9.714   7.393   9.611
21531WAT     H264836   9.653   7.518   9.525
21532WAT      O64837   0.402   7.887   0.863
21532WAT     H164838   0.399   7.867   0.765
21532WAT     H264839   0.341   7.964   0.883
21533WAT      O64840   9.131   5.902   1.076
21533WAT     H164841   9.226   5.917   1.048
21533WAT     H264842   9.126   5.821   1.135
21534WAT      O64843   8.689   5.740   9.139
21534WAT     H164844   8.756   5.673   9.170
21534WAT     H264845   8.724   5.832   9.153
21535WAT      O64846   1.734   8.212   3.656
21535WAT     H164847   1.670   8.188   3.730
21535WAT     H264848   1.806   8.143   3.651
21536WAT      O64849   5.583   1.527   2.343
21536WAT     H164850   5.502   1.502   2.291
21536WAT     H264851   5.660   1.542   2.281
21537WAT      O64852   7.691   9.708   0.478
21537WAT     H164853   7.752   9.775   0.436
21537WAT     H264854   7.723   9.685   0.569
21538WAT      O64855   1.328   8.616   0.742
21538WAT     H164856   1.259   8.582   0.678
21538WAT     H264857   1.292   8.613   0.835
21539WAT      O64858   1.373   7.349   5.096
21539WAT     H164859   1.309   7.398   5.156
21539WAT     H264860   1.463   7.346   5.140
21540WAT      O64861   6.636   6.300   3.412
21540WAT     H164862   6.606   6.362   3.340
21540WAT     H264863   6.620   6.342   3.501
21541WAT      O64864   4.458   6.831   0.201
21541WAT     H164865   4.510   6.752   0.233
21541WAT     H264866   4.409   6.807   0.117
21542WAT      O64867   2.744   2.609   7.173
21542WAT     H164868   2.734   2.642   7.267
21542WAT     H264869   2.687   2.664   7.112
21543WAT      O64870   1.597   3.917   0.973
21543WAT     H164871   1.660   3.842   0.994
21543WAT     H264872   1.606   3.988   1.043
21544WAT      O64873   5.580   9.598   6.682
21544WAT     H164874   5.590   9.518   6.740
21544WAT     H264875   5.491   9.641   6.700
21545WAT      O64876   0.186   0.453   6.710
21545WAT     H164877   0.182   0.552   6.708
21545WAT     H264878   0.106   0.417   6.759
21546WAT      O64879   1.922   1.274   7.924
21546WAT     H164880   2.009   1.229   7.945
21546WAT     H264881   1.904   1.345   7.992
21547WAT      O64882   2.517   2.047   0.945
21547WAT     H164883   2.487   2.116   0.879
21547WAT     H264884   2.509   2.084   1.038
21548WAT      O64885   0.341   5.077   1.903
21548WAT     H164886   0.296   5.009   1.845
21548WAT     H264887   0.390   5.142   1.846
21549WAT      O64888   9.590   5.759   3.655
21549WAT     H164889   9.687   5.747   3.636
21549WAT     H264890   9.573   5.853   3.684
21550WAT      O64891   5.134   9.469   7.706
21550WAT     H164892   5.151   9.401   7.777
21550WAT     H264893   5.072   9.430   7.637
21551WAT      O64894   1.761   0.036   6.079
21551WAT     H164895   1.829  -0.035   6.065
21551WAT     H264896   1.692   0.032   6.006
21552WAT      O64897   9.557   6.735   5.489
21552WAT     H164898   9.460   6.732   5.465
21552WAT     H264899   9.611   6.699   5.412
21553WAT      O64900   8.044   5.443   4.339
21553WAT     H164901   8.088   5.444   4.249
21553WAT     H264902   8.087   5.511   4.398
21554WAT      O64903   6.461   5.818   9.862
21554WAT     H164904   6.451   5.724   9.894
21554WAT     H264905   6.458   5.820   9.762
21555WAT      O64906   2.088   2.998   7.657
21555WAT     H164907   2.124   3.020   7.747
21555WAT     H264908   2.087   2.899   7.644
21556WAT      O64909   1.668   1.117   3.680
21556WAT     H164910   1.714   1.199   3.647
21556WAT     H264911   1.663   1.049   3.607
21557WAT      O64912   3.344   7.632   6.670
21557WAT     H164913   3.429   7.643   6.617
21557WAT     H264914   3.363   7.577   6.752
21558WAT      O64915   5.759   7.944   7.144
21558WAT     H164916   5.754   7.954   7.045
21558WAT     H264917   5.694   8.006   7.187
21559WAT      O64918   9.084   4.154   5.827
21559WAT     H164919   8.996   4.197   5.808
21559WAT     H264920   9.151   4.225   5.849
21560WAT      O64921   6.595   9.442   2.264
21560WAT     H164922   6.678   9.415   2.312
21560WAT     H264923   6.518   9.445   2.328
21561WAT      O64924   5.915   6.317   2.641
21561WAT     H164925   5.856   6.239   2.664
21561WAT     H264926   5.899   6.343   2.546
21562WAT      O64927   0.052   8.759   5.665
21562WAT     H164928   0.140   8.787   5.628
21562WAT     H264929  -0.013   8.835   5.659
21563WAT      O64930   2.889   0.754   6.857
21563WAT     H164931   2.973   0.713   6.823
21563WAT     H264932   2.878   0.735   6.954
21564WAT      O64933   1.584   0.800   2.598
21564WAT     H164934   1.616   0.706   2.608
21564WAT     H264935   1.532   0.826   2.679
21565WAT      O64936   7.337   9.523   3.846
21565WAT     H164937   7.341   9.439   3.900
21565WAT     H264938   7.405   9.519   3.773
21566WAT      O64939   9.162   1.605   4.642
21566WAT     H164940   9.240   1.597   4.704
21566WAT     H264941   9.135   1.515   4.609
21567WAT      O64942   8.437   7.002   8.337
21567WAT     H164943   8.499   7.007   8.416
21567WAT     H264944   8.488   7.021   8.253
21568WAT      O64945   8.276   3.800   1.119
21568WAT     H164946   8.189   3.796   1.070
21568WAT     H264947   8.350   3.822   1.055
21569WAT      O64948   1.382   2.285   5.484
21569WAT     H164949   1.416   2.379   5.496
21569WAT     H264950   1.459   2.223   5.469
21570WAT      O64951   2.072   6.385   8.247
21570WAT     H164952   2.050   6.335   8.163
21570WAT     H264953   2.001   6.367   8.316
21571WAT      O64954   6.921   1.818   4.286
21571WAT     H164955   6.901   1.753   4.359
21571WAT     H264956   6.844   1.821   4.222
21572WAT      O64957   0.613   7.523   5.392
21572WAT     H164958   0.591   7.483   5.480
21572WAT     H264959   0.668   7.606   5.405
21573WAT      O64960   3.817   1.145   8.434
21573WAT     H164961   3.758   1.204   8.379
21573WAT     H264962   3.776   1.131   8.524
21574WAT      O64963   6.421   2.869   6.147
21574WAT     H164964   6.451   2.809   6.072
21574WAT     H264965   6.491   2.938   6.164
21575WAT      O64966   6.993   8.140   2.484
21575WAT     H164967   6.991   8.240   2.479
21575WAT     H264968   7.084   8.107   2.457
21576WAT      O64969   0.223   4.599   0.036
21576WAT     H164970   0.156   4.623  -0.033
21576WAT     H264971   0.274   4.518   0.007
21577WAT      O64972   0.193   2.383   6.878
21577WAT     H164973   0.259   2.432   6.822
21577WAT     H264974   0.234   2.298   6.912
21578WAT      O64975   6.802   9.741   1.233
21578WAT     H164976   6.780   9.836   1.257
21578WAT     H264977   6.889   9.715   1.277
21579WAT      O64978   7.685   8.446   4.673
21579WAT     H164979   7.689   8.427   4.771
21579WAT     H264980   7.610   8.510   4.655
21580WAT      O64981   9.202   8.701   9.763
21580WAT     H164982   9.154   8.787   9.781
21580WAT     H264983   9.160   8.655   9.685
21581WAT      O64984   6.816   2.888   0.048
21581WAT     H164985   6.774   2.814  -0.005
21581WAT     H264986   6.832   2.966  -0.011
21582WAT      O64987   4.850   0.167   4.309
21582WAT     H164988   4.786   0.241   4.332
21582WAT     H264989   4.909   0.148   4.387
21583WAT      O64990   5.662   0.270   9.293
21583WAT     H164991   5.578   0.316   9.320
21583WAT     H264992   5.691   0.208   9.366
21584WAT      O64993   6.404   0.844   8.891
21584WAT     H164994   6.333   0.861   8.822
21584WAT     H264995   6.441   0.931   8.923
21585WAT      O64996   3.038   9.078   4.947
21585WAT     H164997   3.128   9.050   4.912
21585WAT     H264998   3.021   9.032   5.034
21586WAT      O64999   4.170   6.556   1.295
21586WAT     H165000   4.212   6.514   1.215
21586WAT     H265001   4.132   6.645   1.270
21587WAT      O65002   5.275   9.359   1.156
21587WAT     H165003   5.326   9.388   1.075
21587WAT     H265004   5.181   9.392   1.150
21588WAT      O65005   8.000   8.342   7.115
21588WAT     H165006   8.063   8.350   7.192
21588WAT     H265007   8.016   8.256   7.067
21589WAT      O65008   6.375   8.469   4.824
21589WAT     H165009   6.441   8.418   4.769
21589WAT     H265010   6.287   8.471   4.776
21590WAT      O65011   7.795   2.500   1.891
21590WAT     H165012   7.767   2.486   1.986
21590WAT     H265013   7.823   2.595   1.878
21591WAT      O65014   8.380   4.389   0.617
21591WAT     H165015   8.307   4.320   0.615
21591WAT     H265016   8.358   4.458   0.685
21592WAT      O65017   5.068   5.852   0.783
21592WAT     H165018   4.971   5.857   0.806
21592WAT     H265019   5.086   5.766   0.735
21593WAT      O65020   2.835   1.839   1.234
21593WAT     H165021   2.812   1.752   1.279
21593WAT     H265022   2.933   1.856   1.245
21594WAT      O65023   9.405   7.902   8.245
21594WAT     H165024   9.356   7.876   8.162
21594WAT     H265025   9.345   7.894   8.324
21595WAT      O65026   5.964   8.001   4.254
21595WAT     H165027   6.042   8.051   4.217
21595WAT     H265028   5.951   7.916   4.203
21596WAT      O65029   2.061   6.867   4.590
21596WAT     H165030   2.131   6.796   4.591
21596WAT     H265031   2.103   6.955   4.567
21597WAT      O65032   8.034   9.317   3.414
21597WAT     H165033   7.982   9.241   3.373
21597WAT     H265034   8.127   9.287   3.432
21598WAT      O65035   5.925   7.152   4.025
21598WAT     H165036   5.997   7.163   4.093
21598WAT     H265037   5.947   7.205   3.943
21599WAT      O65038   5.293   1.764   9.778
21599WAT     H165039   5.285   1.802   9.686
21599WAT     H265040   5.387   1.772   9.810
21600WAT      O65041   0.621   1.698   6.909
21600WAT     H165042   0.591   1.791   6.930
21600WAT     H265043   0.716   1.686   6.937
21601WAT      O65044   3.742   6.266   2.199
21601WAT     H165045   3.672   6.336   2.184
21601WAT     H265046   3.699   6.176   2.205
21602WAT      O65047   3.142   1.821   4.281
21602WAT     H165048   3.141   1.834   4.380
21602WAT     H265049   3.101   1.733   4.258
21603WAT      O65050   8.596   7.376   8.390
21603WAT     H165051   8.597   7.450   8.322
21603WAT     H265052   8.503   7.343   8.400
21604WAT      O65053   0.619   3.038   7.448
21604WAT     H165054   0.629   3.095   7.367
21604WAT     H265055   0.549   3.078   7.509
21605WAT      O65056   2.327   6.867   5.393
21605WAT     H165057   2.295   6.961   5.389
21605WAT     H265058   2.314   6.823   5.304
21606WAT      O65059   4.055   9.629   2.835
21606WAT     H165060   4.145   9.634   2.791
21606WAT     H265061   3.993   9.576   2.776
21607WAT      O65062   3.656   1.293   6.804
21607WAT     H165063   3.570   1.246   6.780
21607WAT     H265064   3.679   1.273   6.899
21608WAT      O65065   9.238   7.442   1.698
21608WAT     H165066   9.259   7.397   1.611
21608WAT     H265067   9.296   7.405   1.770
21609WAT      O65068   6.912   3.165   0.396
21609WAT     H165069   6.830   3.130   0.440
21609WAT     H265070   6.927   3.260   0.424
21610WAT      O65071   1.944   0.575   6.645
21610WAT     H165072   1.905   0.549   6.557
21610WAT     H265073   1.965   0.494   6.698
21611WAT      O65074   9.340   8.160   5.534
21611WAT     H165075   9.349   8.256   5.509
21611WAT     H265076   9.289   8.152   5.620
21612WAT      O65077   5.382   8.117   7.796
21612WAT     H165078   5.470   8.092   7.754
21612WAT     H265079   5.333   8.034   7.821
21613WAT      O65080   4.296   6.910   9.190
21613WAT     H165081   4.376   6.933   9.134
21613WAT     H265082   4.227   6.865   9.134
21614WAT      O65083   8.333   6.241   7.900
21614WAT     H165084   8.267   6.220   7.972
21614WAT     H265085   8.298   6.207   7.812
21615WAT      O65086   1.391   2.004   3.362
21615WAT     H165087   1.342   1.917   3.358
21615WAT     H265088   1.485   1.988   3.392
21616WAT      O65089   6.855   7.760   9.058
21616WAT     H165090   6.800   7.751   9.141
21616WAT     H265091   6.844   7.678   9.002
21617WAT      O65092   0.126   9.799   1.076
21617WAT     H165093   0.069   9.716   1.072
21617WAT     H265094   0.135   9.828   1.171
21618WAT      O65095   3.392   2.568   4.162
21618WAT     H165096   3.376   2.665   4.145
21618WAT     H265097   3.320   2.514   4.119
21619WAT      O65098   1.448   1.362   2.664
21619WAT     H165099   1.411   1.390   2.575
21619WAT     H265100   1.543   1.334   2.653
21620WAT      O65101   2.482   7.706   7.517
21620WAT     H165102   2.543   7.627   7.531
21620WAT     H265103   2.445   7.703   7.425
21621WAT      O65104   0.624   8.064   0.899
21621WAT     H165105   0.608   8.150   0.946
21621WAT     H265106   0.539   8.013   0.892
21622WAT      O65107   4.183   1.121   0.111
21622WAT     H165108   4.146   1.166   0.192
21622WAT     H265109   4.269   1.166   0.085
21623WAT      O65110   1.922   7.352   4.274
21623WAT     H165111   1.935   7.419   4.200
21623WAT     H265112   1.920   7.260   4.236
21624WAT      O65113   5.310   5.275   2.993
21624WAT     H165114   5.257   5.254   3.075
21624WAT     H265115   5.405   5.248   3.007
21625WAT      O65116   8.743   6.312   8.335
21625WAT     H165117   8.797   6.281   8.257
21625WAT     H265118   8.788   6.392   8.376
21626WAT      O65119   8.642   6.162   2.751
21626WAT     H165120   8.622   6.229   2.822
21626WAT     H265121   8.709   6.096   2.786
21627WAT      O65122   6.871   1.019   5.314
21627WAT     H165123   6.822   0.965   5.382
21627WAT     H265124   6.961   1.046   5.350
21628WAT      O65125   6.633   7.330   6.985
21628WAT     H165126   6.600   7.358   7.075
21628WAT     H265127   6.561   7.342   6.917
21629WAT      O65128   1.365   9.492   3.030
21629WAT     H165129   1.363   9.581   2.984
21629WAT     H265130   1.311   9.426   2.978
21630WAT      O65131   7.333   7.306   4.956
21630WAT     H165132   7.330   7.288   4.858
21630WAT     H265133   7.296   7.397   4.975
21631WAT      O65134   7.257   1.147   2.849
21631WAT     H165135   7.294   1.054   2.841
21631WAT     H265136   7.326   1.213   2.821
21632WAT      O65137   1.255   2.920   6.531
21632WAT     H165138   1.334   2.972   6.566
21632WAT     H265139   1.260   2.826   6.564
21633WAT      O65140   2.472   9.481   5.501
21633WAT     H165141   2.472   9.382   5.486
21633WAT     H265142   2.506   9.501   5.593
21634WAT      O65143   9.067   2.449   2.248
21634WAT     H165144   8.976   2.427   2.284
21634WAT     H265145   9.135   2.439   2.321
21635WAT      O65146   0.710   0.733   1.722
21635WAT     H165147   0.653   0.772   1.794
21635WAT     H265148   0.656   0.669   1.667
21636WAT      O65149   9.081   1.191   0.022
21636WAT     H165150   9.164   1.166  -0.029
21636WAT     H265151   9.015   1.116   0.018
21637WAT      O65152   2.916   9.670   2.130
21637WAT     H165153   2.867   9.658   2.217
21637WAT     H265154   2.957   9.762   2.127
21638WAT      O65155   8.293   2.385   1.721
21638WAT     H165156   8.220   2.436   1.675
21638WAT     H265157   8.255   2.334   1.798
21639WAT      O65158   4.117   7.867   4.545
21639WAT     H165159   4.115   7.767   4.555
21639WAT     H265160   4.036   7.906   4.589
21640WAT      O65161   7.214   6.093   2.895
21640WAT     H165162   7.152   6.067   2.821
21640WAT     H265163   7.202   6.029   2.972
21641WAT      O65164   1.223   9.363   5.013
21641WAT     H165165   1.193   9.295   5.081
21641WAT     H265166   1.235   9.451   5.058
21642WAT      O65167   9.670   4.346   3.960
21642WAT     H165168   9.604   4.271   3.960
21642WAT     H265169   9.763   4.310   3.954
21643WAT      O65170   1.751   6.534   9.042
21643WAT     H165171   1.749   6.467   9.116
21643WAT     H265172   1.727   6.624   9.078
21644WAT      O65173   3.820   7.698   4.951
21644WAT     H165174   3.757   7.736   4.883
21644WAT     H265175   3.802   7.600   4.961
21645WAT      O65176   0.275   2.171   9.300
21645WAT     H165177   0.308   2.199   9.210
21645WAT     H265178   0.345   2.117   9.346
21646WAT      O65179   5.718   8.808   6.278
21646WAT     H165180   5.704   8.870   6.355
21646WAT     H265181   5.630   8.791   6.232
21647WAT      O65182   0.266   3.205   3.806
21647WAT     H165183   0.247   3.149   3.725
21647WAT     H265184   0.310   3.290   3.777
21648WAT      O65185   7.327   0.433   2.087
21648WAT     H165186   7.345   0.396   2.178
21648WAT     H265187   7.234   0.469   2.084
21649WAT      O65188   3.495   4.358   1.561
21649WAT     H165189   3.558   4.338   1.486
21649WAT     H265190   3.521   4.304   1.641
21650WAT      O65191   6.724   8.876   6.304
21650WAT     H165192   6.628   8.903   6.301
21650WAT     H265193   6.781   8.958   6.299
21651WAT      O65194   5.308   9.123   1.247
21651WAT     H165195   5.394   9.138   1.298
21651WAT     H265196   5.290   9.203   1.190
21652WAT      O65197   5.923   6.773   3.506
21652WAT     H165198   5.864   6.789   3.426
21652WAT     H265199   5.957   6.861   3.540
21653WAT      O65200   0.877   5.022   0.155
21653WAT     H165201   0.945   5.007   0.227
21653WAT     H265202   0.843   4.934   0.123
21654WAT      O65203   4.979   7.259   1.439
21654WAT     H165204   5.070   7.272   1.479
21654WAT     H265205   4.910   7.264   1.510
21655WAT      O65206   2.429   4.270   5.088
21655WAT     H165207   2.338   4.280   5.048
21655WAT     H265208   2.421   4.260   5.188
21656WAT      O65209   0.424   0.473   6.557
21656WAT     H165210   0.493   0.509   6.620
21656WAT     H265211   0.345   0.441   6.609
21657WAT      O65212   6.964   1.820   4.614
21657WAT     H165213   6.928   1.903   4.657
21657WAT     H265214   7.049   1.841   4.566
21658WAT      O65215   4.289   0.993   9.274
21658WAT     H165216   4.222   0.976   9.201
21658WAT     H265217   4.369   1.040   9.236
21659WAT      O65218   3.132   2.211   2.841
21659WAT     H165219   3.153   2.119   2.874
21659WAT     H265220   3.060   2.251   2.897
21660WAT      O65221   0.393   0.502   6.922
21660WAT     H165222   0.336   0.530   6.845
21660WAT     H265223   0.338   0.449   6.987
21661WAT      O65224   1.689   5.911   0.013
21661WAT     H165225   1.631   5.865  -0.054
21661WAT     H265226   1.656   5.891   0.105
21662WAT      O65227   7.122   7.685   7.848
21662WAT     H165228   7.164   7.634   7.773
21662WAT     H265229   7.024   7.694   7.830
21663WAT      O65230   4.331   0.290   4.596
21663WAT     H165231   4.299   0.247   4.681
21663WAT     H265232   4.254   0.332   4.549
21664WAT      O65233   0.139   5.063   7.302
21664WAT     H165234   0.089   5.146   7.328
21664WAT     H265235   0.094   5.020   7.223
21665WAT      O65236   6.515   7.435   8.037
21665WAT     H165237   6.464   7.447   7.952
21665WAT     H265238   6.501   7.514   8.097
21666WAT      O65239   2.075   1.383   3.180
21666WAT     H165240   2.003   1.362   3.115
21666WAT     H265241   2.160   1.403   3.131
21667WAT      O65242   5.288   1.048   4.489
21667WAT     H165243   5.387   1.046   4.470
21667WAT     H265244   5.247   0.961   4.463
21668WAT      O65245   7.300   1.477   9.498
21668WAT     H165246   7.226   1.473   9.566
21668WAT     H265247   7.326   1.573   9.483
21669WAT      O65248   8.011   6.240   4.288
21669WAT     H165249   8.029   6.181   4.209
21669WAT     H265250   8.093   6.242   4.346
21670WAT      O65251   9.044   3.923   8.409
21670WAT     H165252   9.112   3.984   8.449
21670WAT     H265253   8.963   3.975   8.384
21671WAT      O65254   0.886   8.089   1.727
21671WAT     H165255   0.915   8.162   1.666
21671WAT     H265256   0.962   8.062   1.786
21672WAT      O65257   7.958   2.673   0.528
21672WAT     H165258   7.881   2.630   0.574
21672WAT     H265259   7.965   2.769   0.557
21673WAT      O65260   0.626   0.425   9.676
21673WAT     H165261   0.615   0.497   9.608
21673WAT     H265262   0.598   0.459   9.766
21674WAT      O65263   3.497   9.025   6.620
21674WAT     H165264   3.434   8.957   6.583
21674WAT     H265265   3.446   9.106   6.650
21675WAT      O65266   0.430   1.063   7.765
21675WAT     H165267   0.349   1.006   7.757
21675WAT     H265268   0.403   1.160   7.762
21676WAT      O65269   8.327   7.746   4.135
21676WAT     H165270   8.280   7.667   4.095
21676WAT     H265271   8.315   7.745   4.234
21677WAT      O65272   3.353   3.474   9.468
21677WAT     H165273   3.438   3.501   9.423
21677WAT     H265274   3.276   3.504   9.412
21678WAT      O65275   2.453   6.924   1.795
21678WAT     H165276   2.374   6.983   1.779
21678WAT     H265277   2.438   6.869   1.878
21679WAT      O65278   1.599   0.027   1.736
21679WAT     H165279   1.515  -0.026   1.724
21679WAT     H265280   1.620   0.034   1.834
21680WAT      O65281   0.193   7.774   1.564
21680WAT     H165282   0.272   7.815   1.518
21680WAT     H265283   0.112   7.782   1.506
21681WAT      O65284   8.247   8.500   9.610
21681WAT     H165285   8.213   8.588   9.646
21681WAT     H265286   8.258   8.436   9.686
21682WAT      O65287   6.813   9.394   7.883
21682WAT     H165288   6.835   9.391   7.786
21682WAT     H265289   6.748   9.467   7.901
21683WAT      O65290   8.579   0.359   2.858
21683WAT     H165291   8.575   0.266   2.894
21683WAT     H265292   8.511   0.369   2.785
21684WAT      O65293   1.630   4.125   4.389
21684WAT     H165294   1.672   4.071   4.316
21684WAT     H265295   1.601   4.214   4.353
21685WAT      O65296   6.630   5.910   4.219
21685WAT     H165297   6.606   5.974   4.291
21685WAT     H265298   6.729   5.913   4.203
21686WAT      O65299   6.052   3.750   3.150
21686WAT     H165300   6.117   3.819   3.183
21686WAT     H265301   6.064   3.666   3.202
21687WAT      O65302   6.790   0.500   4.889
21687WAT     H165303   6.727   0.577   4.886
21687WAT     H265304   6.882   0.531   4.863
21688WAT      O65305   0.242   4.309   5.918
21688WAT     H165306   0.199   4.398   5.903
21688WAT     H265307   0.213   4.272   6.006
21689WAT      O65308   3.167   0.856   7.829
21689WAT     H165309   3.075   0.896   7.821
21689WAT     H265310   3.178   0.817   7.920
21690WAT      O65311   6.362   7.211   6.882
21690WAT     H165312   6.313   7.185   6.799
21690WAT     H265313   6.310   7.282   6.930
21691WAT      O65314   5.488   6.003   4.224
21691WAT     H165315   5.560   5.945   4.186
21691WAT     H265316   5.529   6.083   4.267
21692WAT      O65317   4.135   4.471   2.241
21692WAT     H165318   4.145   4.399   2.309
21692WAT     H265319   4.224   4.515   2.226
21693WAT      O65320   9.080   1.332   6.312
21693WAT     H165321   8.984   1.326   6.283
21693WAT     H265322   9.084   1.366   6.406
21694WAT      O65323   1.037   2.522   7.724
21694WAT     H165324   0.999   2.449   7.780
21694WAT     H265325   0.991   2.608   7.745
21695WAT      O65326   4.975   1.476   3.400
21695WAT     H165327   4.920   1.439   3.475
21695WAT     H265328   4.948   1.432   3.315
21696WAT      O65329   4.602   4.881   7.288
21696WAT     H165330   4.582   4.971   7.326
21696WAT     H265331   4.639   4.890   7.196
21697WAT      O65332   0.196   4.318   4.771
21697WAT     H165333   0.135   4.289   4.697
21697WAT     H265334   0.185   4.257   4.849
21698WAT      O65335   4.032   0.929   6.006
21698WAT     H165336   4.120   0.953   5.965
21698WAT     H265337   4.019   0.830   6.004
21699WAT      O65338   2.389   6.576   6.422
21699WAT     H165339   2.318   6.645   6.432
21699WAT     H265340   2.477   6.621   6.407
21700WAT      O65341   7.220   6.107   1.408
21700WAT     H165342   7.154   6.041   1.445
21700WAT     H265343   7.308   6.062   1.394
21701WAT      O65344   4.184   8.755   3.822
21701WAT     H165345   4.088   8.764   3.793
21701WAT     H265346   4.193   8.678   3.885
21702WAT      O65347   9.860   1.225   9.564
21702WAT     H165348   9.927   1.151   9.561
21702WAT     H265349   9.793   1.206   9.635
21703WAT      O65350   7.923   1.772   2.237
21703WAT     H165351   7.949   1.677   2.252
21703WAT     H265352   7.882   1.808   2.321
21704WAT      O65353   2.188   6.639   4.322
21704WAT     H165354   2.288   6.646   4.331
21704WAT     H265355   2.149   6.620   4.412
21705WAT      O65356   9.566   0.410   7.160
21705WAT     H165357   9.582   0.503   7.193
21705WAT     H265358   9.490   0.370   7.211
21706WAT      O65359   0.431   3.736   3.733
21706WAT     H165360   0.479   3.699   3.812
21706WAT     H265361   0.496   3.782   3.673
21707WAT      O65362   5.588   4.742   1.055
21707WAT     H165363   5.616   4.671   1.120
21707WAT     H265364   5.660   4.811   1.046
21708WAT      O65365   5.612   8.279   4.178
21708WAT     H165366   5.572   8.206   4.233
21708WAT     H265367   5.680   8.241   4.115
21709WAT      O65368   2.813   7.787   7.026
21709WAT     H165369   2.866   7.799   7.110
21709WAT     H265370   2.869   7.816   6.948
21710WAT      O65371   6.266   0.231   8.474
21710WAT     H165372   6.183   0.286   8.469
21710WAT     H265373   6.249   0.150   8.531
21711WAT      O65374   5.688   8.901   9.888
21711WAT     H165375   5.701   8.941   9.798
21711WAT     H265376   5.735   8.812   9.892
21712WAT      O65377   5.725   2.717   3.116
21712WAT     H165378   5.687   2.771   3.192
21712WAT     H265379   5.737   2.775   3.036
21713WAT      O65380   0.465   9.269   5.962
21713WAT     H165381   0.420   9.190   5.922
21713WAT     H265382   0.460   9.346   5.898
21714WAT      O65383   9.567   0.882   9.718
21714WAT     H165384   9.639   0.813   9.707
21714WAT     H265385   9.527   0.873   9.809
21715WAT      O65386   9.806   6.499   9.034
21715WAT     H165387   9.768   6.502   9.126
21715WAT     H265388   9.874   6.571   9.023
21716WAT      O65389   9.065   9.441   3.318
21716WAT     H165390   9.020   9.517   3.365
21716WAT     H265391   9.025   9.354   3.348
21717WAT      O65392   7.603   1.200   7.011
21717WAT     H165393   7.604   1.222   7.108
21717WAT     H265394   7.526   1.138   6.992
21718WAT      O65395   2.783   2.463   2.624
21718WAT     H165396   2.814   2.385   2.571
21718WAT     H265397   2.684   2.461   2.633
21719WAT      O65398   6.675   7.320   5.933
21719WAT     H165399   6.706   7.347   6.024
21719WAT     H265400   6.662   7.221   5.930
21720WAT      O65401   3.287   0.258   1.487
21720WAT     H165402   3.279   0.159   1.479
21720WAT     H265403   3.343   0.280   1.567
21721WAT      O65404   1.517   0.104   9.701
21721WAT     H165405   1.438   0.107   9.640
21721WAT     H265406   1.599   0.081   9.648
21722WAT      O65407   8.530   3.004   0.525
21722WAT     H165408   8.448   3.048   0.487
21722WAT     H265409   8.504   2.946   0.602
21723WAT      O65410   4.330   9.426   5.976
21723WAT     H165411   4.326   9.408   5.878
21723WAT     H265412   4.330   9.339   6.026
21724WAT      O65413   1.852   2.657   1.056
21724WAT     H165414   1.854   2.705   0.968
21724WAT     H265415   1.886   2.718   1.128
21725WAT      O65416   7.832   2.772   9.248
21725WAT     H165417   7.906   2.728   9.198
21725WAT     H265418   7.799   2.852   9.197
21726WAT      O65419   8.344   8.877   8.892
21726WAT     H165420   8.371   8.837   8.805
21726WAT     H265421   8.309   8.970   8.876
21727WAT      O65422   6.089   3.570   7.549
21727WAT     H165423   6.014   3.622   7.591
21727WAT     H265424   6.119   3.617   7.465
21728WAT      O65425   5.082   3.719   9.281
21728WAT     H165426   5.175   3.682   9.276
21728WAT     H265427   5.016   3.644   9.277
21729WAT      O65428   2.100   2.938   6.426
21729WAT     H165429   2.007   2.976   6.438
21729WAT     H265430   2.147   2.938   6.514
21730WAT      O65431   9.054   6.594   0.462
21730WAT     H165432   9.064   6.651   0.543
21730WAT     H265433   8.976   6.626   0.408
21731WAT      O65434   2.422   9.549   8.349
21731WAT     H165435   2.446   9.490   8.426
21731WAT     H265436   2.434   9.498   8.264
21732WAT      O65437   1.644   6.990   8.907
21732WAT     H165438   1.612   6.967   8.815
21732WAT     H265439   1.572   7.040   8.956
21733WAT      O65440   0.340   1.331   7.756
21733WAT     H165441   0.405   1.371   7.691
21733WAT     H265442   0.266   1.397   7.773
21734WAT      O65443   4.190   0.774   9.809
21734WAT     H165444   4.248   0.762   9.889
21734WAT     H265445   4.165   0.685   9.771
21735WAT      O65446   0.018   4.596   5.092
21735WAT     H165447  -0.035   4.577   5.009
21735WAT     H265448   0.115   4.595   5.070
21736WAT      O65449   4.811   7.772   7.517
21736WAT     H165450   4.802   7.675   7.494
21736WAT     H265451   4.720   7.812   7.530
21737WAT      O65452   5.898   0.857   2.365
21737WAT     H165453   5.846   0.931   2.323
21737WAT     H265454   5.876   0.771   2.320
21738WAT      O65455   1.321   1.023   0.808
21738WAT     H165456   1.337   1.069   0.720
21738WAT     H265457   1.244   1.068   0.854
21739WAT      O65458   2.986   4.915   0.985
21739WAT     H165459   2.973   4.834   0.927
21739WAT     H265460   3.022   4.990   0.930
21740WAT      O65461   9.790   2.809   3.950
21740WAT     H165462   9.856   2.771   3.885
21740WAT     H265463   9.825   2.896   3.986
21741WAT      O65464   5.721   4.808   8.189
21741WAT     H165465   5.652   4.849   8.249
21741WAT     H265466   5.681   4.729   8.142
21742WAT      O65467   2.972   1.759   7.082
21742WAT     H165468   3.055   1.813   7.097
21742WAT     H265469   2.971   1.681   7.144
21743WAT      O65470   9.273   8.455   3.073
21743WAT     H165471   9.316   8.534   3.116
21743WAT     H265472   9.341   8.384   3.056
21744WAT      O65473   9.094   0.973   0.406
21744WAT     H165474   9.016   0.998   0.349
21744WAT     H265475   9.070   0.894   0.462
21745WAT      O65476   7.961   9.570   0.291
21745WAT     H165477   7.887   9.520   0.336
21745WAT     H265478   7.932   9.663   0.271
21746WAT      O65479   4.755   9.111   3.059
21746WAT     H165480   4.815   9.036   3.085
21746WAT     H265481   4.786   9.195   3.103
21747WAT      O65482   9.738   6.434   1.346
21747WAT     H165483   9.833   6.464   1.335
21747WAT     H265484   9.680   6.479   1.278
21748WAT      O65485   7.644   0.199   6.894
21748WAT     H165486   7.700   0.141   6.836
21748WAT     H265487   7.636   0.158   6.985
21749WAT      O65488   2.637   9.527   2.985
21749WAT     H165489   2.734   9.524   2.964
21749WAT     H265490   2.588   9.576   2.913
21750WAT      O65491   0.791   3.134   3.075
21750WAT     H165492   0.745   3.209   3.028
21750WAT     H265493   0.725   3.082   3.129
21751WAT      O65494   3.466   9.067   3.462
21751WAT     H165495   3.393   9.064   3.393
21751WAT     H265496   3.452   8.992   3.527
21752WAT      O65497   5.506   4.045   9.647
21752WAT     H165498   5.482   3.953   9.675
21752WAT     H265499   5.561   4.041   9.563
21753WAT      O65500   4.167   6.183   9.156
21753WAT     H165501   4.093   6.129   9.117
21753WAT     H265502   4.250   6.169   9.102
21754WAT      O65503   9.349   7.928   1.914
21754WAT     H165504   9.276   7.975   1.864
21754WAT     H265505   9.328   7.831   1.919
21755WAT      O65506   0.664   2.802   5.559
21755WAT     H165507   0.634   2.777   5.651
21755WAT     H265508   0.613   2.749   5.491
21756WAT      O65509   9.157   4.256   0.101
21756WAT     H165510   9.168   4.232   0.004
21756WAT     H265511   9.084   4.323   0.111
21757WAT      O65512   7.216   3.059   8.803
21757WAT     H165513   7.316   3.060   8.792
21757WAT     H265514   7.172   3.068   8.714
21758WAT      O65515   8.094   5.374   4.842
21758WAT     H165516   8.065   5.315   4.768
21758WAT     H265517   8.148   5.321   4.908
21759WAT      O65518   7.501   1.502   8.432
21759WAT     H165519   7.457   1.437   8.370
21759WAT     H265520   7.600   1.498   8.418
21760WAT      O65521   7.554   2.903   8.938
21760WAT     H165522   7.531   2.950   8.853
21760WAT     H265523   7.642   2.936   8.972
21761WAT      O65524   6.722   0.463   3.708
21761WAT     H165525   6.760   0.438   3.797
21761WAT     H265526   6.718   0.562   3.700
21762WAT      O65527   3.820   2.452   8.398
21762WAT     H165528   3.832   2.426   8.302
21762WAT     H265529   3.873   2.390   8.456
21763WAT      O65530   2.221   4.796   5.622
21763WAT     H165531   2.200   4.703   5.650
21763WAT     H265532   2.175   4.861   5.682
21764WAT      O65533   2.235   4.425   7.789
21764WAT     H165534   2.194   4.475   7.866
21764WAT     H265535   2.215   4.473   7.704
21765WAT      O65536   6.000   9.583   6.467
21765WAT     H165537   6.043   9.515   6.408
21765WAT     H265538   5.990   9.669   6.416
21766WAT      O65539   7.128   5.990   4.285
21766WAT     H165540   7.119   6.068   4.346
21766WAT     H265541   7.201   5.930   4.317
21767WAT      O65542   6.879   5.112   8.207
21767WAT     H165543   6.937   5.179   8.160
21767WAT     H265544   6.783   5.132   8.186
21768WAT      O65545   1.771   4.525   2.247
21768WAT     H165546   1.819   4.443   2.278
21768WAT     H265547   1.753   4.518   2.149
21769WAT      O65548   0.925   9.614   4.420
21769WAT     H165549   0.963   9.522   4.410
21769WAT     H265550   0.997   9.681   4.399
21770WAT      O65551   5.365   6.763   8.062
21770WAT     H165552   5.333   6.786   7.970
21770WAT     H265553   5.444   6.820   8.085
21771WAT      O65554   0.397   5.893   4.499
21771WAT     H165555   0.345   5.848   4.572
21771WAT     H265556   0.429   5.982   4.532
21772WAT      O65557   3.578   2.462   5.187
21772WAT     H165558   3.559   2.482   5.091
21772WAT     H265559   3.524   2.384   5.217
21773WAT      O65560   4.702   0.777   8.473
21773WAT     H165561   4.634   0.728   8.528
21773WAT     H265562   4.726   0.862   8.520
21774WAT      O65563   1.535   0.720   1.610
21774WAT     H165564   1.588   0.712   1.695
21774WAT     H265565   1.507   0.815   1.597
21775WAT      O65566   0.084   2.451   1.608
21775WAT     H165567   0.066   2.462   1.706
21775WAT     H265568   0.043   2.527   1.558
21776WAT      O65569   3.245   1.521   8.291
21776WAT     H165570   3.220   1.531   8.194
21776WAT     H265571   3.214   1.601   8.342
21777WAT      O65572   0.849   0.956   2.952
21777WAT     H165573   0.940   0.977   2.987
21777WAT     H265574   0.817   1.031   2.894
21778WAT      O65575   7.542   0.739   8.562
21778WAT     H165576   7.582   0.658   8.518
21778WAT     H265577   7.587   0.753   8.651
21779WAT      O65578   2.960   6.683   6.706
21779WAT     H165579   2.942   6.651   6.613
21779WAT     H265580   2.910   6.768   6.723
21780WAT      O65581   6.675   1.172   0.848
21780WAT     H165582   6.664   1.098   0.781
21780WAT     H265583   6.767   1.212   0.838
21781WAT      O65584   4.918   6.669   6.018
21781WAT     H165585   4.835   6.633   6.061
21781WAT     H265586   4.961   6.598   5.963
21782WAT      O65587   0.361   8.105   7.008
21782WAT     H165588   0.297   8.179   7.028
21782WAT     H265589   0.385   8.108   6.911
21783WAT      O65590   2.337   7.097   7.004
21783WAT     H165591   2.263   7.165   7.007
21783WAT     H265592   2.414   7.130   7.058
21784WAT      O65593   6.762   3.655   8.581
21784WAT     H165594   6.749   3.561   8.551
21784WAT     H265595   6.776   3.657   8.680
21785WAT      O65596   0.422   3.097   3.069
21785WAT     H165597   0.429   3.008   3.023
21785WAT     H265598   0.464   3.092   3.159
21786WAT      O65599   2.634   0.334   0.827
21786WAT     H165600   2.587   0.357   0.912
21786WAT     H265601   2.733   0.344   0.840
21787WAT      O65602   0.047   7.721   3.100
21787WAT     H165603   0.097   7.642   3.137
21787WAT     H265604   0.097   7.757   3.021
21788WAT      O65605   9.247   3.607   1.957
21788WAT     H165606   9.248   3.689   2.015
21788WAT     H265607   9.233   3.526   2.014
21789WAT      O65608   3.910   2.604   8.751
21789WAT     H165609   3.960   2.519   8.774
21789WAT     H265610   3.812   2.586   8.755
21790WAT      O65611   8.938   5.504   1.714
21790WAT     H165612   8.913   5.486   1.810
21790WAT     H265613   9.037   5.500   1.705
21791WAT      O65614   0.752   2.039   8.325
21791WAT     H165615   0.789   2.052   8.233
21791WAT     H265616   0.670   2.095   8.337
21792WAT      O65617   3.465   1.407   1.870
21792WAT     H165618   3.388   1.415   1.808
21792WAT     H265619   3.531   1.480   1.852
21793WAT      O65620   1.153   5.806   0.126
21793WAT     H165621   1.090   5.878   0.097
21793WAT     H265622   1.220   5.844   0.190
21794WAT      O65623   1.803   9.154   4.823
21794WAT     H165624   1.726   9.202   4.779
21794WAT     H265625   1.877   9.219   4.840
21795WAT      O65626   0.465   5.441   1.974
21795WAT     H165627   0.464   5.359   2.032
21795WAT     H265628   0.464   5.413   1.878
21796WAT      O65629   0.186   2.625   7.341
21796WAT     H165630   0.209   2.682   7.262
21796WAT     H265631   0.238   2.655   7.421
21797WAT      O65632   3.734   0.062   9.048
21797WAT     H165633   3.813   0.047   8.989
21797WAT     H265634   3.733  -0.008   9.120
21798WAT      O65635   3.844   8.311   9.216
21798WAT     H165636   3.822   8.284   9.122
21798WAT     H265637   3.896   8.396   9.214
21799WAT      O65638   4.158   9.066   2.224
21799WAT     H165639   4.169   8.968   2.245
21799WAT     H265640   4.124   9.113   2.306
21800WAT      O65641   7.454   2.466   7.124
21800WAT     H165642   7.369   2.515   7.143
21800WAT     H265643   7.439   2.368   7.133
21801WAT      O65644   5.539   5.474   2.096
21801WAT     H165645   5.440   5.464   2.093
21801WAT     H265646   5.580   5.438   2.012
21802WAT      O65647   1.412   3.963   8.888
21802WAT     H165648   1.443   4.049   8.929
21802WAT     H265649   1.438   3.960   8.792
21803WAT      O65650   8.578   6.087   5.149
21803WAT     H165651   8.610   6.182   5.147
21803WAT     H265652   8.657   6.026   5.154
21804WAT      O65653   8.747   2.606   5.491
21804WAT     H165654   8.819   2.675   5.491
21804WAT     H265655   8.765   2.539   5.564
21805WAT      O65656   6.271   7.571   2.279
21805WAT     H165657   6.307   7.664   2.272
21805WAT     H265658   6.231   7.556   2.369
21806WAT      O65659   2.647   6.152   8.333
21806WAT     H165660   2.580   6.210   8.287
21806WAT     H265661   2.601   6.090   8.396
21807WAT      O65662   0.413   1.677   4.534
21807WAT     H165663   0.364   1.723   4.460
21807WAT     H265664   0.510   1.701   4.530
21808WAT      O65665   6.336   8.390   7.603
21808WAT     H165666   6.303   8.421   7.514
21808WAT     H265667   6.362   8.294   7.597
21809WAT      O65668   0.715   3.553   1.134
21809WAT     H165669   0.723   3.524   1.038
21809WAT     H265670   0.804   3.549   1.178
21810WAT      O65671   4.319   4.989   1.676
21810WAT     H165672   4.361   5.036   1.754
21810WAT     H265673   4.387   4.975   1.604
21811WAT      O65674   8.278   4.473   1.583
21811WAT     H165675   8.274   4.567   1.617
21811WAT     H265676   8.227   4.413   1.645
21812WAT      O65677   8.688   7.678   8.236
21812WAT     H165678   8.776   7.647   8.272
21812WAT     H265679   8.702   7.723   8.148
21813WAT      O65680   7.511   0.579   5.417
21813WAT     H165681   7.506   0.502   5.481
21813WAT     H265682   7.593   0.633   5.437
21814WAT      O65683   7.885   0.290   0.732
21814WAT     H165684   7.937   0.362   0.779
21814WAT     H265685   7.931   0.266   0.647
21815WAT      O65686   9.494   8.707   1.218
21815WAT     H165687   9.498   8.656   1.133
21815WAT     H265688   9.414   8.678   1.271
21816WAT      O65689   8.591   5.521   6.328
21816WAT     H165690   8.632   5.611   6.342
21816WAT     H265691   8.507   5.514   6.382
21817WAT      O65692   7.642   2.267   7.391
21817WAT     H165693   7.685   2.198   7.449
21817WAT     H265694   7.713   2.317   7.340
21818WAT      O65695   5.342   4.698   7.714
21818WAT     H165696   5.293   4.754   7.646
21818WAT     H265697   5.286   4.618   7.737
21819WAT      O65698   6.754   1.381   2.569
21819WAT     H165699   6.710   1.293   2.586
21819WAT     H265700   6.838   1.367   2.516
21820WAT      O65701   1.286   5.721   3.120
21820WAT     H165702   1.234   5.679   3.193
21820WAT     H265703   1.377   5.747   3.154
21821WAT      O65704   2.077   8.737   3.083
21821WAT     H165705   2.055   8.689   2.998
21821WAT     H265706   2.032   8.692   3.160
21822WAT      O65707   0.643   4.676   8.476
21822WAT     H165708   0.574   4.743   8.506
21822WAT     H265709   0.729   4.694   8.523
21823WAT      O65710   5.430   2.112   9.355
21823WAT     H165711   5.393   2.182   9.416
21823WAT     H265712   5.372   2.101   9.275
21824WAT      O65713   0.445   6.463   2.589
21824WAT     H165714   0.461   6.554   2.626
21824WAT     H265715   0.529   6.409   2.596
21825WAT      O65716   4.000   4.230   3.409
21825WAT     H165717   3.921   4.197   3.460
21825WAT     H265718   3.999   4.330   3.405
21826WAT      O65719   3.002   0.858   8.455
21826WAT     H165720   2.983   0.760   8.454
21826WAT     H265721   3.099   0.874   8.442
21827WAT      O65722   7.536   4.788   4.429
21827WAT     H165723   7.574   4.711   4.480
21827WAT     H265724   7.610   4.846   4.396
21828WAT      O65725   0.683   2.667   7.551
21828WAT     H165726   0.744   2.743   7.529
21828WAT     H265727   0.689   2.647   7.648
21829WAT      O65728   8.209   2.850   8.147
21829WAT     H165729   8.109   2.854   8.145
21829WAT     H265730   8.238   2.758   8.174
21830WAT      O65731   6.532   5.675   0.446
21830WAT     H165732   6.448   5.632   0.479
21830WAT     H265733   6.521   5.774   0.446
21831WAT      O65734   5.942   8.317   5.653
21831WAT     H165735   5.935   8.415   5.671
21831WAT     H265736   5.863   8.287   5.600
21832WAT      O65737   4.978   7.969   6.989
21832WAT     H165738   4.999   8.051   7.042
21832WAT     H265739   4.996   7.888   7.045
21833WAT      O65740   0.702   6.640   4.588
21833WAT     H165741   0.629   6.641   4.519
21833WAT     H265742   0.769   6.710   4.565
21834WAT      O65743   6.454   3.995   4.211
21834WAT     H165744   6.458   4.084   4.164
21834WAT     H265745   6.474   3.922   4.146
21835WAT      O65746   6.560   5.864   8.644
21835WAT     H165747   6.606   5.775   8.635
21835WAT     H265748   6.473   5.861   8.595
21836WAT      O65749   2.853   1.568   0.908
21836WAT     H165750   2.895   1.555   0.818
21836WAT     H265751   2.893   1.649   0.952
21837WAT      O65752   9.624   0.380   7.863
21837WAT     H165753   9.634   0.303   7.926
21837WAT     H265754   9.564   0.449   7.905
21838WAT      O65755   1.330   4.015   2.943
21838WAT     H165756   1.325   3.963   3.029
21838WAT     H265757   1.420   4.003   2.902
21839WAT      O65758   0.258   4.048   7.318
21839WAT     H165759   0.341   4.055   7.372
21839WAT     H265760   0.193   3.986   7.362
21840WAT      O65761   6.101   5.157   4.050
21840WAT     H165762   6.099   5.255   4.072
21840WAT     H265763   6.020   5.133   3.997
21841WAT      O65764   4.648   3.796   9.222
21841WAT     H165765   4.722   3.729   9.217
21841WAT     H265766   4.673   3.876   9.167
21842WAT      O65767   5.181   1.868   5.879
21842WAT     H165768   5.252   1.865   5.949
21842WAT     H265769   5.214   1.825   5.795
21843WAT      O65770   1.236   2.589   0.761
21843WAT     H165771   1.321   2.552   0.723
21843WAT     H265772   1.194   2.521   0.822
21844WAT      O65773   2.085   8.359   3.403
21844WAT     H165774   2.171   8.310   3.401
21844WAT     H265775   2.093   8.443   3.348
21845WAT      O65776   2.724   6.736   9.774
21845WAT     H165777   2.690   6.726   9.681
21845WAT     H265778   2.711   6.831   9.804
21846WAT      O65779   0.005   3.172   2.101
21846WAT     H165780  -0.035   3.172   2.009
21846WAT     H265781   0.082   3.236   2.104
21847WAT      O65782   2.088   6.304   1.487
21847WAT     H165783   2.104   6.360   1.406
21847WAT     H265784   1.990   6.287   1.496
21848WAT      O65785   4.492   3.912   7.453
21848WAT     H165786   4.451   3.826   7.425
21848WAT     H265787   4.561   3.896   7.524
21849WAT      O65788   9.559   6.777   9.179
21849WAT     H165789   9.618   6.815   9.251
21849WAT     H265790   9.584   6.818   9.091
21850WAT      O65791   7.924   1.015   0.532
21850WAT     H165792   7.915   0.992   0.629
21850WAT     H265793   7.898   0.936   0.476
21851WAT      O65794   4.423   7.159   7.888
21851WAT     H165795   4.364   7.213   7.949
21851WAT     H265796   4.370   7.130   7.809
21852WAT      O65797   8.841   7.960   7.850
21852WAT     H165798   8.796   7.984   7.763
21852WAT     H265799   8.904   8.034   7.875
21853WAT      O65800   2.914   0.935   0.198
21853WAT     H165801   2.985   0.874   0.163
21853WAT     H265802   2.940   1.030   0.180
21854WAT      O65803   2.472   3.040   4.239
21854WAT     H165804   2.428   2.999   4.319
21854WAT     H265805   2.559   3.082   4.267
21855WAT      O65806   2.170   8.853   5.936
21855WAT     H165807   2.083   8.828   5.977
21855WAT     H265808   2.178   8.813   5.845
21856WAT      O65809   2.537   9.457   8.142
21856WAT     H165810   2.622   9.432   8.188
21856WAT     H265811   2.554   9.533   8.079
21857WAT      O65812   3.400   2.836   4.142
21857WAT     H165813   3.340   2.913   4.118
21857WAT     H265814   3.493   2.870   4.157
21858WAT      O65815   0.795   6.174   9.195
21858WAT     H165816   0.700   6.144   9.200
21858WAT     H265817   0.813   6.239   9.268
21859WAT      O65818   7.623   8.676   2.607
21859WAT     H165819   7.527   8.680   2.582
21859WAT     H265820   7.668   8.600   2.561
21860WAT      O65821   9.631   1.877   6.545
21860WAT     H165822   9.545   1.878   6.596
21860WAT     H265823   9.678   1.790   6.561
21861WAT      O65824   9.028   6.851   7.750
21861WAT     H165825   9.086   6.886   7.676
21861WAT     H265826   9.009   6.754   7.734
21862WAT      O65827   8.624   5.237   8.540
21862WAT     H165828   8.609   5.320   8.487
21862WAT     H265829   8.564   5.164   8.508
21863WAT      O65830   3.316   4.541   4.514
21863WAT     H165831   3.251   4.583   4.451
21863WAT     H265832   3.268   4.506   4.594
21864WAT      O65833   4.412   2.341   3.001
21864WAT     H165834   4.371   2.397   2.929
21864WAT     H265835   4.487   2.288   2.962
21865WAT      O65836   4.379   5.518   4.508
21865WAT     H165837   4.291   5.492   4.548
21865WAT     H265838   4.450   5.513   4.578
21866WAT      O65839   0.749   8.427   0.496
21866WAT     H165840   0.710   8.347   0.450
21866WAT     H265841   0.784   8.491   0.428
21867WAT      O65842   4.280   2.926   6.546
21867WAT     H165843   4.254   3.022   6.557
21867WAT     H265844   4.287   2.904   6.448
21868WAT      O65845   5.655   7.386   4.269
21868WAT     H165846   5.694   7.318   4.207
21868WAT     H265847   5.556   7.378   4.270
21869WAT      O65848   5.254   5.322   5.782
21869WAT     H165849   5.194   5.378   5.726
21869WAT     H265850   5.199   5.258   5.836
21870WAT      O65851   9.113   7.995   2.334
21870WAT     H165852   9.201   7.963   2.368
21870WAT     H265853   9.055   8.022   2.411
21871WAT      O65854   6.767   1.509   6.512
21871WAT     H165855   6.689   1.513   6.574
21871WAT     H265856   6.736   1.489   6.419
21872WAT      O65857   0.474   8.424   1.714
21872WAT     H165858   0.387   8.474   1.705
21872WAT     H265859   0.465   8.356   1.787
21873WAT      O65860   4.456   7.697   4.007
21873WAT     H165861   4.503   7.771   4.055
21873WAT     H265862   4.357   7.707   4.020
21874WAT      O65863   5.446   1.885   2.764
21874WAT     H165864   5.475   1.907   2.857
21874WAT     H265865   5.396   1.799   2.764
21875WAT      O65866   0.794   8.531   2.798
21875WAT     H165867   0.843   8.616   2.816
21875WAT     H265868   0.752   8.498   2.883
21876WAT      O65869   0.781   2.469   4.762
21876WAT     H165870   0.738   2.510   4.682
21876WAT     H265871   0.803   2.373   4.744
21877WAT      O65872   4.442   8.377   1.139
21877WAT     H165873   4.425   8.285   1.103
21877WAT     H265874   4.430   8.376   1.238
21878WAT      O65875   8.805   4.519   3.798
21878WAT     H165876   8.783   4.527   3.896
21878WAT     H265877   8.851   4.602   3.767
21879WAT      O65878   8.203   3.803   9.459
21879WAT     H165879   8.193   3.893   9.501
21879WAT     H265880   8.295   3.793   9.422
21880WAT      O65881   8.192   9.137   0.600
21880WAT     H165882   8.109   9.182   0.568
21880WAT     H265883   8.170   9.043   0.627
21881WAT      O65884   1.446   0.591   1.066
21881WAT     H165885   1.354   0.555   1.078
21881WAT     H265886   1.469   0.593   0.968
21882WAT      O65887   5.799   8.801   9.037
21882WAT     H165888   5.741   8.875   9.072
21882WAT     H265889   5.887   8.802   9.085
21883WAT      O65890   2.414   9.229   8.122
21883WAT     H165891   2.466   9.309   8.153
21883WAT     H265892   2.376   9.181   8.201
21884WAT      O65893   9.117   8.124   8.971
21884WAT     H165894   9.122   8.034   8.930
21884WAT     H265895   9.165   8.124   9.059
21885WAT      O65896   1.915   2.468   3.516
21885WAT     H165897   1.978   2.393   3.533
21885WAT     H265898   1.967   2.551   3.494
21886WAT      O65899   2.347   7.787   7.260
21886WAT     H165900   2.260   7.786   7.210
21886WAT     H265901   2.388   7.878   7.254
21887WAT      O65902   7.995   5.201   4.644
21887WAT     H165903   7.924   5.130   4.646
21887WAT     H265904   8.058   5.182   4.569
21888WAT      O65905   3.044   3.224   8.363
21888WAT     H165906   3.106   3.243   8.439
21888WAT     H265907   3.012   3.129   8.368
21889WAT      O65908   1.531   5.139   3.028
21889WAT     H165909   1.463   5.184   3.086
21889WAT     H265910   1.492   5.124   2.937
21890WAT      O65911   6.444   2.621   3.259
21890WAT     H165912   6.457   2.703   3.204
21890WAT     H265913   6.480   2.636   3.351
21891WAT      O65914   1.958   0.573   1.434
21891WAT     H165915   1.992   0.515   1.507
21891WAT     H265916   1.919   0.517   1.361
21892WAT      O65917   1.046   3.764   8.609
21892WAT     H165918   1.144   3.743   8.601
21892WAT     H265919   1.000   3.741   8.524
21893WAT      O65920   6.910   7.415   0.413
21893WAT     H165921   6.953   7.404   0.323
21893WAT     H265922   6.814   7.387   0.407
21894WAT      O65923   5.992   0.229   4.734
21894WAT     H165924   5.907   0.201   4.780
21894WAT     H265925   6.068   0.222   4.798
21895WAT      O65926   9.739   0.886   1.376
21895WAT     H165927   9.661   0.886   1.439
21895WAT     H265928   9.816   0.838   1.419
21896WAT      O65929   4.044   6.722   6.048
21896WAT     H165930   3.944   6.717   6.055
21896WAT     H265931   4.071   6.714   5.952
21897WAT      O65932   9.607   0.721   5.193
21897WAT     H165933   9.594   0.692   5.287
21897WAT     H265934   9.568   0.653   5.131
21898WAT      O65935   0.793   0.635   0.260
21898WAT     H165936   0.772   0.701   0.188
21898WAT     H265937   0.708   0.597   0.296
21899WAT      O65938   6.737   0.161   1.276
21899WAT     H165939   6.769   0.185   1.368
21899WAT     H265940   6.661   0.221   1.251
21900WAT      O65941   4.957   1.756   9.029
21900WAT     H165942   5.055   1.739   9.045
21900WAT     H265943   4.927   1.832   9.088
21901WAT      O65944   2.733   1.685   0.593
21901WAT     H165945   2.676   1.608   0.564
21901WAT     H265946   2.818   1.652   0.633
21902WAT      O65947   7.326   1.058   4.799
21902WAT     H165948   7.268   1.036   4.877
21902WAT     H265949   7.331   0.979   4.738
21903WAT      O65950   8.487   0.543   6.145
21903WAT     H165951   8.556   0.473   6.165
21903WAT     H265952   8.432   0.514   6.067
21904WAT      O65953   0.040   8.869   1.328
21904WAT     H165954   0.067   8.916   1.412
21904WAT     H265955  -0.058   8.881   1.314
21905WAT      O65956   2.370   0.584   3.230
21905WAT     H165957   2.426   0.556   3.152
21905WAT     H265958   2.281   0.540   3.224
21906WAT      O65959   1.773   2.421   5.124
21906WAT     H165960   1.758   2.472   5.039
21906WAT     H265961   1.857   2.366   5.116
21907WAT      O65962   0.753   9.394   4.089
21907WAT     H165963   0.662   9.411   4.127
21907WAT     H265964   0.821   9.449   4.139
21908WAT      O65965   0.654   7.207   8.798
21908WAT     H165966   0.668   7.273   8.872
21908WAT     H265967   0.634   7.117   8.837
21909WAT      O65968   0.634   1.682   5.879
21909WAT     H165969   0.584   1.754   5.927
21909WAT     H265970   0.574   1.603   5.866
21910WAT      O65971   7.462   9.527   6.215
21910WAT     H165972   7.504   9.532   6.305
21910WAT     H265973   7.467   9.434   6.181
21911WAT      O65974   7.586   0.024   6.034
21911WAT     H165975   7.494  -0.003   6.063
21911WAT     H265976   7.645   0.033   6.113
21912WAT      O65977   7.522   1.572   5.296
21912WAT     H165978   7.601   1.528   5.253
21912WAT     H265979   7.545   1.667   5.318
21913WAT      O65980   1.773   3.064   8.842
21913WAT     H165981   1.848   3.087   8.904
21913WAT     H265982   1.770   3.132   8.768
21914WAT      O65983   9.778   9.833   3.791
21914WAT     H165984   9.735   9.753   3.749
21914WAT     H265985   9.770   9.911   3.729
21915WAT      O65986   5.456   6.233   5.915
21915WAT     H165987   5.437   6.187   5.828
21915WAT     H265988   5.540   6.196   5.955
21916WAT      O65989   8.052   4.650   9.354
21916WAT     H165990   8.064   4.592   9.274
21916WAT     H265991   7.955   4.656   9.376
21917WAT      O65992   4.932   6.709   9.607
21917WAT     H165993   4.837   6.680   9.615
21917WAT     H265994   4.973   6.714   9.698
21918WAT      O65995   9.457   5.934   2.269
21918WAT     H165996   9.485   5.875   2.344
21918WAT     H265997   9.438   5.877   2.188
21919WAT      O65998   6.481   6.807   9.262
21919WAT     H165999   6.400   6.849   9.222
21919WAT     H266000   6.562   6.839   9.214
21920WAT      O66001   1.468   5.745   6.642
21920WAT     H166002   1.385   5.700   6.674
21920WAT     H266003   1.449   5.843   6.629
21921WAT      O66004   3.965   4.363   0.033
21921WAT     H166005   3.894   4.297   0.007
21921WAT     H266006   3.927   4.429   0.098
21922WAT      O66007   2.460   8.495   2.936
21922WAT     H166008   2.528   8.431   2.970
21922WAT     H266009   2.419   8.544   3.014
21923WAT      O66010   2.942   6.533   4.147
21923WAT     H166011   2.872   6.580   4.201
21923WAT     H266012   2.966   6.590   4.068
21924WAT      O66013   5.175   7.009   6.556
21924WAT     H166014   5.258   6.956   6.572
21924WAT     H266015   5.108   6.989   6.629
21925WAT      O66016   5.680   8.552   5.896
21925WAT     H166017   5.677   8.632   5.836
21925WAT     H266018   5.600   8.554   5.957
21926WAT      O66019   9.012   1.626   8.847
21926WAT     H166020   8.983   1.677   8.766
21926WAT     H266021   8.950   1.549   8.862
21927WAT      O66022   9.018   4.698   1.212
21927WAT     H166023   9.090   4.742   1.266
21927WAT     H266024   8.938   4.681   1.271
21928WAT      O66025   2.224   9.203   5.145
21928WAT     H166026   2.173   9.157   5.072
21928WAT     H266027   2.184   9.293   5.162
21929WAT      O66028   9.807   8.860   4.386
21929WAT     H166029   9.717   8.900   4.369
21929WAT     H266030   9.859   8.919   4.448
21930WAT      O66031   0.760   8.870   2.998
21930WAT     H166032   0.727   8.877   3.092
21930WAT     H266033   0.791   8.959   2.966
21931WAT      O66034   9.540   0.303   3.998
21931WAT     H166035   9.455   0.275   3.951
21931WAT     H266036   9.602   0.224   4.004
21932WAT      O66037   3.478   3.232   5.653
21932WAT     H166038   3.526   3.162   5.599
21932WAT     H266039   3.392   3.194   5.688
21933WAT      O66040   7.498   8.187   3.630
21933WAT     H166041   7.475   8.095   3.661
21933WAT     H266042   7.522   8.185   3.533
21934WAT      O66043   3.006   4.682   7.869
21934WAT     H166044   3.040   4.589   7.885
21934WAT     H266045   3.078   4.737   7.826
21935WAT      O66046   1.228   5.327   5.590
21935WAT     H166047   1.254   5.411   5.637
21935WAT     H266048   1.175   5.269   5.651
21936WAT      O66049   4.450   7.950   8.234
21936WAT     H166050   4.412   7.860   8.213
21936WAT     H266051   4.484   7.992   8.150
21937WAT      O66052   0.935   0.680   1.373
21937WAT     H166053   0.971   0.705   1.283
21937WAT     H266054   0.946   0.757   1.436
21938WAT      O66055   3.687   2.619   6.228
21938WAT     H166056   3.728   2.586   6.143
21938WAT     H266057   3.640   2.706   6.211
21939WAT      O66058   4.351   7.015   1.649
21939WAT     H166059   4.352   6.915   1.657
21939WAT     H266060   4.339   7.041   1.554
21940WAT      O66061   0.726   4.055   3.154
21940WAT     H166062   0.775   3.982   3.107
21940WAT     H266063   0.786   4.098   3.222
21941WAT      O66064   9.679   4.213   0.553
21941WAT     H166065   9.687   4.308   0.522
21941WAT     H266066   9.606   4.168   0.503
21942WAT      O66067   2.217   9.224   9.074
21942WAT     H166068   2.315   9.243   9.081
21942WAT     H266069   2.187   9.172   9.153
21943WAT      O66070   4.026   5.238   6.621
21943WAT     H166071   4.110   5.280   6.586
21943WAT     H266072   4.012   5.266   6.716
21944WAT      O66073   0.794   3.768   5.137
21944WAT     H166074   0.798   3.731   5.230
21944WAT     H266075   0.736   3.709   5.081
21945WAT      O66076   7.853   1.205   2.911
21945WAT     H166077   7.871   1.298   2.879
21945WAT     H266078   7.900   1.191   2.999
21946WAT      O66079   4.321   9.701   7.333
21946WAT     H166080   4.411   9.743   7.341
21946WAT     H266081   4.253   9.757   7.380
21947WAT      O66082   4.048   4.712   8.649
21947WAT     H166083   4.092   4.794   8.686
21947WAT     H266084   3.965   4.738   8.601
21948WAT      O66085   3.767   9.228   5.701
21948WAT     H166086   3.792   9.237   5.604
21948WAT     H266087   3.670   9.208   5.709
21949WAT      O66088   4.711   8.869   9.591
21949WAT     H166089   4.654   8.951   9.591
21949WAT     H266090   4.796   8.886   9.542
21950WAT      O66091   6.943   2.942   8.086
21950WAT     H166092   6.911   2.944   7.992
21950WAT     H266093   6.894   3.011   8.140
21951WAT      O66094   1.670   2.721   7.572
21951WAT     H166095   1.644   2.678   7.486
21951WAT     H266096   1.590   2.730   7.631
21952WAT      O66097   6.552   9.246   8.372
21952WAT     H166098   6.458   9.226   8.343
21952WAT     H266099   6.584   9.174   8.433
21953WAT      O66100   1.656   0.066   0.440
21953WAT     H166101   1.619   0.122   0.514
21953WAT     H266102   1.614  -0.025   0.443
21954WAT      O66103   2.876   5.001   4.168
21954WAT     H166104   2.834   4.921   4.126
21954WAT     H266105   2.927   5.052   4.098
21955WAT      O66106   2.510   0.881   3.126
21955WAT     H166107   2.577   0.837   3.184
21955WAT     H266108   2.525   0.853   3.031
21956WAT      O66109   1.044   6.506   4.066
21956WAT     H166110   1.104   6.558   4.126
21956WAT     H266111   1.063   6.529   3.970
21957WAT      O66112   9.331   0.176   9.016
21957WAT     H166113   9.289   0.097   9.059
21957WAT     H266114   9.425   0.186   9.049
21958WAT      O66115   6.903   8.906   3.196
21958WAT     H166116   6.958   8.954   3.264
21958WAT     H266117   6.945   8.818   3.173
21959WAT      O66118   9.538   4.210   2.347
21959WAT     H166119   9.549   4.259   2.261
21959WAT     H266120   9.486   4.126   2.331
21960WAT      O66121   1.317   3.988   7.598
21960WAT     H166122   1.401   4.029   7.631
21960WAT     H266123   1.297   3.905   7.651
21961WAT      O66124   8.045   5.565   3.307
21961WAT     H166125   8.085   5.649   3.342
21961WAT     H266126   8.024   5.576   3.209
21962WAT      O66127   9.070   1.618   3.870
21962WAT     H166128   9.125   1.597   3.950
21962WAT     H266129   9.118   1.590   3.787
21963WAT      O66130   5.602   7.806   9.037
21963WAT     H166131   5.668   7.765   8.974
21963WAT     H266132   5.521   7.834   8.986
21964WAT      O66133   4.613   4.572   3.525
21964WAT     H166134   4.618   4.555   3.427
21964WAT     H266135   4.684   4.638   3.551
21965WAT      O66136   3.616   2.600   6.592
21965WAT     H166137   3.711   2.626   6.577
21965WAT     H266138   3.594   2.521   6.534
21966WAT      O66139   4.314   7.502   6.189
21966WAT     H166140   4.371   7.573   6.146
21966WAT     H266141   4.321   7.511   6.289
21967WAT      O66142   5.975   0.866   0.111
21967WAT     H166143   6.075   0.874   0.102
21967WAT     H266144   5.953   0.805   0.187
21968WAT      O66145   6.947   8.256   5.638
21968WAT     H166146   6.998   8.264   5.724
21968WAT     H266147   7.003   8.292   5.563
21969WAT      O66148   2.624   2.317   9.769
21969WAT     H166149   2.589   2.224   9.761
21969WAT     H266150   2.576   2.365   9.842
21970WAT      O66151   2.983   8.127   7.014
21970WAT     H166152   3.061   8.115   6.951
21970WAT     H266153   3.008   8.192   7.085
21971WAT      O66154   2.170   1.781   6.345
21971WAT     H166155   2.256   1.758   6.298
21971WAT     H266156   2.130   1.862   6.303
21972WAT      O66157   2.030   0.285   2.568
21972WAT     H166158   2.075   0.330   2.491
21972WAT     H266159   1.989   0.199   2.538
21973WAT      O66160   3.375   9.837   7.112
21973WAT     H166161   3.304   9.792   7.166
21973WAT     H266162   3.361   9.816   7.015
21974WAT      O66163   3.884   9.682   7.421
21974WAT     H166164   3.857   9.761   7.476
21974WAT     H266165   3.978   9.695   7.390
21975WAT      O66166   4.851   3.754   1.047
21975WAT     H166167   4.892   3.663   1.052
21975WAT     H266168   4.857   3.798   1.136
21976WAT      O66169   9.045   2.003   1.375
21976WAT     H166170   9.102   2.065   1.430
21976WAT     H266171   9.094   1.978   1.292
21977WAT      O66172   8.411   2.035   5.505
21977WAT     H166173   8.497   2.034   5.555
21977WAT     H266174   8.339   1.996   5.562
21978WAT      O66175   0.596   3.496   2.935
21978WAT     H166176   0.499   3.473   2.930
21978WAT     H266177   0.628   3.487   3.029
21979WAT      O66178   1.995   0.019   4.430
21979WAT     H166179   1.973   0.082   4.505
21979WAT     H266180   1.940   0.042   4.350
21980WAT      O66181   5.034   2.605   4.503
21980WAT     H166182   5.121   2.607   4.453
21980WAT     H266183   4.961   2.643   4.446
21981WAT      O66184   3.018   9.695   9.036
21981WAT     H166185   2.978   9.746   8.960
21981WAT     H266186   3.066   9.759   9.097
21982WAT      O66187   4.497   6.578   6.822
21982WAT     H166188   4.427   6.628   6.771
21982WAT     H266189   4.588   6.609   6.794
21983WAT      O66190   3.757   6.790   0.839
21983WAT     H166191   3.832   6.780   0.904
21983WAT     H266192   3.671   6.804   0.888
21984WAT      O66193   0.384   8.657   7.856
21984WAT     H166194   0.436   8.608   7.786
21984WAT     H266195   0.432   8.651   7.944
21985WAT      O66196   9.152   9.633   2.676
21985WAT     H166197   9.192   9.593   2.594
21985WAT     H266198   9.222   9.684   2.726
21986WAT      O66199   7.060   0.381   3.581
21986WAT     H166200   6.996   0.307   3.559
21986WAT     H266201   7.098   0.419   3.496
21987WAT      O66202   5.027   1.625   7.951
21987WAT     H166203   5.021   1.525   7.951
21987WAT     H266204   5.053   1.656   7.859
21988WAT      O66205   4.490   5.573   5.702
21988WAT     H166206   4.480   5.671   5.684
21988WAT     H266207   4.401   5.534   5.724
21989WAT      O66208   4.698   6.589   1.438
21989WAT     H166209   4.627   6.659   1.429
21989WAT     H266210   4.660   6.507   1.481
21990WAT      O66211   9.065   6.265   4.830
21990WAT     H166212   9.113   6.201   4.770
21990WAT     H266213   8.982   6.222   4.864
21991WAT      O66214   5.023   2.787   5.338
21991WAT     H166215   4.997   2.872   5.291
21991WAT     H266216   5.114   2.759   5.308
21992WAT      O66217   0.287   3.062   0.720
21992WAT     H166218   0.312   3.063   0.623
21992WAT     H266219   0.329   2.983   0.764
21993WAT      O66220   1.792   0.185   5.566
21993WAT     H166221   1.768   0.278   5.594
21993WAT     H266222   1.871   0.187   5.505
21994WAT      O66223   6.117   4.923   6.604
21994WAT     H166224   6.127   4.962   6.696
21994WAT     H266225   6.090   4.827   6.612
21995WAT      O66226   2.673   1.721   4.896
21995WAT     H166227   2.592   1.663   4.903
21995WAT     H266228   2.694   1.738   4.800
21996WAT      O66229   6.355   9.310   5.554
21996WAT     H166230   6.290   9.362   5.609
21996WAT     H266231   6.361   9.351   5.463
21997WAT      O66232   9.653   9.259   6.093
21997WAT     H166233   9.583   9.314   6.047
21997WAT     H266234   9.718   9.319   6.139
21998WAT      O66235   7.539   5.254   1.102
21998WAT     H166236   7.583   5.227   1.017
21998WAT     H266237   7.470   5.187   1.128
21999WAT      O66238   7.489   1.565   0.393
21999WAT     H166239   7.531   1.646   0.436
21999WAT     H266240   7.489   1.489   0.458
22000WAT      O66241   4.982   6.201   4.048
22000WAT     H166242   4.899   6.237   4.093
22000WAT     H266243   4.956   6.129   3.985
22001WAT      O66244   4.709   6.256   6.825
22001WAT     H166245   4.801   6.293   6.813
22001WAT     H266246   4.655   6.273   6.742
22002WAT      O66247   7.071   9.148   0.968
22002WAT     H166248   7.025   9.111   0.887
22002WAT     H266249   7.070   9.248   0.965
22003WAT      O66250   9.367   0.255   1.629
22003WAT     H166251   9.441   0.317   1.651
22003WAT     H266252   9.282   0.307   1.616
22004WAT      O66253   9.671   3.897   9.470
22004WAT     H166254   9.597   3.963   9.457
22004WAT     H266255   9.709   3.908   9.562
22005WAT      O66256   5.919   8.874   2.482
22005WAT     H166257   5.913   8.890   2.580
22005WAT     H266258   5.970   8.948   2.439
22006WAT      O66259   2.482   5.666   1.479
22006WAT     H166260   2.552   5.671   1.408
22006WAT     H266261   2.525   5.649   1.567
22007WAT      O66262   9.101   4.196   2.208
22007WAT     H166263   9.036   4.272   2.200
22007WAT     H266264   9.104   4.146   2.121
22008WAT      O66265   5.829   9.506   2.469
22008WAT     H166266   5.812   9.553   2.382
22008WAT     H266267   5.824   9.571   2.544
22009WAT      O66268   7.753   0.506   6.607
22009WAT     H166269   7.680   0.561   6.567
22009WAT     H266270   7.839   0.556   6.600
22010WAT      O66271   9.643   5.997   5.613
22010WAT     H166272   9.581   5.987   5.691
22010WAT     H266273   9.601   6.057   5.545
22011WAT      O66274   1.908   4.476   8.552
22011WAT     H166275   1.877   4.382   8.540
22011WAT     H266276   1.896   4.504   8.647
22012WAT      O66277   5.028   9.009   6.938
22012WAT     H166278   5.064   8.918   6.916
22012WAT     H266279   5.082   9.049   7.012
22013WAT      O66280   8.834   0.616   8.531
22013WAT     H166281   8.777   0.582   8.605
22013WAT     H266282   8.921   0.567   8.531
22014WAT      O66283   6.469   8.323   1.032
22014WAT     H166284   6.391   8.301   0.973
22014WAT     H266285   6.506   8.239   1.071
22015WAT      O66286   6.223   9.524   2.148
22015WAT     H166287   6.179   9.485   2.229
22015WAT     H266288   6.269   9.452   2.097
22016WAT      O66289   0.305   9.133   7.668
22016WAT     H166290   0.307   9.188   7.585
22016WAT     H266291   0.383   9.158   7.726
22017WAT      O66292   5.027   6.818   7.998
22017WAT     H166293   4.997   6.735   8.045
22017WAT     H266294   5.015   6.807   7.899
22018WAT      O66295   5.608   7.165   2.529
22018WAT     H166296   5.531   7.148   2.590
22018WAT     H266297   5.690   7.122   2.567
22019WAT      O66298   5.252   3.924   7.024
22019WAT     H166299   5.195   4.000   6.997
22019WAT     H266300   5.349   3.950   7.018
22020WAT      O66301   5.807   3.788   9.309
22020WAT     H166302   5.818   3.784   9.209
22020WAT     H266303   5.882   3.739   9.352
22021WAT      O66304   8.329   1.415   5.648
22021WAT     H166305   8.262   1.347   5.617
22021WAT     H266306   8.420   1.388   5.619
22022WAT      O66307   4.032   0.351   0.582
22022WAT     H166308   3.950   0.350   0.639
22022WAT     H266309   4.060   0.446   0.566
22023WAT      O66310   5.275   2.211   5.232
22023WAT     H166311   5.258   2.134   5.293
22023WAT     H266312   5.373   2.229   5.227
22024WAT      O66313   6.198   3.762   4.783
22024WAT     H166314   6.267   3.759   4.711
22024WAT     H266315   6.130   3.690   4.768
22025WAT      O66316   9.387   5.304   7.843
22025WAT     H166317   9.374   5.288   7.745
22025WAT     H266318   9.469   5.256   7.874
22026WAT      O66319   9.036   7.457   6.027
22026WAT     H166320   8.937   7.450   6.015
22026WAT     H266321   9.070   7.373   6.070
22027WAT      O66322   9.183   4.354   4.912
22027WAT     H166323   9.218   4.326   4.823
22027WAT     H266324   9.108   4.294   4.939
22028WAT      O66325   0.999   3.018   9.545
22028WAT     H166326   0.955   3.093   9.496
22028WAT     H266327   0.932   2.974   9.605
22029WAT      O66328   9.741   6.183   9.515
22029WAT     H166329   9.658   6.221   9.557
22029WAT     H266330   9.725   6.168   9.418
22030WAT      O66331   4.994   3.601   2.550
22030WAT     H166332   5.019   3.690   2.512
22030WAT     H266333   5.072   3.564   2.602
22031WAT      O66334   0.769   8.789   4.194
22031WAT     H166335   0.714   8.859   4.239
22031WAT     H266336   0.866   8.804   4.215
22032WAT      O66337   0.983   8.788   1.074
22032WAT     H166338   1.021   8.828   1.158
22032WAT     H266339   0.950   8.696   1.092
22033WAT      O66340   0.309   1.075   9.624
22033WAT     H166341   0.211   1.063   9.640
22033WAT     H266342   0.334   1.170   9.644
22034WAT      O66343   6.254   1.004   6.262
22034WAT     H166344   6.204   0.974   6.343
22034WAT     H266345   6.349   1.022   6.286
22035WAT      O66346   5.992   9.778   9.129
22035WAT     H166347   6.017   9.689   9.091
22035WAT     H266348   6.059   9.846   9.101
22036WAT      O66349   2.845   5.567   9.732
22036WAT     H166350   2.778   5.602   9.666
22036WAT     H266351   2.863   5.637   9.801
22037WAT      O66352   0.540   5.134   6.640
22037WAT     H166353   0.626   5.164   6.599
22037WAT     H266354   0.509   5.050   6.596
22038WAT      O66355   6.388   9.206   0.505
22038WAT     H166356   6.446   9.186   0.584
22038WAT     H266357   6.441   9.257   0.438
22039WAT      O66358   0.985   0.068   3.748
22039WAT     H166359   0.912   0.077   3.680
22039WAT     H266360   1.011  -0.028   3.756
22040WAT      O66361   7.180   6.148   6.839
22040WAT     H166362   7.271   6.140   6.879
22040WAT     H266363   7.187   6.143   6.739
22041WAT      O66364   9.324   7.347   4.277
22041WAT     H166365   9.331   7.252   4.245
22041WAT     H266366   9.279   7.402   4.208
22042WAT      O66367   9.651   7.466   2.949
22042WAT     H166368   9.668   7.559   2.981
22042WAT     H266369   9.553   7.446   2.951
22043WAT      O66370   1.434   4.829   4.382
22043WAT     H166371   1.423   4.831   4.482
22043WAT     H266372   1.485   4.746   4.356
22044WAT      O66373   2.658   7.618   5.083
22044WAT     H166374   2.567   7.639   5.046
22044WAT     H266375   2.725   7.624   5.010
22045WAT      O66376   8.142   6.571   9.275
22045WAT     H166377   8.232   6.553   9.236
22045WAT     H266378   8.125   6.506   9.349
22046WAT      O66379   2.425   6.772   6.048
22046WAT     H166380   2.455   6.689   6.095
22046WAT     H266381   2.505   6.819   6.009
22047WAT      O66382   2.493   5.698   2.746
22047WAT     H166383   2.441   5.712   2.829
22047WAT     H266384   2.539   5.609   2.749
22048WAT      O66385   4.914   1.183   2.061
22048WAT     H166386   4.891   1.276   2.033
22048WAT     H266387   4.920   1.125   1.980
22049WAT      O66388   7.690   2.369   3.941
22049WAT     H166389   7.674   2.299   3.871
22049WAT     H266390   7.682   2.327   4.031
22050WAT      O66391   4.580   8.062   4.929
22050WAT     H166392   4.495   8.099   4.965
22050WAT     H266393   4.561   8.013   4.844
22051WAT      O66394   8.431   8.691   7.783
22051WAT     H166395   8.498   8.660   7.851
22051WAT     H266396   8.389   8.777   7.813
22052WAT      O66397   2.147   4.319   5.314
22052WAT     H166398   2.134   4.261   5.234
22052WAT     H266399   2.164   4.263   5.395
22053WAT      O66400   8.026   3.862   8.373
22053WAT     H166401   7.934   3.850   8.334
22053WAT     H266402   8.028   3.945   8.428
22054WAT      O66403   6.521   3.625   2.288
22054WAT     H166404   6.561   3.662   2.204
22054WAT     H266405   6.573   3.656   2.367
22055WAT      O66406   9.552   7.967   2.113
22055WAT     H166407   9.521   8.054   2.151
22055WAT     H266408   9.500   7.946   2.030
22056WAT      O66409   6.806   7.097   5.126
22056WAT     H166410   6.873   7.165   5.156
22056WAT     H266411   6.837   7.053   5.042
22057WAT      O66412   1.246   0.782   0.906
22057WAT     H166413   1.293   0.858   0.860
22057WAT     H266414   1.218   0.811   0.997
22058WAT      O66415   8.379   5.141   4.093
22058WAT     H166416   8.371   5.155   3.994
22058WAT     H266417   8.297   5.097   4.128
22059WAT      O66418   0.491   6.270   5.545
22059WAT     H166419   0.490   6.173   5.569
22059WAT     H266420   0.481   6.325   5.628
22060WAT      O66421   2.954   7.836   6.795
22060WAT     H166422   3.042   7.841   6.746
22060WAT     H266423   2.879   7.836   6.729
22061WAT      O66424   5.651   0.512   8.120
22061WAT     H166425   5.747   0.494   8.141
22061WAT     H266426   5.593   0.469   8.190
22062WAT      O66427   4.434   4.486   5.243
22062WAT     H166428   4.435   4.426   5.163
22062WAT     H266429   4.494   4.565   5.227
22063WAT      O66430   2.945   3.472   4.900
22063WAT     H166431   2.902   3.425   4.976
22063WAT     H266432   3.007   3.409   4.853
22064WAT      O66433   8.909   3.609   3.983
22064WAT     H166434   9.004   3.638   3.972
22064WAT     H266435   8.898   3.516   3.947
22065WAT      O66436   3.698   3.403   7.139
22065WAT     H166437   3.607   3.429   7.173
22065WAT     H266438   3.690   3.320   7.083
22066WAT      O66439   4.075   9.779   9.576
22066WAT     H166440   4.149   9.712   9.583
22066WAT     H266441   4.038   9.797   9.667
22067WAT      O66442   8.862   1.554   0.381
22067WAT     H166443   8.942   1.509   0.342
22067WAT     H266444   8.843   1.516   0.471
22068WAT      O66445   7.537   6.684   8.000
22068WAT     H166446   7.448   6.670   7.956
22068WAT     H266447   7.574   6.595   8.028
22069WAT      O66448   2.616   4.811   5.973
22069WAT     H166449   2.611   4.721   5.929
22069WAT     H266450   2.524   4.843   5.994
22070WAT      O66451   3.846   0.259   4.252
22070WAT     H166452   3.823   0.354   4.272
22070WAT     H266453   3.831   0.203   4.334
22071WAT      O66454   3.645   3.821   5.849
22071WAT     H166455   3.564   3.839   5.794
22071WAT     H266456   3.720   3.880   5.817
22072WAT      O66457   7.048   6.510   6.022
22072WAT     H166458   7.064   6.442   6.093
22072WAT     H266459   7.133   6.561   6.005
22073WAT      O66460   5.979   9.562   1.346
22073WAT     H166461   5.887   9.539   1.314
22073WAT     H266462   5.973   9.598   1.440
22074WAT      O66463   8.413   6.814   7.334
22074WAT     H166464   8.442   6.881   7.265
22074WAT     H266465   8.488   6.801   7.400
22075WAT      O66466   4.126   2.262   7.344
22075WAT     H166467   4.108   2.313   7.428
22075WAT     H266468   4.216   2.218   7.350
22076WAT      O66469   2.424   4.138   4.189
22076WAT     H166470   2.383   4.099   4.272
22076WAT     H266471   2.458   4.230   4.210
22077WAT      O66472   4.813   1.272   1.145
22077WAT     H166473   4.839   1.284   1.049
22077WAT     H266474   4.892   1.291   1.204
22078WAT      O66475   1.310   7.508   5.726
22078WAT     H166476   1.363   7.516   5.641
22078WAT     H266477   1.350   7.438   5.785
22079WAT      O66478   0.972   7.489   1.528
22079WAT     H166479   0.895   7.476   1.590
22079WAT     H266480   1.027   7.405   1.527
22080WAT      O66481   9.686   3.173   7.967
22080WAT     H166482   9.734   3.100   8.014
22080WAT     H266483   9.750   3.247   7.945
22081WAT      O66484   1.550   1.094   9.178
22081WAT     H166485   1.496   1.109   9.095
22081WAT     H266486   1.489   1.068   9.253
22082WAT      O66487   5.596   0.486   0.750
22082WAT     H166488   5.504   0.506   0.716
22082WAT     H266489   5.635   0.410   0.698
22083WAT      O66490   0.219   4.736   9.138
22083WAT     H166491   0.191   4.752   9.043
22083WAT     H266492   0.263   4.818   9.174
22084WAT      O66493   5.128   2.898   6.624
22084WAT     H166494   5.150   2.981   6.572
22084WAT     H266495   5.159   2.818   6.573
22085WAT      O66496   2.536   5.454   9.233
22085WAT     H166497   2.468   5.405   9.287
22085WAT     H266498   2.503   5.464   9.139
22086WAT      O66499   4.992   6.373   2.278
22086WAT     H166500   5.001   6.449   2.214
22086WAT     H266501   5.078   6.324   2.285
22087WAT      O66502   8.174   3.012   3.871
22087WAT     H166503   8.177   2.927   3.923
22087WAT     H266504   8.189   2.992   3.774
22088WAT      O66505   0.022   4.927   4.152
22088WAT     H166506   0.087   4.869   4.104
22088WAT     H266507   0.064   5.016   4.171
22089WAT      O66508   4.492   7.506   6.987
22089WAT     H166509   4.424   7.442   6.953
22089WAT     H266510   4.463   7.600   6.966
22090WAT      O66511   9.260   4.744   8.313
22090WAT     H166512   9.241   4.655   8.272
22090WAT     H266513   9.322   4.796   8.254
22091WAT      O66514   8.448   0.852   8.753
22091WAT     H166515   8.506   0.922   8.795
22091WAT     H266516   8.479   0.762   8.781
22092WAT      O66517   0.243   1.622   0.252
22092WAT     H166518   0.278   1.682   0.324
22092WAT     H266519   0.146   1.605   0.267
22093WAT      O66520   8.183   4.527   4.750
22093WAT     H166521   8.228   4.591   4.812
22093WAT     H266522   8.209   4.433   4.775
22094WAT      O66523   6.569   0.378   8.800
22094WAT     H166524   6.566   0.306   8.731
22094WAT     H266525   6.662   0.414   8.807
22095WAT      O66526   4.679   5.462   3.811
22095WAT     H166527   4.591   5.467   3.857
22095WAT     H266528   4.681   5.381   3.752
22096WAT      O66529   2.557   4.014   6.850
22096WAT     H166530   2.656   4.021   6.855
22096WAT     H266531   2.524   4.055   6.765
22097WAT      O66532   2.809   2.867   7.338
22097WAT     H166533   2.765   2.937   7.282
22097WAT     H266534   2.882   2.823   7.285
22098WAT      O66535   8.810   1.254   4.842
22098WAT     H166536   8.733   1.197   4.873
22098WAT     H266537   8.888   1.195   4.820
22099WAT      O66538   3.847   0.614   8.506
22099WAT     H166539   3.890   0.615   8.597
22099WAT     H266540   3.895   0.549   8.447
22100WAT      O66541   9.598   7.633   1.411
22100WAT     H166542   9.662   7.622   1.335
22100WAT     H266543   9.625   7.573   1.486
22101WAT      O66544   9.362   6.391   7.536
22101WAT     H166545   9.415   6.415   7.454
22101WAT     H266546   9.425   6.375   7.612
22102WAT      O66547   5.887   7.472   7.332
22102WAT     H166548   5.840   7.388   7.359
22102WAT     H266549   5.832   7.551   7.359
22103WAT      O66550   5.681   0.885   0.472
22103WAT     H166551   5.661   0.895   0.374
22103WAT     H266552   5.780   0.875   0.485
22104WAT      O66553   4.665   2.266   8.257
22104WAT     H166554   4.569   2.277   8.281
22104WAT     H266555   4.716   2.233   8.337
22105WAT      O66556   9.183   6.604   1.191
22105WAT     H166557   9.230   6.659   1.260
22105WAT     H266558   9.179   6.509   1.222
22106WAT      O66559   0.276   0.641   0.052
22106WAT     H166560   0.253   0.736   0.072
22106WAT     H266561   0.195   0.594   0.016
22107WAT      O66562   1.378   0.222   1.706
22107WAT     H166563   1.404   0.319   1.708
22107WAT     H266564   1.458   0.165   1.722
22108WAT      O66565   2.210   1.406   5.329
22108WAT     H166566   2.243   1.382   5.238
22108WAT     H266567   2.142   1.338   5.359
22109WAT      O66568   4.683   9.515   6.431
22109WAT     H166569   4.779   9.491   6.439
22109WAT     H266570   4.630   9.461   6.497
22110WAT      O66571   2.460   4.661   3.116
22110WAT     H166572   2.433   4.681   3.210
22110WAT     H266573   2.496   4.568   3.111
22111WAT      O66574   8.198   4.421   2.845
22111WAT     H166575   8.257   4.501   2.835
22111WAT     H266576   8.111   4.437   2.798
22112WAT      O66577   6.182   7.447   0.696
22112WAT     H166578   6.280   7.444   0.712
22112WAT     H266579   6.164   7.462   0.599
22113WAT      O66580   0.274   4.481   6.932
22113WAT     H166581   0.287   4.570   6.976
22113WAT     H266582   0.216   4.424   6.989
22114WAT      O66583   6.632   9.468   4.720
22114WAT     H166584   6.665   9.552   4.763
22114WAT     H266585   6.678   9.455   4.632
22115WAT      O66586   0.561   3.585   2.151
22115WAT     H166587   0.507   3.629   2.079
22115WAT     H266588   0.621   3.653   2.194
22116WAT      O66589   0.597   3.188   2.056
22116WAT     H166590   0.608   3.252   1.981
22116WAT     H266591   0.522   3.218   2.115
22117WAT      O66592   9.838   3.992   9.716
22117WAT     H166593   9.788   4.078   9.703
22117WAT     H266594   9.788   3.935   9.781
22118WAT      O66595   8.471   4.519   9.854
22118WAT     H166596   8.507   4.457   9.924
22118WAT     H266597   8.415   4.590   9.897
22119WAT      O66598   2.417   3.790   9.161
22119WAT     H166599   2.364   3.852   9.103
22119WAT     H266600   2.382   3.697   9.151
22120WAT      O66601   1.767   4.039   7.182
22120WAT     H166602   1.800   3.993   7.264
22120WAT     H266603   1.817   4.005   7.102
22121WAT      O66604   9.858   2.185   1.276
22121WAT     H166605   9.792   2.143   1.214
22121WAT     H266606   9.830   2.279   1.295
22122WAT      O66607   4.166   8.839   6.378
22122WAT     H166608   4.218   8.796   6.304
22122WAT     H266609   4.098   8.901   6.339
22123WAT      O66610   7.984   1.385   3.826
22123WAT     H166611   7.971   1.377   3.925
22123WAT     H266612   8.002   1.295   3.787
22124WAT      O66613   7.485   1.580   8.889
22124WAT     H166614   7.581   1.610   8.885
22124WAT     H266615   7.473   1.515   8.964
22125WAT      O66616   9.615   3.408   9.026
22125WAT     H166617   9.594   3.312   9.046
22125WAT     H266618   9.556   3.467   9.080
22126WAT      O66619   6.157   4.897   8.423
22126WAT     H166620   6.103   4.970   8.464
22126WAT     H266621   6.192   4.836   8.494
22127WAT      O66622   0.084   4.624   3.648
22127WAT     H166623   0.083   4.639   3.549
22127WAT     H266624   0.042   4.702   3.694
22128WAT      O66625   5.951   3.442   6.859
22128WAT     H166626   5.879   3.427   6.792
22128WAT     H266627   6.039   3.414   6.820
22129WAT      O66628   2.577   6.490   8.422
22129WAT     H166629   2.548   6.579   8.456
22129WAT     H266630   2.518   6.461   8.347
22130WAT      O66631   5.620   5.372   1.826
22130WAT     H166632   5.660   5.324   1.748
22130WAT     H266633   5.535   5.417   1.798
22131WAT      O66634   5.873   3.437   7.336
22131WAT     H166635   5.964   3.399   7.351
22131WAT     H266636   5.868   3.479   7.246
22132WAT      O66637   7.493   9.555   8.169
22132WAT     H166638   7.468   9.462   8.198
22132WAT     H266639   7.419   9.594   8.115
22133WAT      O66640   4.474   6.496   6.427
22133WAT     H166641   4.502   6.592   6.428
22133WAT     H266642   4.554   6.437   6.424
22134WAT      O66643   6.908   3.039   6.511
22134WAT     H166644   6.909   3.053   6.610
22134WAT     H266645   6.954   2.953   6.490
22135WAT      O66646   2.058   3.650   5.888
22135WAT     H166647   2.008   3.667   5.973
22135WAT     H266648   2.085   3.554   5.884
22136WAT      O66649   1.349   0.695   6.586
22136WAT     H166650   1.360   0.596   6.593
22136WAT     H266651   1.438   0.736   6.565
22137WAT      O66652   9.023   2.337   6.810
22137WAT     H166653   8.989   2.311   6.900
22137WAT     H266654   9.100   2.400   6.821
22138WAT      O66655   3.657   2.166   7.338
22138WAT     H166656   3.658   2.205   7.246
22138WAT     H266657   3.565   2.172   7.376
22139WAT      O66658   7.849   5.134   3.757
22139WAT     H166659   7.936   5.120   3.805
22139WAT     H266660   7.840   5.066   3.684
22140WAT      O66661   1.356   3.886   5.707
22140WAT     H166662   1.334   3.888   5.804
22140WAT     H266663   1.368   3.792   5.677
22141WAT      O66664   5.574   1.853   1.272
22141WAT     H166665   5.591   1.873   1.368
22141WAT     H266666   5.538   1.935   1.227
22142WAT      O66667   4.473   9.090   5.856
22142WAT     H166668   4.564   9.070   5.894
22142WAT     H266669   4.403   9.059   5.920
22143WAT      O66670   3.642   4.228   5.184
22143WAT     H166671   3.666   4.249   5.089
22143WAT     H266672   3.649   4.130   5.200
22144WAT      O66673   9.317   9.472   3.712
22144WAT     H166674   9.223   9.507   3.709
22144WAT     H266675   9.372   9.518   3.642
22145WAT      O66676   7.298   9.217   5.276
22145WAT     H166677   7.268   9.206   5.182
22145WAT     H266678   7.359   9.141   5.301
22146WAT      O66679   2.081   2.910   4.654
22146WAT     H166680   2.174   2.936   4.681
22146WAT     H266681   2.084   2.834   4.589
22147WAT      O66682   1.329   6.389   2.340
22147WAT     H166683   1.245   6.338   2.354
22147WAT     H266684   1.374   6.405   2.428
22148WAT      O66685   0.465   2.797   3.038
22148WAT     H166686   0.373   2.798   2.997
22148WAT     H266687   0.524   2.735   2.986
22149WAT      O66688   2.179   8.924   0.536
22149WAT     H166689   2.173   8.842   0.593
22149WAT     H266690   2.263   8.974   0.558
22150WAT      O66691   8.868   2.783   9.769
22150WAT     H166692   8.770   2.788   9.754
22150WAT     H266693   8.908   2.875   9.759
22151WAT      O66694   5.112   0.186   8.084
22151WAT     H166695   5.109   0.118   8.157
22151WAT     H266696   5.205   0.220   8.072
22152WAT      O66697   9.146   0.800   1.250
22152WAT     H166698   9.128   0.788   1.152
22152WAT     H266699   9.240   0.834   1.262
22153WAT      O66700   1.871   1.737   5.540
22153WAT     H166701   1.932   1.693   5.475
22153WAT     H266702   1.783   1.756   5.495
22154WAT      O66703   0.905   4.155   4.056
22154WAT     H166704   0.867   4.069   4.090
22154WAT     H266705   0.990   4.136   4.006
22155WAT      O66706   9.299   9.202   3.779
22155WAT     H166707   9.295   9.302   3.772
22155WAT     H266708   9.258   9.162   3.696
22156WAT      O66709   5.657   1.658   7.567
22156WAT     H166710   5.574   1.602   7.566
22156WAT     H266711   5.652   1.726   7.494
22157WAT      O66712   5.426   3.216   9.129
22157WAT     H166713   5.408   3.186   9.036
22157WAT     H266714   5.355   3.282   9.157
22158WAT      O66715   6.603   8.185   0.401
22158WAT     H166716   6.695   8.186   0.441
22158WAT     H266717   6.587   8.271   0.352
22159WAT      O66718   1.620   4.736   3.300
22159WAT     H166719   1.626   4.665   3.230
22159WAT     H266720   1.561   4.810   3.269
22160WAT      O66721   1.593   8.673   8.432
22160WAT     H166722   1.562   8.581   8.454
22160WAT     H266723   1.571   8.693   8.336
22161WAT      O66724   5.233   1.229   4.682
22161WAT     H166725   5.237   1.324   4.650
22161WAT     H266726   5.267   1.168   4.610
22162WAT      O66727   1.241   8.906   5.006
22162WAT     H166728   1.146   8.921   4.981
22162WAT     H266729   1.247   8.837   5.079
22163WAT      O66730   3.344   7.674   1.784
22163WAT     H166731   3.268   7.659   1.720
22163WAT     H266732   3.418   7.723   1.738
22164WAT      O66733   2.692   0.249   5.214
22164WAT     H166734   2.643   0.325   5.257
22164WAT     H266735   2.777   0.232   5.264
22165WAT      O66736   8.035   8.570   3.722
22165WAT     H166737   8.095   8.606   3.794
22165WAT     H266738   7.999   8.645   3.667
22166WAT      O66739   0.521   1.736   0.792
22166WAT     H166740   0.555   1.672   0.724
22166WAT     H266741   0.423   1.722   0.805
22167WAT      O66742   3.825   1.130   8.057
22167WAT     H166743   3.787   1.198   8.120
22167WAT     H266744   3.894   1.172   7.999
22168WAT      O66745   3.476   0.386   5.265
22168WAT     H166746   3.576   0.398   5.263
22168WAT     H266747   3.455   0.288   5.262
22169WAT      O66748   1.961   1.517   8.418
22169WAT     H166749   1.919   1.606   8.435
22169WAT     H266750   1.938   1.454   8.492
22170WAT      O66751   2.043   1.649   0.284
22170WAT     H166752   2.024   1.599   0.200
22170WAT     H266753   2.083   1.587   0.351
22171WAT      O66754   1.280   9.681   6.945
22171WAT     H166755   1.256   9.776   6.923
22171WAT     H266756   1.270   9.624   6.863
22172WAT      O66757   6.947   8.999   2.918
22172WAT     H166758   6.970   8.929   2.851
22172WAT     H266759   6.895   8.958   2.993
22173WAT      O66760   2.600   8.945   6.793
22173WAT     H166761   2.564   8.923   6.703
22173WAT     H266762   2.598   8.863   6.851
22174WAT      O66763   3.711   8.492   6.735
22174WAT     H166764   3.639   8.507   6.668
22174WAT     H266765   3.694   8.406   6.783
22175WAT      O66766   0.684   7.574   3.968
22175WAT     H166767   0.684   7.491   3.911
22175WAT     H266768   0.768   7.625   3.950
22176WAT      O66769   6.392   0.694   0.243
22176WAT     H166770   6.411   0.596   0.247
22176WAT     H266771   6.428   0.738   0.325
22177WAT      O66772   3.114   5.698   4.568
22177WAT     H166773   3.204   5.726   4.599
22177WAT     H266774   3.106   5.598   4.573
22178WAT      O66775   4.516   6.105   9.496
22178WAT     H166776   4.614   6.086   9.498
22178WAT     H266777   4.465   6.023   9.523
22179WAT      O66778   9.783   8.038   6.820
22179WAT     H166779   9.829   8.070   6.737
22179WAT     H266780   9.835   8.068   6.901
22180WAT      O66781   4.799   6.189   7.596
22180WAT     H166782   4.881   6.244   7.606
22180WAT     H266783   4.823   6.092   7.600
22181WAT      O66784   7.119   3.307   3.696
22181WAT     H166785   7.068   3.234   3.651
22181WAT     H266786   7.062   3.389   3.701
22182WAT      O66787   6.888   7.470   9.883
22182WAT     H166788   6.870   7.373   9.896
22182WAT     H266789   6.805   7.515   9.849
22183WAT      O66790   3.809   1.945   0.749
22183WAT     H166791   3.850   2.034   0.726
22183WAT     H266792   3.756   1.954   0.833
22184WAT      O66793   5.431   6.107   5.667
22184WAT     H166794   5.374   6.026   5.684
22184WAT     H266795   5.487   6.091   5.586
22185WAT      O66796   1.038   5.508   2.507
22185WAT     H166797   1.102   5.584   2.511
22185WAT     H266798   0.995   5.496   2.596
22186WAT      O66799   5.426   1.716   2.063
22186WAT     H166800   5.482   1.737   1.983
22186WAT     H266801   5.456   1.771   2.141
22187WAT      O66802   0.184   1.175   8.930
22187WAT     H166803   0.216   1.249   8.872
22187WAT     H266804   0.169   1.210   9.023
22188WAT      O66805   8.133   7.285   0.073
22188WAT     H166806   8.114   7.234   0.157
22188WAT     H266807   8.049   7.332   0.043
22189WAT      O66808   1.717   1.940   9.486
22189WAT     H166809   1.732   1.914   9.391
22189WAT     H266810   1.805   1.941   9.534
22190WAT      O66811   1.538   5.767   3.222
22190WAT     H166812   1.616   5.706   3.207
22190WAT     H266813   1.570   5.861   3.227
22191WAT      O66814   6.377   3.298   8.709
22191WAT     H166815   6.295   3.272   8.758
22191WAT     H266816   6.421   3.375   8.756
22192WAT      O66817   3.112   4.966   2.754
22192WAT     H166818   3.051   5.015   2.815
22192WAT     H266819   3.195   5.020   2.739
22193WAT      O66820   2.158   0.019   2.101
22193WAT     H166821   2.151  -0.026   2.011
22193WAT     H266822   2.089   0.091   2.108
22194WAT      O66823   5.258   1.408   6.118
22194WAT     H166824   5.339   1.458   6.087
22194WAT     H266825   5.276   1.310   6.116
22195WAT      O66826   2.325   3.101   5.346
22195WAT     H166827   2.363   3.020   5.391
22195WAT     H266828   2.393   3.174   5.344
22196WAT      O66829   5.934   5.565   1.777
22196WAT     H166830   5.969   5.623   1.703
22196WAT     H266831   5.852   5.608   1.816
22197WAT      O66832   2.670   9.062   2.753
22197WAT     H166833   2.627   8.983   2.797
22197WAT     H266834   2.612   9.143   2.766
22198WAT      O66835   4.976   4.998   1.832
22198WAT     H166836   4.995   5.032   1.924
22198WAT     H266837   4.899   5.049   1.793
22199WAT      O66838   6.436   3.988   5.429
22199WAT     H166839   6.529   3.951   5.423
22199WAT     H266840   6.395   3.989   5.338
22200WAT      O66841   1.660   6.814   4.202
22200WAT     H166842   1.669   6.718   4.229
22200WAT     H266843   1.641   6.819   4.104
22201WAT      O66844   3.138   8.349   2.145
22201WAT     H166845   3.120   8.252   2.127
22201WAT     H266846   3.182   8.359   2.234
22202WAT      O66847   5.109   2.223   3.947
22202WAT     H166848   5.161   2.153   3.899
22202WAT     H266849   5.070   2.184   4.030
22203WAT      O66850   6.778   9.219   3.339
22203WAT     H166851   6.702   9.222   3.274
22203WAT     H266852   6.840   9.296   3.321
22204WAT      O66853   9.499   8.751   1.964
22204WAT     H166854   9.456   8.841   1.965
22204WAT     H266855   9.582   8.754   1.908
22205WAT      O66856   6.988   8.618   9.634
22205WAT     H166857   6.998   8.530   9.588
22205WAT     H266858   6.968   8.689   9.567
22206WAT      O66859   9.552   4.534   7.495
22206WAT     H166860   9.589   4.476   7.423
22206WAT     H266861   9.617   4.607   7.516
22207WAT      O66862   2.527   0.114   4.173
22207WAT     H166863   2.612   0.123   4.225
22207WAT     H266864   2.453   0.163   4.220
22208WAT      O66865   9.727   4.957   3.522
22208WAT     H166866   9.642   4.905   3.507
22208WAT     H266867   9.711   5.053   3.498
22209WAT      O66868   7.035   8.871   0.348
22209WAT     H166869   6.989   8.907   0.429
22209WAT     H266870   7.041   8.942   0.278
22210WAT      O66871   7.767   7.576   5.546
22210WAT     H166872   7.712   7.496   5.570
22210WAT     H266873   7.828   7.553   5.470
22211WAT      O66874   6.240   8.344   2.138
22211WAT     H166875   6.210   8.282   2.210
22211WAT     H266876   6.334   8.324   2.112
22212WAT      O66877   6.764   7.271   7.990
22212WAT     H166878   6.676   7.318   7.987
22212WAT     H266879   6.753   7.184   8.039
22213WAT      O66880   3.905   5.377   6.406
22213WAT     H166881   3.970   5.309   6.438
22213WAT     H266882   3.920   5.395   6.308
22214WAT      O66883   9.106   3.912   2.547
22214WAT     H166884   9.177   3.907   2.617
22214WAT     H266885   9.066   3.821   2.534
22215WAT      O66886   3.785   0.044   5.786
22215WAT     H166887   3.731  -0.014   5.846
22215WAT     H266888   3.823   0.121   5.837
22216WAT      O66889   0.401   6.993   2.378
22216WAT     H166890   0.468   6.921   2.363
22216WAT     H266891   0.331   6.960   2.442
22217WAT      O66892   0.381   5.998   8.124
22217WAT     H166893   0.457   5.999   8.189
22217WAT     H266894   0.312   6.064   8.153
22218WAT      O66895   3.371   7.507   6.942
22218WAT     H166896   3.300   7.551   6.997
22218WAT     H266897   3.368   7.408   6.956
22219WAT      O66898   9.412   1.555   2.549
22219WAT     H166899   9.343   1.598   2.607
22219WAT     H266900   9.472   1.625   2.510
22220WAT      O66901   7.538   4.038   3.053
22220WAT     H166902   7.575   4.126   3.023
22220WAT     H266903   7.444   4.028   3.019
22221WAT      O66904   1.896   5.785   1.532
22221WAT     H166905   1.867   5.858   1.595
22221WAT     H266906   1.900   5.822   1.439
22222WAT      O66907   1.390   8.353   5.580
22222WAT     H166908   1.418   8.361   5.675
22222WAT     H266909   1.424   8.267   5.541
22223WAT      O66910   5.786   5.202   6.233
22223WAT     H166911   5.761   5.122   6.288
22223WAT     H266912   5.806   5.173   6.139
22224WAT      O66913   4.511   0.174   9.804
22224WAT     H166914   4.451   0.253   9.816
22224WAT     H266915   4.586   0.198   9.742
22225WAT      O66916   2.687   3.184   3.517
22225WAT     H166917   2.619   3.122   3.557
22225WAT     H266918   2.641   3.253   3.462
22226WAT      O66919   4.971   4.171   0.723
22226WAT     H166920   5.011   4.150   0.634
22226WAT     H266921   4.963   4.087   0.777
22227WAT      O66922   1.595   1.991   3.929
22227WAT     H166923   1.597   1.893   3.911
22227WAT     H266924   1.640   2.010   4.016
22228WAT      O66925   7.531   4.803   9.400
22228WAT     H166926   7.466   4.879   9.391
22228WAT     H266927   7.487   4.718   9.372
22229WAT      O66928   2.672   1.436   5.575
22229WAT     H166929   2.718   1.419   5.662
22229WAT     H266930   2.575   1.454   5.591
22230WAT      O66931   7.971   5.607   2.451
22230WAT     H166932   7.929   5.556   2.526
22230WAT     H266933   8.065   5.633   2.476
22231WAT      O66934   5.157   8.674   2.604
22231WAT     H166935   5.065   8.702   2.630
22231WAT     H266936   5.171   8.578   2.625
22232WAT      O66937   7.653   6.720   0.163
22232WAT     H166938   7.596   6.698   0.243
22232WAT     H266939   7.631   6.656   0.089
22233WAT      O66940   0.435   8.952   8.093
22233WAT     H166941   0.432   8.860   8.130
22233WAT     H266942   0.529   8.977   8.072
22234WAT      O66943   5.183   5.236   3.550
22234WAT     H166944   5.175   5.263   3.454
22234WAT     H266945   5.277   5.210   3.570
22235WAT      O66946   6.193   5.980   4.798
22235WAT     H166947   6.103   5.944   4.823
22235WAT     H266948   6.262   5.908   4.809
22236WAT      O66949   3.430   4.943   2.041
22236WAT     H166950   3.467   4.970   2.130
22236WAT     H266951   3.330   4.950   2.043
22237WAT      O66952   8.357   5.393   5.271
22237WAT     H166953   8.297   5.372   5.348
22237WAT     H266954   8.422   5.319   5.258
22238WAT      O66955   2.732   1.822   4.611
22238WAT     H166956   2.796   1.775   4.550
22238WAT     H266957   2.664   1.870   4.556
22239WAT      O66958   7.799   1.322   3.268
22239WAT     H166959   7.728   1.282   3.326
22239WAT     H266960   7.851   1.249   3.223
22240WAT      O66961   5.170   4.347   0.772
22240WAT     H166962   5.140   4.429   0.723
22240WAT     H266963   5.096   4.280   0.772
22241WAT      O66964   7.972   2.568   0.289
22241WAT     H166965   7.947   2.607   0.378
22241WAT     H266966   8.067   2.593   0.268
22242WAT      O66967   5.221   4.366   8.023
22242WAT     H166968   5.128   4.343   7.996
22242WAT     H266969   5.245   4.316   8.107
22243WAT      O66970   2.495   5.976   8.685
22243WAT     H166971   2.506   6.071   8.653
22243WAT     H266972   2.398   5.956   8.699
22244WAT      O66973   2.572   9.548   2.400
22244WAT     H166974   2.501   9.603   2.444
22244WAT     H266975   2.622   9.496   2.469
22245WAT      O66976   5.955   9.575   8.085
22245WAT     H166977   5.882   9.547   8.147
22245WAT     H266978   5.918   9.637   8.016
22246WAT      O66979   4.245   2.394   3.372
22246WAT     H166980   4.238   2.493   3.356
22246WAT     H266981   4.337   2.363   3.347
22247WAT      O66982   5.352   2.185   6.318
22247WAT     H166983   5.422   2.254   6.301
22247WAT     H266984   5.374   2.135   6.401
22248WAT      O66985   4.342   3.536   3.333
22248WAT     H166986   4.246   3.522   3.357
22248WAT     H266987   4.376   3.457   3.283
22249WAT      O66988   8.438   9.141   6.490
22249WAT     H166989   8.485   9.199   6.556
22249WAT     H266990   8.388   9.198   6.425
22250WAT      O66991   7.067   9.763   9.176
22250WAT     H166992   7.069   9.839   9.240
22250WAT     H266993   7.155   9.757   9.129
22251WAT      O66994   1.721   7.797   2.311
22251WAT     H166995   1.716   7.700   2.286
22251WAT     H266996   1.767   7.805   2.400
22252WAT      O66997   0.395   1.503   7.388
22252WAT     H166998   0.325   1.442   7.352
22252WAT     H266999   0.352   1.580   7.436
22253WAT      O67000   4.399   8.299   4.597
22253WAT     H167001   4.334   8.226   4.575
22253WAT     H267002   4.492   8.261   4.597
22254WAT      O67003   8.883   5.986   8.378
22254WAT     H167004   8.958   6.051   8.373
22254WAT     H267005   8.848   5.983   8.472
22255WAT      O67006   0.288   4.990   6.970
22255WAT     H167007   0.225   5.014   6.896
22255WAT     H267008   0.287   5.062   7.039
22256WAT      O67009   1.378   1.244   5.955
22256WAT     H167010   1.345   1.150   5.945
22256WAT     H267011   1.455   1.246   6.019
22257WAT      O67012   5.474   6.958   2.326
22257WAT     H167013   5.396   6.896   2.315
22257WAT     H267014   5.471   7.000   2.417
22258WAT      O67015   7.489   5.877   9.105
22258WAT     H167016   7.389   5.869   9.111
22258WAT     H267017   7.530   5.827   9.181
22259WAT      O67018   7.879   3.335   1.524
22259WAT     H167019   7.909   3.337   1.620
22259WAT     H267020   7.781   3.320   1.520
22260WAT      O67021   3.915   2.046   3.508
22260WAT     H167022   3.882   2.031   3.415
22260WAT     H267023   4.003   2.095   3.505
22261WAT      O67024   3.931   1.582   8.553
22261WAT     H167025   3.879   1.561   8.471
22261WAT     H267026   4.011   1.638   8.529
22262WAT      O67027   2.405   2.397   2.399
22262WAT     H167028   2.312   2.399   2.435
22262WAT     H267029   2.421   2.480   2.345
22263WAT      O67030   6.548   0.943   4.663
22263WAT     H167031   6.609   0.906   4.734
22263WAT     H267032   6.557   0.888   4.580
22264WAT      O67033   5.005   8.017   1.164
22264WAT     H167034   4.959   7.958   1.231
22264WAT     H267035   5.073   7.963   1.114
22265WAT      O67036   1.476   5.253   2.635
22265WAT     H167037   1.383   5.217   2.628
22265WAT     H267038   1.478   5.329   2.700
22266WAT      O67039   7.096   0.331   5.502
22266WAT     H167040   7.151   0.413   5.516
22266WAT     H267041   7.046   0.339   5.416
22267WAT      O67042   5.601   0.271   0.340
22267WAT     H167043   5.645   0.346   0.390
22267WAT     H267044   5.667   0.228   0.279
22268WAT      O67045   6.284   7.494   4.804
22268WAT     H167046   6.282   7.395   4.809
22268WAT     H267047   6.207   7.527   4.749
22269WAT      O67048   5.476   5.402   3.965
22269WAT     H167049   5.531   5.466   4.018
22269WAT     H267050   5.409   5.452   3.911
22270WAT      O67051   2.914   9.109   1.026
22270WAT     H167052   2.959   9.141   0.942
22270WAT     H267053   2.983   9.086   1.094
22271WAT      O67054   5.894   1.169   6.165
22271WAT     H167055   5.960   1.196   6.235
22271WAT     H267056   5.941   1.154   6.078
22272WAT      O67057   5.781   1.047   5.802
22272WAT     H167058   5.782   1.097   5.716
22272WAT     H267059   5.874   1.028   5.832
22273WAT      O67060   6.840   2.828   5.857
22273WAT     H167061   6.776   2.756   5.883
22273WAT     H267062   6.849   2.830   5.757
22274WAT      O67063   7.373   2.330   5.213
22274WAT     H167064   7.367   2.338   5.312
22274WAT     H267065   7.380   2.421   5.172
22275WAT      O67066   9.638   7.216   4.642
22275WAT     H167067   9.705   7.214   4.717
22275WAT     H267068   9.546   7.212   4.679
22276WAT      O67069   5.310   0.809   9.110
22276WAT     H167070   5.239   0.752   9.069
22276WAT     H267071   5.282   0.905   9.106
22277WAT      O67072   3.934   2.236   6.484
22277WAT     H167073   3.948   2.321   6.535
22277WAT     H267074   3.845   2.198   6.507
22278WAT      O67075   1.540   4.123   9.588
22278WAT     H167076   1.510   4.099   9.496
22278WAT     H267077   1.560   4.040   9.640
22279WAT      O67078   8.674   7.787   3.612
22279WAT     H167079   8.676   7.876   3.567
22279WAT     H267080   8.616   7.792   3.693
22280WAT      O67081   2.830   7.007   3.173
22280WAT     H167082   2.805   6.948   3.096
22280WAT     H267083   2.762   7.080   3.182
22281WAT      O67084   9.284   1.593   3.158
22281WAT     H167085   9.224   1.670   3.135
22281WAT     H267086   9.379   1.619   3.141
22282WAT      O67087   0.898   1.987   2.644
22282WAT     H167088   0.942   2.065   2.688
22282WAT     H267089   0.907   1.995   2.544
22283WAT      O67090   4.134   2.209   7.081
22283WAT     H167091   4.196   2.275   7.039
22283WAT     H267092   4.089   2.251   7.160
22284WAT      O67093   7.844   0.851   4.805
22284WAT     H167094   7.788   0.908   4.746
22284WAT     H267095   7.804   0.849   4.897
22285WAT      O67096   9.765   1.349   6.870
22285WAT     H167097   9.756   1.362   6.772
22285WAT     H267098   9.749   1.436   6.917
22286WAT      O67099   3.529   7.059   1.643
22286WAT     H167100   3.533   7.018   1.734
22286WAT     H267101   3.592   7.136   1.638
22287WAT      O67102   9.419   2.431   7.882
22287WAT     H167103   9.469   2.509   7.920
22287WAT     H267104   9.480   2.375   7.826
22288WAT      O67105   1.630   6.381   9.694
22288WAT     H167106   1.672   6.330   9.769
22288WAT     H267107   1.657   6.477   9.700
22289WAT      O67108   4.049   1.341   3.411
22289WAT     H167109   4.040   1.339   3.510
22289WAT     H267110   4.119   1.408   3.385
22290WAT      O67111   9.822   8.320   0.073
22290WAT     H167112   9.847   8.416   0.081
22290WAT     H267113   9.737   8.303   0.122
22291WAT      O67114   9.601   8.783   6.084
22291WAT     H167115   9.584   8.729   6.166
22291WAT     H267116   9.690   8.828   6.091
22292WAT      O67117   6.714   4.681   2.515
22292WAT     H167118   6.810   4.698   2.541
22292WAT     H267119   6.678   4.761   2.468
22293WAT      O67120   0.524   5.871   3.058
22293WAT     H167121   0.543   5.948   3.119
22293WAT     H267122   0.455   5.811   3.099
22294WAT      O67123   6.384   1.673   1.324
22294WAT     H167124   6.318   1.732   1.277
22294WAT     H267125   6.416   1.603   1.260
22295WAT      O67126   1.718   1.629   5.078
22295WAT     H167127   1.759   1.545   5.114
22295WAT     H267128   1.641   1.605   5.017
22296WAT      O67129   9.047   7.102   1.614
22296WAT     H167130   9.086   7.072   1.527
22296WAT     H267131   9.096   7.058   1.689
22297WAT      O67132   6.282   8.618   2.134
22297WAT     H167133   6.232   8.670   2.203
22297WAT     H267134   6.249   8.523   2.134
22298WAT      O67135   3.010   9.599   6.555
22298WAT     H167136   3.067   9.646   6.623
22298WAT     H267137   2.930   9.655   6.535
22299WAT      O67138   6.364   3.609   9.228
22299WAT     H167139   6.341   3.696   9.185
22299WAT     H267140   6.359   3.619   9.328
22300WAT      O67141   5.594   0.170   6.996
22300WAT     H167142   5.639   0.253   6.963
22300WAT     H267143   5.577   0.109   6.919
22301WAT      O67144   3.114   5.378   3.177
22301WAT     H167145   3.101   5.423   3.089
22301WAT     H267146   3.025   5.364   3.221
22302WAT      O67147   9.202   3.768   4.387
22302WAT     H167148   9.295   3.790   4.413
22302WAT     H267149   9.203   3.711   4.305
22303WAT      O67150   7.296   1.198   0.730
22303WAT     H167151   7.351   1.115   0.722
22303WAT     H267152   7.260   1.206   0.822
22304WAT      O67153   0.480   6.814   6.493
22304WAT     H167154   0.436   6.839   6.407
22304WAT     H267155   0.525   6.895   6.532
22305WAT      O67156   5.283   7.918   6.084
22305WAT     H167157   5.189   7.953   6.081
22305WAT     H267158   5.322   7.920   5.992
22306WAT      O67159   1.399   7.429   7.123
22306WAT     H167160   1.344   7.480   7.189
22306WAT     H267161   1.431   7.491   7.051
22307WAT      O67162   9.534   5.668   7.325
22307WAT     H167163   9.513   5.581   7.370
22307WAT     H267164   9.535   5.741   7.393
22308WAT      O67165   2.862   6.129   1.651
22308WAT     H167166   2.865   6.081   1.563
22308WAT     H267167   2.768   6.136   1.682
22309WAT      O67168   4.893   3.252   8.061
22309WAT     H167169   4.866   3.155   8.062
22309WAT     H267170   4.848   3.298   7.984
22310WAT      O67171   5.624   3.559   7.064
22310WAT     H167172   5.604   3.479   7.122
22310WAT     H267173   5.653   3.528   6.974
22311WAT      O67174   1.455   4.695   8.270
22311WAT     H167175   1.379   4.733   8.217
22311WAT     H267176   1.435   4.599   8.293
22312WAT      O67177   8.705   7.332   6.356
22312WAT     H167178   8.724   7.236   6.337
22312WAT     H267179   8.607   7.350   6.343
22313WAT      O67180   5.355   1.643   7.576
22313WAT     H167181   5.289   1.677   7.643
22313WAT     H267182   5.336   1.547   7.556
22314WAT      O67183   5.045   9.485   9.163
22314WAT     H167184   5.026   9.563   9.103
22314WAT     H267185   5.054   9.402   9.107
22315WAT      O67186   3.874   9.609   8.505
22315WAT     H167187   3.846   9.582   8.412
22315WAT     H267188   3.922   9.533   8.548
22316WAT      O67189   2.241   5.642   4.460
22316WAT     H167190   2.230   5.736   4.494
22316WAT     H267191   2.309   5.595   4.516
22317WAT      O67192   8.276   3.406   8.956
22317WAT     H167193   8.284   3.306   8.952
22317WAT     H267194   8.305   3.438   9.046
22318WAT      O67195   0.268   9.133   1.948
22318WAT     H167196   0.243   9.230   1.952
22318WAT     H267197   0.279   9.105   1.853
22319WAT      O67198   1.356   4.917   1.817
22319WAT     H167199   1.365   5.007   1.860
22319WAT     H267200   1.446   4.881   1.794
22320WAT      O67201   3.800   2.868   4.563
22320WAT     H167202   3.802   2.792   4.497
22320WAT     H267203   3.719   2.859   4.621
22321WAT      O67204   6.504   7.475   6.311
22321WAT     H167205   6.535   7.502   6.402
22321WAT     H267206   6.584   7.466   6.251
22322WAT      O67207   8.900   9.256   3.400
22322WAT     H167208   8.806   9.232   3.376
22322WAT     H267209   8.918   9.227   3.494
22323WAT      O67210   6.185   3.583   8.163
22323WAT     H167211   6.151   3.525   8.088
22323WAT     H267212   6.273   3.621   8.137
22324WAT      O67213   3.535   0.196   4.436
22324WAT     H167214   3.573   0.178   4.345
22324WAT     H267215   3.493   0.286   4.437
22325WAT      O67216   4.174   6.025   7.788
22325WAT     H167217   4.131   6.106   7.748
22325WAT     H267218   4.106   5.953   7.801
22326WAT      O67219   4.599   3.057   9.835
22326WAT     H167220   4.569   3.152   9.841
22326WAT     H267221   4.698   3.054   9.821
22327WAT      O67222   5.728   3.423   6.320
22327WAT     H167223   5.657   3.354   6.333
22327WAT     H267224   5.739   3.442   6.223
22328WAT      O67225   0.989   2.589   1.084
22328WAT     H167226   0.977   2.575   1.183
22328WAT     H267227   0.901   2.579   1.038
22329WAT      O67228   0.141   4.317   5.220
22329WAT     H167229   0.044   4.328   5.239
22329WAT     H267230   0.181   4.406   5.200
22330WAT      O67231   9.343   6.615   4.176
22330WAT     H167232   9.254   6.571   4.166
22330WAT     H267233   9.378   6.599   4.268
22331WAT      O67234   1.659   6.269   2.524
22331WAT     H167235   1.620   6.361   2.522
22331WAT     H267236   1.750   6.270   2.481
22332WAT      O67237   4.515   7.096   1.861
22332WAT     H167238   4.559   7.179   1.826
22332WAT     H267239   4.452   7.061   1.792
22333WAT      O67240   2.135   7.614   0.897
22333WAT     H167241   2.127   7.626   0.798
22333WAT     H267242   2.232   7.621   0.923
22334WAT      O67243   8.833   6.059   7.951
22334WAT     H167244   8.851   5.962   7.969
22334WAT     H267245   8.804   6.103   8.036
22335WAT      O67246   5.105   4.594   6.137
22335WAT     H167247   5.015   4.637   6.146
22335WAT     H267248   5.120   4.569   6.042
22336WAT      O67249   2.585   6.026   3.084
22336WAT     H167250   2.625   5.979   3.006
22336WAT     H267251   2.530   5.962   3.138
22337WAT      O67252   5.547   3.993   1.786
22337WAT     H167253   5.585   4.056   1.719
22337WAT     H267254   5.544   3.901   1.746
22338WAT      O67255   7.038   0.755   4.594
22338WAT     H167256   6.961   0.711   4.547
22338WAT     H267257   7.007   0.841   4.634
22339WAT      O67258   1.053   8.260   2.141
22339WAT     H167259   1.036   8.268   2.239
22339WAT     H267260   0.972   8.289   2.091
22340WAT      O67261   2.719   5.997   4.732
22340WAT     H167262   2.816   5.978   4.722
22340WAT     H267263   2.691   6.066   4.665
22341WAT      O67264   3.113   3.200   5.011
22341WAT     H167265   3.133   3.190   5.109
22341WAT     H267266   3.120   3.111   4.967
22342WAT      O67267   6.048   4.715   0.072
22342WAT     H167268   6.070   4.649  -0.000
22342WAT     H267269   5.984   4.674   0.136
22343WAT      O67270   3.547   2.685   2.791
22343WAT     H167271   3.533   2.745   2.870
22343WAT     H267272   3.461   2.642   2.767
22344WAT      O67273   4.098   9.403   5.532
22344WAT     H167274   4.144   9.317   5.509
22344WAT     H267275   4.166   9.477   5.533
22345WAT      O67276   2.417   0.043   0.197
22345WAT     H167277   2.478  -0.036   0.200
22345WAT     H267278   2.451   0.114   0.258
22346WAT      O67279   0.210   9.392   0.826
22346WAT     H167280   0.213   9.305   0.876
22346WAT     H267281   0.241   9.377   0.732
22347WAT      O67282   6.131   1.829   0.957
22347WAT     H167283   6.215   1.844   0.906
22347WAT     H267284   6.140   1.868   1.049
22348WAT      O67285   9.668   9.475   8.720
22348WAT     H167286   9.718   9.545   8.669
22348WAT     H267287   9.680   9.386   8.677
22349WAT      O67288   2.933   4.065   5.594
22349WAT     H167289   2.968   3.994   5.655
22349WAT     H267290   2.934   4.154   5.641
22350WAT      O67291   1.895   3.498   7.586
22350WAT     H167292   1.984   3.493   7.540
22350WAT     H267293   1.842   3.416   7.566
22351WAT      O67294   4.645   5.697   0.863
22351WAT     H167295   4.552   5.721   0.893
22351WAT     H267296   4.669   5.750   0.782
22352WAT      O67297   1.512   0.724   9.125
22352WAT     H167298   1.430   0.773   9.152
22352WAT     H267299   1.555   0.683   9.205
22353WAT      O67300   9.329   5.653   3.875
22353WAT     H167301   9.325   5.607   3.786
22353WAT     H267302   9.301   5.748   3.865
22354WAT      O67303   0.807   1.622   7.897
22354WAT     H167304   0.781   1.605   7.992
22354WAT     H267305   0.897   1.583   7.879
22355WAT      O67306   0.044   7.113   1.217
22355WAT     H167307   0.006   7.026   1.251
22355WAT     H267308   0.144   7.111   1.224
22356WAT      O67309   2.272   3.906   9.535
22356WAT     H167310   2.204   3.921   9.607
22356WAT     H267311   2.332   3.831   9.561
22357WAT      O67312   0.450   6.725   9.507
22357WAT     H167313   0.353   6.747   9.503
22357WAT     H267314   0.487   6.720   9.414
22358WAT      O67315   1.442   6.686   3.729
22358WAT     H167316   1.517   6.640   3.776
22358WAT     H267317   1.479   6.740   3.653
22359WAT      O67318   3.423   8.023   7.287
22359WAT     H167319   3.452   7.954   7.221
22359WAT     H267320   3.453   7.996   7.379
22360WAT      O67321   9.440   7.136   2.739
22360WAT     H167322   9.352   7.103   2.704
22360WAT     H267323   9.513   7.101   2.680
22361WAT      O67324   3.156   3.805   0.695
22361WAT     H167325   3.126   3.814   0.599
22361WAT     H267326   3.233   3.742   0.700
22362WAT      O67327   6.562   9.325   0.325
22362WAT     H167328   6.653   9.322   0.282
22362WAT     H267329   6.524   9.417   0.315
22363WAT      O67330   3.422   3.458   8.393
22363WAT     H167331   3.464   3.512   8.466
22363WAT     H267332   3.405   3.517   8.314
22364WAT      O67333   5.020   7.316   9.802
22364WAT     H167334   5.087   7.356   9.865
22364WAT     H267335   5.041   7.345   9.709
22365WAT      O67336   4.346   7.533   5.246
22365WAT     H167337   4.286   7.556   5.169
22365WAT     H267338   4.391   7.616   5.278
22366WAT      O67339   5.005   4.786   1.143
22366WAT     H167340   5.034   4.796   1.238
22366WAT     H267341   4.968   4.694   1.129
22367WAT      O67342   0.884   7.244   1.978
22367WAT     H167343   0.801   7.294   2.005
22367WAT     H267344   0.957   7.262   2.044
22368WAT      O67345   4.450   5.930   1.610
22368WAT     H167346   4.549   5.922   1.620
22368WAT     H267347   4.429   5.969   1.520
22369WAT      O67348   1.009   8.091   6.573
22369WAT     H167349   1.031   8.043   6.657
22369WAT     H267350   0.975   8.183   6.594
22370WAT      O67351   6.191   8.421   0.533
22370WAT     H167352   6.265   8.487   0.545
22370WAT     H267353   6.229   8.331   0.516
22371WAT      O67354   4.423   1.032   7.687
22371WAT     H167355   4.487   1.059   7.759
22371WAT     H267356   4.358   0.965   7.722
22372WAT      O67357   2.756   5.077   2.450
22372WAT     H167358   2.845   5.043   2.481
22372WAT     H267359   2.748   5.063   2.352
22373WAT      O67360   0.442   1.882   9.116
22373WAT     H167361   0.512   1.926   9.059
22373WAT     H267362   0.440   1.927   9.206
22374WAT      O67363   2.722   6.128   3.568
22374WAT     H167364   2.650   6.074   3.613
22374WAT     H267365   2.683   6.215   3.537
22375WAT      O67366   2.198   0.799   9.448
22375WAT     H167367   2.221   0.717   9.394
22375WAT     H267368   2.253   0.876   9.416
22376WAT      O67369   4.769   6.263   4.245
22376WAT     H167370   4.721   6.189   4.292
22376WAT     H267371   4.818   6.320   4.312
22377WAT      O67372   8.644   6.866   5.390
22377WAT     H167373   8.550   6.858   5.356
22377WAT     H267374   8.680   6.956   5.368
22378WAT      O67375   5.033   8.617   4.869
22378WAT     H167376   4.945   8.571   4.872
22378WAT     H267377   5.065   8.623   4.774
22379WAT      O67378   1.067   7.104   1.089
22379WAT     H167379   1.072   7.184   1.149
22379WAT     H267380   1.035   7.025   1.141
22380WAT      O67381   6.903   8.905   4.872
22380WAT     H167382   6.970   8.935   4.939
22380WAT     H267383   6.837   8.843   4.915
22381WAT      O67384   1.903   8.087   9.852
22381WAT     H167385   1.903   7.996   9.810
22381WAT     H267386   1.951   8.084   9.939
22382WAT      O67387   5.043   7.570   5.818
22382WAT     H167388   5.124   7.561   5.876
22382WAT     H267389   5.002   7.480   5.804
22383WAT      O67390   1.278   9.800   8.629
22383WAT     H167391   1.298   9.758   8.717
22383WAT     H267392   1.179   9.801   8.614
22384WAT      O67393   5.206   5.387   0.391
22384WAT     H167394   5.286   5.378   0.450
22384WAT     H267395   5.124   5.359   0.440
22385WAT      O67396   3.756   7.743   0.986
22385WAT     H167397   3.709   7.824   0.951
22385WAT     H267398   3.855   7.754   0.975
22386WAT      O67399   5.299   7.687   9.110
22386WAT     H167400   5.309   7.687   9.011
22386WAT     H267401   5.206   7.658   9.135
22387WAT      O67402   6.774   0.418   0.987
22387WAT     H167403   6.856   0.361   0.979
22387WAT     H267404   6.729   0.424   0.898
22388WAT      O67405   8.436   2.863   4.851
22388WAT     H167406   8.413   2.769   4.823
22388WAT     H267407   8.389   2.928   4.791
22389WAT      O67408   5.677   8.227   7.524
22389WAT     H167409   5.771   8.254   7.546
22389WAT     H267410   5.651   8.148   7.579
22390WAT      O67411   4.787   4.692   4.148
22390WAT     H167412   4.751   4.709   4.240
22390WAT     H267413   4.786   4.593   4.130
22391WAT      O67414   6.705   0.609   2.780
22391WAT     H167415   6.710   0.603   2.879
22391WAT     H267416   6.632   0.549   2.746
22392WAT      O67417   5.602   5.197   3.761
22392WAT     H167418   5.693   5.208   3.801
22392WAT     H267419   5.535   5.184   3.835
22393WAT      O67420   8.819   8.092   8.340
22393WAT     H167421   8.847   8.073   8.435
22393WAT     H267422   8.765   8.175   8.337
22394WAT      O67423   8.150   8.151   7.492
22394WAT     H167424   8.051   8.156   7.502
22394WAT     H267425   8.176   8.060   7.458
22395WAT      O67426   4.417   2.141   1.872
22395WAT     H167427   4.446   2.055   1.831
22395WAT     H267428   4.348   2.184   1.814
22396WAT      O67429   8.179   5.782   0.390
22396WAT     H167430   8.180   5.713   0.318
22396WAT     H267431   8.271   5.819   0.401
22397WAT      O67432   8.785   8.363   7.580
22397WAT     H167433   8.745   8.433   7.521
22397WAT     H267434   8.870   8.397   7.620
22398WAT      O67435   0.728   7.550   5.842
22398WAT     H167436   0.692   7.615   5.909
22398WAT     H267437   0.797   7.594   5.785
22399WAT      O67438   4.839   7.629   1.173
22399WAT     H167439   4.839   7.696   1.247
22399WAT     H267440   4.933   7.601   1.153
22400WAT      O67441   6.277   5.430   5.087
22400WAT     H167442   6.276   5.392   5.179
22400WAT     H267443   6.188   5.414   5.044
22401WAT      O67444   1.935   3.268   2.471
22401WAT     H167445   1.863   3.278   2.540
22401WAT     H267446   1.907   3.312   2.386
22402WAT      O67447   9.266   8.547   6.709
22402WAT     H167448   9.185   8.575   6.657
22402WAT     H267449   9.237   8.511   6.798
22403WAT      O67450   2.073   7.333   4.691
22403WAT     H167451   2.042   7.279   4.769
22403WAT     H267452   2.015   7.413   4.680
22404WAT      O67453   1.195   1.057   3.357
22404WAT     H167454   1.148   1.020   3.437
22404WAT     H267455   1.268   0.995   3.329
22405WAT      O67456   2.778   5.413   8.464
22405WAT     H167457   2.701   5.426   8.526
22405WAT     H267458   2.863   5.405   8.517
22406WAT      O67459   6.466   4.428   5.473
22406WAT     H167460   6.449   4.449   5.377
22406WAT     H267461   6.438   4.506   5.529
22407WAT      O67462   9.449   1.501   1.457
22407WAT     H167463   9.525   1.455   1.411
22407WAT     H267464   9.480   1.589   1.492
22408WAT      O67465   1.852   7.822   2.077
22408WAT     H167466   1.802   7.832   2.163
22408WAT     H267467   1.946   7.794   2.096
22409WAT      O67468   4.706   2.235   0.665
22409WAT     H167469   4.749   2.161   0.613
22409WAT     H267470   4.682   2.309   0.602
22410WAT      O67471   8.278   2.102   9.718
22410WAT     H167472   8.228   2.184   9.687
22410WAT     H267473   8.376   2.118   9.711
22411WAT      O67474   2.682   0.528   4.841
22411WAT     H167475   2.758   0.498   4.898
22411WAT     H267476   2.707   0.610   4.792
22412WAT      O67477   2.474   4.747   9.530
22412WAT     H167478   2.516   4.684   9.465
22412WAT     H267479   2.412   4.695   9.590
22413WAT      O67480   7.901   4.725   9.699
22413WAT     H167481   7.867   4.662   9.630
22413WAT     H267482   7.843   4.719   9.781
22414WAT      O67483   6.597   7.644   0.903
22414WAT     H167484   6.512   7.696   0.908
22414WAT     H267485   6.583   7.562   0.848
22415WAT      O67486   7.135   3.886   5.333
22415WAT     H167487   7.163   3.859   5.425
22415WAT     H267488   7.210   3.873   5.269
22416WAT      O67489   0.821   1.946   7.319
22416WAT     H167490   0.767   1.966   7.400
22416WAT     H267491   0.843   1.848   7.317
22417WAT      O67492   8.304   0.592   8.430
22417WAT     H167493   8.378   0.527   8.412
22417WAT     H267494   8.336   0.685   8.411
22418WAT      O67495   4.016   1.873   0.507
22418WAT     H167496   3.918   1.887   0.493
22418WAT     H267497   4.039   1.892   0.603
22419WAT      O67498   7.874   0.523   8.878
22419WAT     H167499   7.917   0.433   8.868
22419WAT     H267500   7.831   0.549   8.791
22420WAT      O67501   8.909   5.396   6.046
22420WAT     H167502   8.942   5.332   6.115
22420WAT     H267503   8.831   5.357   5.998
22421WAT      O67504   4.303   7.869   8.441
22421WAT     H167505   4.355   7.895   8.359
22421WAT     H267506   4.217   7.826   8.413
22422WAT      O67507   0.513   0.681   1.509
22422WAT     H167508   0.491   0.772   1.473
22422WAT     H267509   0.436   0.645   1.562
22423WAT      O67510   2.132   8.611   1.606
22423WAT     H167511   2.051   8.553   1.593
22423WAT     H267512   2.214   8.555   1.601
22424WAT      O67513   2.404   6.278   4.653
22424WAT     H167514   2.479   6.217   4.627
22424WAT     H267515   2.407   6.294   4.752
22425WAT      O67516   2.168   7.436   2.909
22425WAT     H167517   2.184   7.339   2.891
22425WAT     H267518   2.127   7.448   2.999
22426WAT      O67519   1.306   2.376   3.080
22426WAT     H167520   1.246   2.314   3.130
22426WAT     H267521   1.254   2.455   3.048
22427WAT      O67522   7.210   5.834   6.155
22427WAT     H167523   7.156   5.918   6.161
22427WAT     H267524   7.191   5.787   6.069
22428WAT      O67525   1.306   7.578   4.128
22428WAT     H167526   1.377   7.649   4.135
22428WAT     H267527   1.223   7.619   4.090
22429WAT      O67528   2.923   4.477   6.423
22429WAT     H167529   2.892   4.403   6.363
22429WAT     H267530   2.989   4.534   6.374
22430WAT      O67531   1.356   7.525   9.748
22430WAT     H167532   1.436   7.465   9.743
22430WAT     H267533   1.386   7.620   9.736
22431WAT      O67534   7.797   5.816   2.400
22431WAT     H167535   7.764   5.785   2.311
22431WAT     H267536   7.866   5.753   2.434
22432WAT      O67537   2.904   8.057   3.293
22432WAT     H167538   2.883   8.037   3.197
22432WAT     H267539   3.001   8.082   3.301
22433WAT      O67540   4.822   6.121   3.034
22433WAT     H167541   4.837   6.053   2.963
22433WAT     H267542   4.853   6.086   3.123
22434WAT      O67543   9.312   5.471   1.383
22434WAT     H167544   9.406   5.505   1.375
22434WAT     H267545   9.286   5.467   1.479
22435WAT      O67546   7.856   0.133   3.161
22435WAT     H167547   7.882   0.074   3.237
22435WAT     H267548   7.848   0.079   3.078
22436WAT      O67549   6.557   6.885   2.436
22436WAT     H167550   6.570   6.943   2.517
22436WAT     H267551   6.637   6.891   2.377
22437WAT      O67552   3.078   1.062   8.824
22437WAT     H167553   3.075   1.077   8.923
22437WAT     H267554   2.985   1.066   8.787
22438WAT      O67555   4.326   7.256   8.387
22438WAT     H167556   4.424   7.251   8.372
22438WAT     H267557   4.283   7.171   8.356
22439WAT      O67558   6.206   2.988   9.092
22439WAT     H167559   6.200   3.087   9.108
22439WAT     H267560   6.298   2.956   9.114
22440WAT      O67561   5.685   3.650   1.092
22440WAT     H167562   5.625   3.719   1.131
22440WAT     H267563   5.684   3.657   0.992
22441WAT      O67564   7.080   4.344   4.637
22441WAT     H167565   7.049   4.348   4.542
22441WAT     H267566   7.006   4.313   4.696
22442WAT      O67567   2.373   7.700   9.365
22442WAT     H167568   2.289   7.666   9.323
22442WAT     H267569   2.350   7.758   9.443
22443WAT      O67570   2.277   6.716   7.002
22443WAT     H167571   2.199   6.761   7.047
22443WAT     H267572   2.244   6.638   6.949
22444WAT      O67573   5.494   5.683   3.490
22444WAT     H167574   5.442   5.603   3.462
22444WAT     H267575   5.535   5.666   3.580
22445WAT      O67576   6.297   6.927   2.332
22445WAT     H167577   6.384   6.920   2.378
22445WAT     H267578   6.224   6.945   2.399
22446WAT      O67579   8.731   9.277   3.823
22446WAT     H167580   8.828   9.272   3.800
22446WAT     H267581   8.719   9.268   3.922
22447WAT      O67582   4.449   2.001   2.815
22447WAT     H167583   4.522   2.065   2.839
22447WAT     H267584   4.487   1.909   2.807
22448WAT      O67585   1.732   3.671   0.744
22448WAT     H167586   1.711   3.638   0.653
22448WAT     H267587   1.817   3.724   0.741
22449WAT      O67588   8.278   6.201   3.480
22449WAT     H167589   8.222   6.238   3.406
22449WAT     H267590   8.220   6.149   3.543
22450WAT      O67591   7.057   7.153   4.505
22450WAT     H167592   7.148   7.112   4.512
22450WAT     H267593   7.018   7.133   4.415
22451WAT      O67594   9.854   4.820   8.366
22451WAT     H167595   9.932   4.758   8.366
22451WAT     H267596   9.826   4.838   8.271
22452WAT      O67597   1.601   4.861   5.462
22452WAT     H167598   1.539   4.784   5.475
22452WAT     H267599   1.662   4.842   5.385
22453WAT      O67600   6.598   6.370   2.984
22453WAT     H167601   6.531   6.346   2.915
22453WAT     H267602   6.663   6.295   2.995
22454WAT      O67603   5.774   1.797   3.377
22454WAT     H167604   5.706   1.733   3.415
22454WAT     H267605   5.791   1.773   3.281
22455WAT      O67606   7.136   9.691   2.629
22455WAT     H167607   7.056   9.703   2.688
22455WAT     H267608   7.219   9.707   2.682
22456WAT      O67609   9.790   5.213   7.378
22456WAT     H167610   9.741   5.128   7.394
22456WAT     H267611   9.768   5.278   7.451
22457WAT      O67612   7.236   3.166   9.579
22457WAT     H167613   7.190   3.095   9.631
22457WAT     H267614   7.184   3.186   9.496
22458WAT      O67615   5.315   6.945   5.947
22458WAT     H167616   5.395   6.937   5.887
22458WAT     H267617   5.339   7.004   6.025
22459WAT      O67618   4.041   8.077   2.178
22459WAT     H167619   4.031   8.176   2.178
22459WAT     H267620   3.967   8.036   2.124
22460WAT      O67621   4.873   6.701   9.316
22460WAT     H167622   4.939   6.751   9.260
22460WAT     H267623   4.917   6.674   9.402
22461WAT      O67624   4.842   3.540   1.994
22461WAT     H167625   4.817   3.565   2.087
22461WAT     H267626   4.939   3.516   1.990
22462WAT      O67627   2.122   1.540   7.484
22462WAT     H167628   2.152   1.484   7.408
22462WAT     H267629   2.065   1.485   7.546
22463WAT      O67630   4.198   1.453   4.954
22463WAT     H167631   4.221   1.549   4.940
22463WAT     H267632   4.135   1.444   5.032
22464WAT      O67633   1.783   0.482   5.746
22464WAT     H167634   1.853   0.432   5.798
22464WAT     H267635   1.828   0.552   5.690
22465WAT      O67636   0.144   4.202   2.136
22465WAT     H167637   0.215   4.232   2.199
22465WAT     H267638   0.069   4.159   2.187
22466WAT      O67639   1.206   3.959   8.255
22466WAT     H167640   1.211   3.950   8.156
22466WAT     H267641   1.111   3.977   8.282
22467WAT      O67642   8.519   8.893   5.233
22467WAT     H167643   8.423   8.919   5.221
22467WAT     H267644   8.523   8.796   5.257
22468WAT      O67645   9.003   3.160   8.468
22468WAT     H167646   9.027   3.135   8.562
22468WAT     H267647   8.965   3.253   8.467
22469WAT      O67648   5.898   6.407   4.528
22469WAT     H167649   5.911   6.401   4.627
22469WAT     H267650   5.866   6.498   4.503
22470WAT      O67651   2.940   5.730   7.602
22470WAT     H167652   2.999   5.806   7.627
22470WAT     H267653   2.965   5.697   7.510
22471WAT      O67654   4.197   1.404   8.471
22471WAT     H167655   4.275   1.342   8.485
22471WAT     H267656   4.174   1.447   8.558
22472WAT      O67657   4.904   5.310   5.437
22472WAT     H167658   4.965   5.276   5.509
22472WAT     H267659   4.953   5.376   5.381
22473WAT      O67660   7.833   6.436   3.519
22473WAT     H167661   7.795   6.345   3.506
22473WAT     H267662   7.927   6.438   3.483
22474WAT      O67663   8.623   8.396   3.273
22474WAT     H167664   8.721   8.384   3.291
22474WAT     H267665   8.586   8.464   3.335
22475WAT      O67666   5.971   3.543   1.731
22475WAT     H167667   5.880   3.509   1.708
22475WAT     H267668   6.038   3.507   1.665
22476WAT      O67669   8.356   4.690   6.983
22476WAT     H167670   8.363   4.590   6.993
22476WAT     H267671   8.439   4.725   6.940
22477WAT      O67672   9.667   8.884   1.160
22477WAT     H167673   9.692   8.905   1.066
22477WAT     H267674   9.609   8.803   1.163
22478WAT      O67675   1.109   3.169   0.845
22478WAT     H167676   1.124   3.257   0.890
22478WAT     H267677   1.183   3.150   0.781
22479WAT      O67678   2.784   0.238   5.849
22479WAT     H167679   2.714   0.283   5.794
22479WAT     H267680   2.850   0.193   5.789
22480WAT      O67681   2.372   8.481   9.088
22480WAT     H167682   2.352   8.567   9.041
22480WAT     H267683   2.417   8.418   9.025
22481WAT      O67684   4.203   7.495   8.876
22481WAT     H167685   4.226   7.399   8.859
22481WAT     H267686   4.222   7.549   8.794
22482WAT      O67687   8.073   1.970   3.982
22482WAT     H167688   8.071   1.904   3.907
22482WAT     H267689   8.154   1.955   4.038
22483WAT      O67690   1.961   1.456   8.692
22483WAT     H167691   1.979   1.369   8.738
22483WAT     H267692   1.866   1.481   8.704
22484WAT      O67693   9.521   2.366   0.264
22484WAT     H167694   9.492   2.459   0.241
22484WAT     H267695   9.598   2.370   0.328
22485WAT      O67696   5.710   7.862   8.137
22485WAT     H167697   5.645   7.842   8.211
22485WAT     H267698   5.686   7.808   8.056
22486WAT      O67699   8.953   2.578   4.711
22486WAT     H167700   9.008   2.641   4.764
22486WAT     H267701   8.875   2.547   4.765
22487WAT      O67702   5.133   4.821   9.567
22487WAT     H167703   5.215   4.780   9.607
22487WAT     H267704   5.115   4.778   9.478
22488WAT      O67705   7.924   7.258   6.544
22488WAT     H167706   7.842   7.304   6.579
22488WAT     H267707   7.934   7.279   6.447
22489WAT      O67708   5.935   1.338   1.502
22489WAT     H167709   5.891   1.341   1.412
22489WAT     H267710   5.998   1.261   1.506
22490WAT      O67711   6.726   8.132   7.264
22490WAT     H167712   6.786   8.150   7.341
22490WAT     H267713   6.642   8.187   7.274
22491WAT      O67714   1.795   6.379   5.546
22491WAT     H167715   1.791   6.446   5.471
22491WAT     H267716   1.712   6.387   5.602
22492WAT      O67717   3.932   4.215   1.053
22492WAT     H167718   3.958   4.133   1.104
22492WAT     H267719   3.850   4.197   0.999
22493WAT      O67720   2.991   2.526   8.531
22493WAT     H167721   3.090   2.519   8.519
22493WAT     H267722   2.947   2.530   8.441
22494WAT      O67723   3.621   6.609   7.158
22494WAT     H167724   3.638   6.543   7.084
22494WAT     H267725   3.691   6.598   7.229
22495WAT      O67726   7.117   8.679   3.001
22495WAT     H167727   7.215   8.683   3.019
22495WAT     H267728   7.070   8.636   3.078
22496WAT      O67729   4.512   9.505   5.714
22496WAT     H167730   4.453   9.425   5.704
22496WAT     H267731   4.578   9.507   5.638
22497WAT      O67732   6.218   4.514   8.994
22497WAT     H167733   6.120   4.526   8.981
22497WAT     H267734   6.254   4.449   8.927
22498WAT      O67735   8.437   2.187   3.782
22498WAT     H167736   8.486   2.264   3.742
22498WAT     H267737   8.359   2.221   3.835
22499WAT      O67738   6.223   9.079   7.597
22499WAT     H167739   6.239   9.153   7.532
22499WAT     H267740   6.310   9.034   7.617
22500WAT      O67741   5.627   1.924   4.519
22500WAT     H167742   5.557   1.962   4.578
22500WAT     H267743   5.591   1.844   4.471
22501WAT      O67744   1.073   2.391   5.897
22501WAT     H167745   1.044   2.386   5.801
22501WAT     H267746   1.032   2.315   5.948
22502WAT      O67747   0.218   5.314   6.550
22502WAT     H167748   0.297   5.351   6.501
22502WAT     H267749   0.183   5.382   6.614
22503WAT      O67750   3.589   4.957   4.010
22503WAT     H167751   3.578   4.947   4.109
22503WAT     H267752   3.588   4.866   3.968
22504WAT      O67753   5.835   4.892   0.977
22504WAT     H167754   5.915   4.906   1.036
22504WAT     H267755   5.864   4.846   0.893
22505WAT      O67756   7.762   7.159   1.964
22505WAT     H167757   7.861   7.164   1.978
22505WAT     H267758   7.718   7.121   2.045
22506WAT      O67759   3.039   5.039   2.504
22506WAT     H167760   3.045   5.138   2.495
22506WAT     H267761   3.062   5.013   2.598
22507WAT      O67762   6.067   0.911   8.376
22507WAT     H167763   6.167   0.912   8.375
22507WAT     H267764   6.034   0.976   8.444
22508WAT      O67765   8.762   7.939   9.833
22508WAT     H167766   8.715   7.930   9.745
22508WAT     H267767   8.860   7.924   9.820
22509WAT      O67768   4.531   8.766   1.879
22509WAT     H167769   4.559   8.767   1.783
22509WAT     H267770   4.456   8.701   1.891
22510WAT      O67771   5.622   8.720   7.491
22510WAT     H167772   5.581   8.630   7.475
22510WAT     H267773   5.641   8.765   7.403
22511WAT      O67774   3.003   8.459   6.361
22511WAT     H167775   2.904   8.453   6.372
22511WAT     H267776   3.047   8.384   6.410
22512WAT      O67777   2.508   2.876   0.335
22512WAT     H167778   2.580   2.929   0.290
22512WAT     H267779   2.546   2.834   0.418
22513WAT      O67780   4.806   3.247   1.711
22513WAT     H167781   4.763   3.229   1.800
22513WAT     H267782   4.898   3.208   1.709
22514WAT      O67783   5.685   7.573   5.072
22514WAT     H167784   5.711   7.588   4.977
22514WAT     H267785   5.692   7.659   5.122
22515WAT      O67786   4.823   6.715   7.313
22515WAT     H167787   4.826   6.807   7.273
22515WAT     H267788   4.791   6.650   7.244
22516WAT      O67789   1.458   4.927   3.218
22516WAT     H167790   1.379   4.869   3.197
22516WAT     H267791   1.498   4.961   3.133
22517WAT      O67792   6.093   9.316   5.982
22517WAT     H167793   6.162   9.252   6.016
22517WAT     H267794   6.013   9.312   6.041
22518WAT      O67795   5.875   6.574   1.969
22518WAT     H167796   5.840   6.667   1.962
22518WAT     H267797   5.975   6.576   1.967
22519WAT      O67798   6.023   2.388   4.597
22519WAT     H167799   5.926   2.365   4.607
22519WAT     H267800   6.065   2.324   4.532
22520WAT      O67801   6.160   8.006   5.504
22520WAT     H167802   6.257   8.017   5.524
22520WAT     H267803   6.131   8.074   5.437
22521WAT      O67804   0.625   3.223   8.798
22521WAT     H167805   0.680   3.283   8.740
22521WAT     H267806   0.641   3.127   8.773
22522WAT      O67807   5.131   7.701   6.636
22522WAT     H167808   5.136   7.793   6.599
22522WAT     H267809   5.036   7.670   6.637
22523WAT      O67810   1.364   1.870   8.603
22523WAT     H167811   1.336   1.859   8.698
22523WAT     H267812   1.428   1.947   8.596
22524WAT      O67813   0.796   1.455   5.685
22524WAT     H167814   0.884   1.495   5.711
22524WAT     H267815   0.753   1.512   5.615
22525WAT      O67816   8.091   8.382   3.272
22525WAT     H167817   8.183   8.343   3.266
22525WAT     H267818   8.096   8.481   3.264
22526WAT      O67819   8.629   2.225   7.665
22526WAT     H167820   8.680   2.178   7.593
22526WAT     H267821   8.621   2.165   7.745
22527WAT      O67822   3.164   3.859   6.501
22527WAT     H167823   3.204   3.793   6.438
22527WAT     H267824   3.181   3.952   6.467
22528WAT      O67825   4.213   3.747   2.999
22528WAT     H167826   4.123   3.704   3.012
22528WAT     H267827   4.264   3.744   3.085
22529WAT      O67828   8.865   0.644   3.780
22529WAT     H167829   8.767   0.664   3.768
22529WAT     H267830   8.908   0.719   3.830
22530WAT      O67831   6.945   2.314   4.555
22530WAT     H167832   7.008   2.289   4.629
22530WAT     H267833   6.948   2.244   4.483
22531WAT      O67834   2.972   8.849   2.999
22531WAT     H167835   2.905   8.786   2.960
22531WAT     H267836   3.001   8.815   3.089
22532WAT      O67837   0.674   9.831   8.371
22532WAT     H167838   0.631   9.890   8.439
22532WAT     H267839   0.749   9.880   8.327
22533WAT      O67840   6.551   5.402   8.701
22533WAT     H167841   6.507   5.405   8.790
22533WAT     H267842   6.637   5.353   8.708
22534WAT      O67843   7.457   2.788   7.869
22534WAT     H167844   7.472   2.826   7.960
22534WAT     H267845   7.359   2.780   7.851
22535WAT      O67846   5.008   4.877   2.084
22535WAT     H167847   5.039   4.793   2.040
22535WAT     H267848   5.082   4.913   2.143
22536WAT      O67849   1.661   1.890   7.451
22536WAT     H167850   1.684   1.867   7.545
22536WAT     H267851   1.673   1.809   7.393
22537WAT      O67852   1.095   4.980   0.333
22537WAT     H167853   1.178   5.001   0.384
22537WAT     H267854   1.030   4.933   0.394
22538WAT      O67855   3.973   8.901   9.492
22538WAT     H167856   4.000   8.943   9.579
22538WAT     H267857   3.901   8.957   9.450
22539WAT      O67858   1.876   3.867   3.604
22539WAT     H167859   1.847   3.954   3.641
22539WAT     H267860   1.897   3.877   3.507
22540WAT      O67861   8.017   4.942   9.862
22540WAT     H167862   7.964   4.869   9.817
22540WAT     H267863   8.041   5.011   9.795
22541WAT      O67864   0.841   7.900   3.953
22541WAT     H167865   0.850   7.949   4.040
22541WAT     H267866   0.894   7.949   3.882
22542WAT      O67867   1.486   6.319   8.672
22542WAT     H167868   1.397   6.323   8.716
22542WAT     H267869   1.558   6.332   8.741
22543WAT      O67870   5.686   8.404   9.823
22543WAT     H167871   5.662   8.475   9.890
22543WAT     H267872   5.722   8.447   9.740
22544WAT      O67873   0.848   4.443   5.457
22544WAT     H167874   0.894   4.402   5.377
22544WAT     H267875   0.773   4.384   5.486
22545WAT      O67876   7.230   9.777   4.646
22545WAT     H167877   7.278   9.697   4.683
22545WAT     H267878   7.230   9.850   4.714
22546WAT      O67879   7.548   7.525   2.448
22546WAT     H167880   7.499   7.539   2.534
22546WAT     H267881   7.644   7.506   2.466
22547WAT      O67882   2.827   1.307   4.436
22547WAT     H167883   2.840   1.397   4.478
22547WAT     H267884   2.751   1.260   4.481
22548WAT      O67885   4.742   2.331   7.437
22548WAT     H167886   4.752   2.367   7.530
22548WAT     H267887   4.673   2.259   7.436
22549WAT      O67888   2.634   4.993   2.827
22549WAT     H167889   2.673   5.084   2.842
22549WAT     H267890   2.568   4.998   2.752
22550WAT      O67891   7.912   5.991   1.020
22550WAT     H167892   7.968   5.956   1.095
22550WAT     H267893   7.883   6.085   1.041
22551WAT      O67894   1.399   2.382   1.574
22551WAT     H167895   1.370   2.286   1.575
22551WAT     H267896   1.339   2.436   1.633
22552WAT      O67897   7.966   8.917   1.172
22552WAT     H167898   7.997   8.984   1.105
22552WAT     H267899   7.990   8.948   1.264
22553WAT      O67900   5.013   8.723   0.674
22553WAT     H167901   4.977   8.686   0.589
22553WAT     H267902   5.032   8.649   0.739
22554WAT      O67903   3.486   7.188   2.402
22554WAT     H167904   3.501   7.089   2.409
22554WAT     H267905   3.564   7.230   2.356
22555WAT      O67906   3.593   8.671   6.118
22555WAT     H167907   3.639   8.703   6.202
22555WAT     H267908   3.503   8.714   6.112
22556WAT      O67909   1.787   9.248   6.129
22556WAT     H167910   1.755   9.342   6.118
22556WAT     H267911   1.729   9.186   6.076
22557WAT      O67912   7.575   0.153   7.885
22557WAT     H167913   7.497   0.206   7.849
22557WAT     H267914   7.564   0.140   7.983
22558WAT      O67915   8.030   3.151   1.913
22558WAT     H167916   8.000   3.079   1.976
22558WAT     H267917   7.957   3.219   1.904
22559WAT      O67918   7.087   6.375   8.765
22559WAT     H167919   7.017   6.423   8.819
22559WAT     H267920   7.116   6.434   8.690
22560WAT      O67921   7.236   6.874   9.651
22560WAT     H167922   7.156   6.817   9.633
22560WAT     H267923   7.305   6.820   9.699
22561WAT      O67924   0.121   3.271   9.521
22561WAT     H167925   0.216   3.262   9.550
22561WAT     H267926   0.095   3.191   9.466
22562WAT      O67927   5.430   6.786   4.953
22562WAT     H167928   5.496   6.729   4.904
22562WAT     H267929   5.478   6.843   5.019
22563WAT      O67930   7.512   1.363   9.624
22563WAT     H167931   7.510   1.366   9.724
22563WAT     H267932   7.427   1.401   9.588
22564WAT      O67933   1.508   6.520   9.391
22564WAT     H167934   1.433   6.481   9.444
22564WAT     H267935   1.486   6.514   9.293
22565WAT      O67936   3.422   0.984   0.901
22565WAT     H167937   3.342   0.954   0.848
22565WAT     H267938   3.407   1.077   0.934
22566WAT      O67939   2.029   6.052   9.145
22566WAT     H167940   2.024   6.103   9.231
22566WAT     H267941   2.124   6.049   9.114
22567WAT      O67942   5.548   4.875   6.626
22567WAT     H167943   5.609   4.857   6.703
22567WAT     H267944   5.600   4.913   6.550
22568WAT      O67945   8.765   2.475   0.839
22568WAT     H167946   8.804   2.566   0.827
22568WAT     H267947   8.734   2.441   0.750
22569WAT      O67948   5.695   3.952   0.733
22569WAT     H167949   5.683   4.020   0.805
22569WAT     H267950   5.672   3.862   0.769
22570WAT      O67951   2.368   0.500   0.464
22570WAT     H167952   2.280   0.488   0.419
22570WAT     H267953   2.411   0.585   0.431
22571WAT      O67954   2.860   0.136   7.628
22571WAT     H167955   2.883   0.220   7.678
22571WAT     H267956   2.885   0.056   7.683
22572WAT      O67957   6.571   9.800   9.852
22572WAT     H167958   6.542   9.878   9.797
22572WAT     H267959   6.536   9.715   9.811
22573WAT      O67960   0.420   0.326   7.901
22573WAT     H167961   0.428   0.263   7.824
22573WAT     H267962   0.435   0.277   7.986
22574WAT      O67963   7.212   8.336   7.871
22574WAT     H167964   7.198   8.297   7.962
22574WAT     H267965   7.309   8.350   7.855
22575WAT      O67966   4.026   0.571   2.059
22575WAT     H167967   3.960   0.536   2.125
22575WAT     H267968   3.979   0.620   1.986
22576WAT      O67969   7.416   8.214   4.789
22576WAT     H167970   7.503   8.263   4.799
22576WAT     H267971   7.400   8.193   4.693
22577WAT      O67972   2.915   5.928   7.335
22577WAT     H167973   2.916   5.979   7.249
22577WAT     H267974   2.916   5.992   7.411
22578WAT      O67975   9.728   7.298   6.381
22578WAT     H167976   9.824   7.328   6.379
22578WAT     H267977   9.692   7.308   6.474
22579WAT      O67978   5.154   2.433   6.041
22579WAT     H167979   5.151   2.523   5.996
22579WAT     H267980   5.246   2.394   6.031
22580WAT      O67981   0.818   2.877   9.281
22580WAT     H167982   0.849   2.840   9.368
22580WAT     H267983   0.897   2.906   9.227
22581WAT      O67984   1.422   5.147   1.927
22581WAT     H167985   1.492   5.149   1.998
22581WAT     H267986   1.340   5.194   1.959
22582WAT      O67987   0.226   7.485   3.956
22582WAT     H167988   0.139   7.491   3.906
22582WAT     H267989   0.284   7.562   3.929
22583WAT      O67990   4.864   3.745   8.487
22583WAT     H167991   4.864   3.651   8.455
22583WAT     H267992   4.951   3.765   8.532
22584WAT      O67993   6.309   0.562   3.892
22584WAT     H167994   6.349   0.513   3.969
22584WAT     H267995   6.350   0.530   3.807
22585WAT      O67996   1.851   7.058   5.805
22585WAT     H167997   1.853   7.156   5.787
22585WAT     H267998   1.775   7.016   5.755
22586WAT      O67999   5.215   1.946   4.663
22586WAT     H168000   5.174   1.868   4.711
22586WAT     H268001   5.152   2.024   4.667
22587WAT      O68002   6.370   9.518   0.207
22587WAT     H168003   6.277   9.508   0.242
22587WAT     H268004   6.378   9.470   0.120
22588WAT      O68005   7.726   4.141   3.736
22588WAT     H168006   7.639   4.183   3.762
22588WAT     H268007   7.791   4.151   3.812
22589WAT      O68008   1.288   2.290   7.461
22589WAT     H168009   1.305   2.379   7.420
22589WAT     H268010   1.373   2.238   7.465
22590WAT      O68011   0.672   0.576   3.101
22590WAT     H168012   0.706   0.616   3.186
22590WAT     H268013   0.707   0.483   3.091
22591WAT      O68014   8.025   7.424   9.645
22591WAT     H168015   8.115   7.379   9.637
22591WAT     H268016   7.964   7.367   9.699
22592WAT      O68017   5.026   9.436   0.115
22592WAT     H168018   4.945   9.445   0.058
22592WAT     H268019   5.107   9.460   0.062
22593WAT      O68020   4.202   2.899   1.781
22593WAT     H168021   4.151   2.962   1.840
22593WAT     H268022   4.138   2.833   1.742
22594WAT      O68023   3.848   1.926   6.739
22594WAT     H168024   3.888   1.954   6.652
22594WAT     H268025   3.767   1.871   6.722
22595WAT      O68026   0.917   2.760   8.889
22595WAT     H168027   0.954   2.851   8.871
22595WAT     H268028   0.954   2.696   8.821
22596WAT      O68029   0.868   0.869   7.070
22596WAT     H168030   0.904   0.808   7.142
22596WAT     H268031   0.928   0.948   7.061
22597WAT      O68032   0.848   0.950   8.821
22597WAT     H168033   0.812   0.880   8.883
22597WAT     H268034   0.918   0.909   8.763
22598WAT      O68035   6.558   4.862   8.552
22598WAT     H168036   6.571   4.924   8.630
22598WAT     H268037   6.565   4.767   8.584
22599WAT      O68038   2.334   6.036   8.196
22599WAT     H168039   2.391   6.084   8.129
22599WAT     H268040   2.393   5.993   8.265
22600WAT      O68041   7.899   0.914   0.775
22600WAT     H168042   7.846   0.962   0.845
22600WAT     H268043   7.863   0.821   0.764
22601WAT      O68044   5.840   2.344   6.313
22601WAT     H168045   5.824   2.397   6.397
22601WAT     H268046   5.881   2.403   6.244
22602WAT      O68047   5.201   7.471   2.967
22602WAT     H168048   5.232   7.402   2.901
22602WAT     H268049   5.274   7.537   2.983
22603WAT      O68050   5.230   0.695   2.337
22603WAT     H168051   5.171   0.767   2.374
22603WAT     H268052   5.322   0.732   2.321
22604WAT      O68053   2.539   4.009   2.497
22604WAT     H168054   2.459   4.030   2.553
22604WAT     H268055   2.606   3.959   2.552
22605WAT      O68056   9.301   5.503   3.636
22605WAT     H168057   9.371   5.494   3.565
22605WAT     H268058   9.242   5.422   3.634
22606WAT      O68059   8.247   8.806   5.085
22606WAT     H168060   8.191   8.833   5.162
22606WAT     H268061   8.249   8.879   5.017
22607WAT      O68062   1.533   4.484   3.703
22607WAT     H168063   1.482   4.552   3.755
22607WAT     H268064   1.498   4.480   3.610
22608WAT      O68065   6.002   3.764   5.907
22608WAT     H168066   5.924   3.812   5.867
22608WAT     H268067   6.078   3.828   5.917
22609WAT      O68068   9.154   5.752   4.562
22609WAT     H168069   9.123   5.831   4.613
22609WAT     H268070   9.226   5.779   4.498
22610WAT      O68071   0.592   9.679   6.492
22610WAT     H168072   0.679   9.708   6.533
22610WAT     H268073   0.586   9.713   6.398
22611WAT      O68074   3.770   7.401   5.068
22611WAT     H168075   3.757   7.302   5.062
22611WAT     H268076   3.862   7.421   5.105
22612WAT      O68077   5.991   4.408   6.458
22612WAT     H168078   6.023   4.357   6.538
22612WAT     H268079   5.912   4.464   6.484
22613WAT      O68080   1.145   6.749   1.410
22613WAT     H168081   1.097   6.793   1.485
22613WAT     H268082   1.161   6.653   1.432
22614WAT      O68083   9.170   6.464   9.071
22614WAT     H168084   9.210   6.530   9.008
22614WAT     H268085   9.185   6.371   9.036
22615WAT      O68086   2.064   1.211   5.438
22615WAT     H168087   2.122   1.156   5.499
22615WAT     H268088   1.975   1.166   5.428
22616WAT      O68089   1.700   1.524   8.660
22616WAT     H168090   1.640   1.453   8.697
22616WAT     H268091   1.645   1.597   8.619
22617WAT      O68092   3.674   3.504   7.796
22617WAT     H168093   3.646   3.508   7.892
22617WAT     H268094   3.765   3.462   7.789
22618WAT      O68095   9.578   7.077   6.298
22618WAT     H168096   9.617   7.164   6.329
22618WAT     H268097   9.651   7.020   6.260
22619WAT      O68098   4.580   2.175   3.427
22619WAT     H168099   4.658   2.205   3.482
22619WAT     H268100   4.554   2.248   3.364
22620WAT      O68101   7.015   9.011   3.660
22620WAT     H168102   6.978   8.963   3.739
22620WAT     H268103   7.041   9.104   3.685
22621WAT      O68104   1.987   5.358   7.155
22621WAT     H168105   2.037   5.328   7.236
22621WAT     H268106   2.035   5.327   7.073
22622WAT      O68107   5.268   7.094   5.077
22622WAT     H168108   5.241   7.081   5.172
22622WAT     H268109   5.247   7.012   5.025
22623WAT      O68110   2.750   6.205   4.009
22623WAT     H168111   2.687   6.175   4.080
22623WAT     H268112   2.771   6.128   3.949
22624WAT      O68113   8.946   6.430   5.498
22624WAT     H168114   8.895   6.515   5.484
22624WAT     H268115   8.882   6.354   5.509
22625WAT      O68116   7.218   0.705   9.724
22625WAT     H168117   7.155   0.627   9.725
22625WAT     H268118   7.311   0.672   9.706
22626WAT      O68119   0.608   7.126   9.121
22626WAT     H168120   0.678   7.195   9.103
22626WAT     H268121   0.603   7.063   9.044
22627WAT      O68122   4.027   7.364   1.803
22627WAT     H168123   4.091   7.409   1.866
22627WAT     H268124   4.079   7.323   1.728
22628WAT      O68125   0.887   8.052   7.814
22628WAT     H168126   0.925   7.959   7.819
22628WAT     H268127   0.812   8.060   7.880
22629WAT      O68128   4.115   1.746   5.690
22629WAT     H168129   4.197   1.750   5.746
22629WAT     H268130   4.037   1.721   5.747
22630WAT      O68131   2.097   0.364   2.833
22630WAT     H168132   2.053   0.328   2.751
22630WAT     H268133   2.030   0.366   2.908
22631WAT      O68134   8.780   1.014   9.271
22631WAT     H168135   8.684   1.011   9.296
22631WAT     H268136   8.835   0.973   9.345
22632WAT      O68137   5.283   5.287   2.513
22632WAT     H168138   5.236   5.341   2.443
22632WAT     H268139   5.233   5.203   2.530
22633WAT      O68140   3.065   6.750   5.710
22633WAT     H168141   3.158   6.788   5.704
22633WAT     H268142   3.002   6.809   5.659
22634WAT      O68143   5.958   7.116   1.394
22634WAT     H168144   5.987   7.140   1.301
22634WAT     H268145   6.038   7.101   1.452
22635WAT      O68146   1.499   4.730   1.041
22635WAT     H168147   1.598   4.742   1.039
22635WAT     H268148   1.456   4.818   1.064
22636WAT      O68149   0.157   1.818   6.040
22636WAT     H168150   0.175   1.892   6.105
22636WAT     H268151   0.223   1.821   5.965
22637WAT      O68152   4.887   2.084   8.468
22637WAT     H168153   4.794   2.049   8.477
22637WAT     H268154   4.915   2.127   8.554
22638WAT      O68155   6.057   6.292   6.063
22638WAT     H168156   5.986   6.302   6.132
22638WAT     H268157   6.016   6.298   5.972
22639WAT      O68158   5.952   0.878   5.033
22639WAT     H168159   6.006   0.806   5.076
22639WAT     H268160   5.986   0.895   4.941
22640WAT      O68161   8.968   7.031   8.819
22640WAT     H168162   8.915   7.115   8.812
22640WAT     H268163   8.921   6.958   8.770
22641WAT      O68164   7.200   3.135   5.442
22641WAT     H168165   7.254   3.057   5.411
22641WAT     H268166   7.119   3.145   5.384
22642WAT      O68167   1.980   1.009   6.148
22642WAT     H168168   2.019   0.995   6.056
22642WAT     H268169   1.915   1.084   6.145
22643WAT      O68170   4.191   1.377   7.650
22643WAT     H168171   4.273   1.331   7.617
22643WAT     H268172   4.217   1.455   7.708
22644WAT      O68173   6.455   0.682   5.434
22644WAT     H168174   6.479   0.722   5.522
22644WAT     H268175   6.383   0.737   5.391
22645WAT      O68176   6.569   0.244   7.241
22645WAT     H168177   6.575   0.327   7.187
22645WAT     H268178   6.572   0.164   7.181
22646WAT      O68179   7.602   3.511   6.169
22646WAT     H168180   7.522   3.475   6.122
22646WAT     H268181   7.679   3.448   6.159
22647WAT      O68182   4.260   7.542   0.100
22647WAT     H168183   4.298   7.633   0.122
22647WAT     H268184   4.198   7.550   0.023
22648WAT      O68185   0.749   4.710   5.486
22648WAT     H168186   0.803   4.755   5.414
22648WAT     H268187   0.752   4.611   5.473
22649WAT      O68188   5.959   7.674   9.449
22649WAT     H168189   6.039   7.618   9.469
22649WAT     H268190   5.953   7.689   9.350
22650WAT      O68191   5.280   2.097   5.552
22650WAT     H168192   5.190   2.054   5.546
22650WAT     H268193   5.277   2.170   5.620
22651WAT      O68194   3.449   5.662   4.426
22651WAT     H168195   3.365   5.676   4.373
22651WAT     H268196   3.467   5.564   4.433
22652WAT      O68197   5.351   9.730   0.447
22652WAT     H168198   5.370   9.636   0.421
22652WAT     H268199   5.390   9.792   0.378
22653WAT      O68200   6.331   2.895   3.514
22653WAT     H168201   6.310   2.956   3.590
22653WAT     H268202   6.368   2.809   3.549
22654WAT      O68203   1.737   0.502   6.915
22654WAT     H168204   1.677   0.546   6.982
22654WAT     H268205   1.683   0.461   6.842
22655WAT      O68206   0.861   5.754   6.720
22655WAT     H168207   0.936   5.769   6.785
22655WAT     H268208   0.774   5.775   6.765
22656WAT      O68209   4.307   2.707   7.023
22656WAT     H168210   4.321   2.608   7.024
22656WAT     H268211   4.279   2.736   6.931
22657WAT      O68212   7.085   4.804   6.322
22657WAT     H168213   7.051   4.723   6.274
22657WAT     H268214   7.184   4.812   6.307
22658WAT      O68215   9.145   8.785   5.705
22658WAT     H168216   9.239   8.751   5.708
22658WAT     H268217   9.138   8.855   5.634
22659WAT      O68218   9.149   3.533   9.574
22659WAT     H168219   9.161   3.548   9.672
22659WAT     H268220   9.202   3.599   9.523
22660WAT      O68221   3.681   1.582   3.485
22660WAT     H168222   3.752   1.651   3.476
22660WAT     H268223   3.593   1.622   3.459
22661WAT      O68224   0.119   7.527   8.917
22661WAT     H168225   0.163   7.613   8.894
22661WAT     H268226   0.183   7.469   8.968
22662WAT      O68227   3.028   7.500   9.028
22662WAT     H168228   3.119   7.489   8.987
22662WAT     H268229   2.958   7.489   8.957
22663WAT      O68230   2.643   2.437   0.742
22663WAT     H168231   2.685   2.487   0.818
22663WAT     H268232   2.616   2.502   0.671
22664WAT      O68233   2.014   1.819   3.391
22664WAT     H168234   1.955   1.899   3.381
22664WAT     H268235   2.106   1.841   3.357
22665WAT      O68236   2.511   7.177   7.226
22665WAT     H168237   2.589   7.136   7.179
22665WAT     H268238   2.489   7.124   7.308
22666WAT      O68239   2.176   1.792   0.017
22666WAT     H168240   2.131   1.791   0.106
22666WAT     H268241   2.244   1.718   0.014
22667WAT      O68242   5.162   1.019   2.473
22667WAT     H168243   5.109   0.948   2.519
22667WAT     H268244   5.124   1.033   2.381
22668WAT      O68245   3.349   5.045   3.182
22668WAT     H168246   3.252   5.034   3.164
22668WAT     H268247   3.390   4.956   3.203
22669WAT      O68248   1.760   3.775   9.397
22669WAT     H168249   1.830   3.772   9.468
22669WAT     H268250   1.714   3.686   9.392
22670WAT      O68251   9.809   3.943   9.018
22670WAT     H168252   9.770   3.858   9.053
22670WAT     H268253   9.875   3.979   9.084
22671WAT      O68254   9.450   2.258   3.926
22671WAT     H168255   9.529   2.271   3.986
22671WAT     H268256   9.366   2.267   3.978
22672WAT      O68257   4.295   8.946   6.007
22672WAT     H168258   4.321   9.012   6.078
22672WAT     H268259   4.221   8.983   5.951
22673WAT      O68260   0.743   8.126   6.058
22673WAT     H168261   0.823   8.184   6.070
22673WAT     H268262   0.751   8.045   6.116
22674WAT      O68263   8.886   8.050   9.124
22674WAT     H168264   8.890   8.111   9.203
22674WAT     H268265   8.934   8.092   9.047
22675WAT      O68266   0.848   6.035   8.607
22675WAT     H168267   0.889   6.086   8.531
22675WAT     H268268   0.867   5.937   8.596
22676WAT      O68269   8.978   3.614   5.811
22676WAT     H168270   8.996   3.710   5.788
22676WAT     H268271   8.885   3.606   5.847
22677WAT      O68272   5.473   6.616   6.905
22677WAT     H168273   5.525   6.701   6.905
22677WAT     H268274   5.505   6.557   6.979
22678WAT      O68275   2.884   0.721   8.981
22678WAT     H168276   2.830   0.805   8.978
22678WAT     H268277   2.922   0.709   9.072
22679WAT      O68278   0.366   7.237   6.386
22679WAT     H168279   0.267   7.253   6.380
22679WAT     H268280   0.415   7.313   6.343
22680WAT      O68281   7.207   8.217   7.477
22680WAT     H168282   7.218   8.257   7.567
22680WAT     H268283   7.268   8.139   7.467
22681WAT      O68284   6.915   6.804   3.327
22681WAT     H168285   6.927   6.779   3.423
22681WAT     H268286   6.922   6.722   3.270
22682WAT      O68287   4.949   1.360   9.138
22682WAT     H168288   4.913   1.410   9.059
22682WAT     H268289   4.877   1.303   9.178
22683WAT      O68290   0.968   6.433   8.620
22683WAT     H168291   1.063   6.451   8.645
22683WAT     H268292   0.960   6.429   8.520
22684WAT      O68293   4.804   2.859   5.016
22684WAT     H168294   4.864   2.780   5.002
22684WAT     H268295   4.709   2.831   5.007
22685WAT      O68296   1.618   0.471   5.143
22685WAT     H168297   1.710   0.448   5.173
22685WAT     H268298   1.619   0.559   5.096
22686WAT      O68299   3.018   3.208   5.880
22686WAT     H168300   2.928   3.175   5.906
22686WAT     H268301   3.080   3.204   5.959
22687WAT      O68302   1.554   4.760   5.112
22687WAT     H168303   1.520   4.690   5.049
22687WAT     H268304   1.636   4.726   5.158
22688WAT      O68305   3.536   7.392   1.760
22688WAT     H168306   3.483   7.353   1.835
22688WAT     H268307   3.482   7.391   1.676
22689WAT      O68308   4.196   4.540   5.505
22689WAT     H168309   4.159   4.456   5.543
22689WAT     H268310   4.124   4.608   5.497
22690WAT      O68311   2.153   5.152   0.758
22690WAT     H168312   2.129   5.247   0.737
22690WAT     H268313   2.147   5.097   0.675
22691WAT      O68314   3.339   0.927   0.099
22691WAT     H168315   3.255   0.895   0.055
22691WAT     H268316   3.317   0.962   0.190
22692WAT      O68317   8.037   0.165   5.145
22692WAT     H168318   8.078   0.244   5.098
22692WAT     H268319   8.110   0.102   5.173
22693WAT      O68320   7.041   3.307   2.039
22693WAT     H168321   7.053   3.237   1.969
22693WAT     H268322   7.120   3.369   2.040
22694WAT      O68323   7.778   7.461   8.125
22694WAT     H168324   7.851   7.399   8.098
22694WAT     H268325   7.815   7.552   8.141
22695WAT      O68326   6.934   1.707   1.504
22695WAT     H168327   6.877   1.762   1.444
22695WAT     H268328   6.877   1.641   1.553
22696WAT      O68329   3.711   5.440   1.274
22696WAT     H168330   3.678   5.414   1.183
22696WAT     H268331   3.791   5.500   1.264
22697WAT      O68332   2.237   1.457   1.561
22697WAT     H168333   2.272   1.482   1.651
22697WAT     H268334   2.286   1.377   1.527
22698WAT      O68335   6.506   0.143   9.682
22698WAT     H168336   6.504   0.074   9.610
22698WAT     H268337   6.577   0.210   9.663
22699WAT      O68338   5.309   1.800   0.906
22699WAT     H168339   5.324   1.789   1.005
22699WAT     H268340   5.247   1.729   0.873
22700WAT      O68341   6.630   1.540   9.775
22700WAT     H168342   6.661   1.568   9.684
22700WAT     H268343   6.650   1.443   9.788
22701WAT      O68344   1.019   7.768   9.600
22701WAT     H168345   0.922   7.761   9.626
22701WAT     H268346   1.059   7.677   9.596
22702WAT      O68347   3.764   0.752   2.140
22702WAT     H168348   3.726   0.838   2.175
22702WAT     H268349   3.797   0.765   2.047
22703WAT      O68350   1.979   1.402   8.173
22703WAT     H168351   1.989   1.456   8.257
22703WAT     H268352   2.007   1.308   8.190
22704WAT      O68353   3.496   6.913   9.570
22704WAT     H168354   3.543   6.849   9.509
22704WAT     H268355   3.406   6.876   9.593
22705WAT      O68356   5.390   4.218   3.251
22705WAT     H168357   5.300   4.208   3.207
22705WAT     H268358   5.438   4.297   3.212
22706WAT      O68359   7.814   4.202   3.174
22706WAT     H168360   7.715   4.200   3.181
22706WAT     H268361   7.853   4.124   3.224
22707WAT      O68362   8.794   7.417   5.618
22707WAT     H168363   8.886   7.413   5.580
22707WAT     H268364   8.781   7.341   5.682
22708WAT      O68365   9.236   9.406   1.086
22708WAT     H168366   9.277   9.394   1.177
22708WAT     H268367   9.195   9.320   1.057
22709WAT      O68368   2.640   3.681   8.083
22709WAT     H168369   2.559   3.663   8.026
22709WAT     H268370   2.720   3.692   8.024
22710WAT      O68371   9.014   5.554   8.170
22710WAT     H168372   9.095   5.523   8.121
22710WAT     H268373   8.933   5.541   8.113
22711WAT      O68374   2.277   8.563   9.484
22711WAT     H168375   2.276   8.625   9.406
22711WAT     H268376   2.186   8.525   9.499
22712WAT      O68377   5.883   2.191   8.643
22712WAT     H168378   5.909   2.196   8.546
22712WAT     H268379   5.840   2.277   8.671
22713WAT      O68380   7.392   4.003   7.881
22713WAT     H168381   7.427   4.088   7.843
22713WAT     H268382   7.362   3.943   7.807
22714WAT      O68383   5.186   4.471   1.173
22714WAT     H168384   5.120   4.484   1.100
22714WAT     H268385   5.145   4.498   1.260
22715WAT      O68386   2.433   3.552   0.899
22715WAT     H168387   2.404   3.577   0.992
22715WAT     H268388   2.459   3.455   0.897
22716WAT      O68389   3.284   2.812   3.320
22716WAT     H168390   3.193   2.772   3.329
22716WAT     H268391   3.278   2.903   3.280
22717WAT      O68392   1.304   9.128   3.554
22717WAT     H168393   1.249   9.106   3.634
22717WAT     H268394   1.379   9.063   3.546
22718WAT      O68395   9.572   7.827   7.534
22718WAT     H168396   9.554   7.920   7.565
22718WAT     H268397   9.488   7.773   7.540
22719WAT      O68398   0.336   8.318   8.072
22719WAT     H168399   0.330   8.333   8.171
22719WAT     H268400   0.285   8.390   8.025
22720WAT      O68401   7.571   3.699   2.241
22720WAT     H168402   7.636   3.747   2.181
22720WAT     H268403   7.622   3.641   2.305
22721WAT      O68404   3.186   0.680   9.669
22721WAT     H168405   3.194   0.607   9.737
22721WAT     H268406   3.089   0.703   9.657
22722WAT      O68407   4.716   2.460   8.779
22722WAT     H168408   4.724   2.538   8.717
22722WAT     H268409   4.796   2.400   8.766
22723WAT      O68410   7.069   0.232   1.845
22723WAT     H168411   6.987   0.197   1.889
22723WAT     H268412   7.044   0.283   1.762
22724WAT      O68413   6.137   3.708   7.260
22724WAT     H168414   6.181   3.769   7.195
22724WAT     H268415   6.065   3.656   7.214
22725WAT      O68416   2.983   6.569   0.577
22725WAT     H168417   2.978   6.653   0.524
22725WAT     H268418   3.036   6.585   0.661
22726WAT      O68419   1.482   9.025   4.634
22726WAT     H168420   1.428   9.046   4.715
22726WAT     H268421   1.558   8.965   4.659
22727WAT      O68422   6.946   1.736   2.532
22727WAT     H168423   7.004   1.666   2.490
22727WAT     H268424   6.980   1.756   2.624
22728WAT      O68425   7.439   5.354   1.457
22728WAT     H168426   7.466   5.344   1.553
22728WAT     H268427   7.354   5.305   1.441
22729WAT      O68428   7.774   4.043   0.936
22729WAT     H168429   7.750   3.965   0.878
22729WAT     H268430   7.703   4.056   1.005
22730WAT      O68431   4.033   0.163   0.376
22730WAT     H168432   4.059   0.208   0.290
22730WAT     H268433   4.051   0.226   0.452
22731WAT      O68434   0.881   4.788   7.447
22731WAT     H168435   0.971   4.823   7.472
22731WAT     H268436   0.812   4.858   7.464
22732WAT      O68437   8.130   8.209   6.284
22732WAT     H168438   8.112   8.305   6.303
22732WAT     H268439   8.058   8.172   6.225
22733WAT      O68440   1.615   0.863   7.612
22733WAT     H168441   1.703   0.896   7.578
22733WAT     H268442   1.552   0.852   7.535
22734WAT      O68443   5.174   6.869   4.958
22734WAT     H168444   5.269   6.842   4.946
22734WAT     H268445   5.118   6.788   4.976
22735WAT      O68446   0.146   2.281   6.412
22735WAT     H168447   0.101   2.198   6.445
22735WAT     H268448   0.196   2.324   6.488
22736WAT      O68449   5.815   2.784   0.421
22736WAT     H168450   5.896   2.733   0.393
22736WAT     H268451   5.840   2.879   0.439
22737WAT      O68452   6.473   2.908   9.101
22737WAT     H168453   6.561   2.881   9.060
22737WAT     H268454   6.490   2.958   9.185
22738WAT      O68455   1.616   1.002   0.747
22738WAT     H168456   1.532   1.055   0.748
22738WAT     H268457   1.653   1.001   0.654
22739WAT      O68458   2.171   9.521   3.112
22739WAT     H168459   2.225   9.539   3.194
22739WAT     H268460   2.183   9.426   3.085
22740WAT      O68461   6.827   2.094   6.379
22740WAT     H168462   6.729   2.081   6.394
22740WAT     H268463   6.878   2.036   6.444
22741WAT      O68464   4.871   2.846   6.524
22741WAT     H168465   4.962   2.872   6.558
22741WAT     H268466   4.815   2.928   6.514
22742WAT      O68467   2.095   7.581   4.876
22742WAT     H168468   2.010   7.568   4.824
22742WAT     H268469   2.101   7.511   4.948
22743WAT      O68470   3.832   1.157   1.987
22743WAT     H168471   3.842   1.058   1.999
22743WAT     H268472   3.742   1.185   2.017
22744WAT      O68473   9.256   7.972   3.882
22744WAT     H168474   9.219   8.045   3.823
22744WAT     H268475   9.328   7.924   3.832
22745WAT      O68476   7.523   7.250   3.735
22745WAT     H168477   7.469   7.166   3.738
22745WAT     H268478   7.590   7.249   3.809
22746WAT      O68479   5.291   7.275   3.948
22746WAT     H168480   5.336   7.188   3.929
22746WAT     H268481   5.359   7.348   3.951
22747WAT      O68482   9.667   3.170   9.507
22747WAT     H168483   9.734   3.163   9.582
22747WAT     H268484   9.705   3.227   9.434
22748WAT      O68485   3.772   5.206   4.580
22748WAT     H168486   3.787   5.286   4.639
22748WAT     H268487   3.778   5.234   4.484
22749WAT      O68488   8.292   6.163   7.644
22749WAT     H168489   8.285   6.251   7.597
22749WAT     H268490   8.207   6.111   7.631
22750WAT      O68491   6.872   8.852   1.244
22750WAT     H168492   6.946   8.919   1.250
22750WAT     H268493   6.784   8.899   1.255
22751WAT      O68494   6.382   8.426   9.215
22751WAT     H168495   6.430   8.338   9.210
22751WAT     H268496   6.351   8.452   9.124
22752WAT      O68497   0.082   7.317   2.425
22752WAT     H168498  -0.001   7.354   2.467
22752WAT     H268499   0.071   7.316   2.326
22753WAT      O68500   4.428   8.062   5.814
22753WAT     H168501   4.364   7.999   5.770
22753WAT     H268502   4.501   8.010   5.857
22754WAT      O68503   8.013   4.445   3.450
22754WAT     H168504   8.071   4.377   3.405
22754WAT     H268505   7.962   4.401   3.524
22755WAT      O68506   5.941   9.546   3.570
22755WAT     H168507   6.040   9.552   3.580
22755WAT     H268508   5.912   9.451   3.585
22756WAT      O68509   0.886   1.869   5.533
22756WAT     H168510   0.915   1.939   5.469
22756WAT     H268511   0.882   1.907   5.625
22757WAT      O68512   7.139   4.112   2.027
22757WAT     H168513   7.138   4.070   1.937
22757WAT     H268514   7.191   4.197   2.024
22758WAT      O68515   0.122   9.645   1.532
22758WAT     H168516   0.106   9.701   1.613
22758WAT     H268517   0.160   9.557   1.560
22759WAT      O68518   0.913   5.599   3.710
22759WAT     H168519   0.905   5.561   3.802
22759WAT     H268520   1.008   5.629   3.696
22760WAT      O68521   3.335   7.255   5.652
22760WAT     H168522   3.281   7.204   5.719
22760WAT     H268523   3.411   7.300   5.699
22761WAT      O68524   9.660   6.485   1.863
22761WAT     H168525   9.652   6.454   1.958
22761WAT     H268526   9.677   6.407   1.804
22762WAT      O68527   2.478   9.246   5.052
22762WAT     H168528   2.538   9.308   5.103
22762WAT     H268529   2.391   9.237   5.100
22763WAT      O68530   9.118   2.248   9.685
22763WAT     H168531   9.038   2.208   9.729
22763WAT     H268532   9.201   2.209   9.724
22764WAT      O68533   8.811   6.641   4.792
22764WAT     H168534   8.805   6.705   4.868
22764WAT     H268535   8.907   6.629   4.766
22765WAT      O68536   3.196   9.213   4.524
22765WAT     H168537   3.099   9.201   4.502
22765WAT     H268538   3.232   9.293   4.476
22766WAT      O68539   2.789   2.658   3.235
22766WAT     H168540   2.698   2.700   3.225
22766WAT     H268541   2.785   2.586   3.304
22767WAT      O68542   0.950   6.127   8.377
22767WAT     H168543   0.924   6.224   8.383
22767WAT     H268544   1.050   6.120   8.381
22768WAT      O68545   7.722   0.382   7.632
22768WAT     H168546   7.777   0.461   7.606
22768WAT     H268547   7.781   0.312   7.673
22769WAT      O68548   6.062   5.732   8.047
22769WAT     H168549   6.079   5.830   8.040
22769WAT     H268550   5.964   5.714   8.032
22770WAT      O68551   2.765   7.005   3.798
22770WAT     H168552   2.761   6.935   3.726
22770WAT     H268553   2.718   6.971   3.879
22771WAT      O68554   3.484   7.731   1.482
22771WAT     H168555   3.497   7.653   1.421
22771WAT     H268556   3.571   7.752   1.528
22772WAT      O68557   0.741   6.756   8.831
22772WAT     H168558   0.760   6.773   8.734
22772WAT     H268559   0.725   6.658   8.845
22773WAT      O68560   5.813   0.501   4.823
22773WAT     H168561   5.825   0.403   4.836
22773WAT     H268562   5.897   0.548   4.852
22774WAT      O68563   4.129   5.557   0.146
22774WAT     H168564   4.196   5.484   0.138
22774WAT     H268565   4.156   5.621   0.218
22775WAT      O68566   2.446   9.070   0.432
22775WAT     H168567   2.479   9.067   0.337
22775WAT     H268568   2.389   9.151   0.444
22776WAT      O68569   3.924   4.924   4.906
22776WAT     H168570   3.833   4.947   4.872
22776WAT     H268571   3.991   4.990   4.871
22777WAT      O68572   5.677   6.995   7.649
22777WAT     H168573   5.604   6.967   7.587
22777WAT     H268574   5.696   7.092   7.636
22778WAT      O68575   6.274   3.612   8.584
22778WAT     H168576   6.293   3.592   8.680
22778WAT     H268577   6.183   3.576   8.561
22779WAT      O68578   6.799   8.024   5.823
22779WAT     H168579   6.746   8.000   5.741
22779WAT     H268580   6.863   8.097   5.801
22780WAT      O68581   0.393   4.930   7.574
22780WAT     H168582   0.411   4.918   7.477
22780WAT     H268583   0.449   5.005   7.609
22781WAT      O68584   2.936   4.348   3.817
22781WAT     H168585   3.007   4.282   3.793
22781WAT     H268586   2.877   4.310   3.887
22782WAT      O68587   7.983   7.463   8.710
22782WAT     H168588   8.041   7.431   8.635
22782WAT     H268589   7.988   7.563   8.714
22783WAT      O68590   3.205   9.588   3.645
22783WAT     H168591   3.150   9.523   3.698
22783WAT     H268592   3.208   9.675   3.694
22784WAT      O68593   0.841   8.763   6.353
22784WAT     H168594   0.749   8.732   6.380
22784WAT     H268595   0.836   8.858   6.323
22785WAT      O68596   5.569   7.388   3.880
22785WAT     H168597   5.507   7.458   3.915
22785WAT     H268598   5.659   7.429   3.864
22786WAT      O68599   4.732   5.389   5.736
22786WAT     H168600   4.657   5.424   5.793
22786WAT     H268601   4.818   5.404   5.784
22787WAT      O68602   4.400   5.860   1.206
22787WAT     H168603   4.340   5.847   1.284
22787WAT     H268604   4.486   5.811   1.220
22788WAT      O68605   5.302   5.085   0.906
22788WAT     H168606   5.250   5.069   0.990
22788WAT     H268607   5.365   5.009   0.891
22789WAT      O68608   3.796   0.168   0.650
22789WAT     H168609   3.833   0.076   0.639
22789WAT     H268610   3.758   0.179   0.742
22790WAT      O68611   8.392   1.088   2.307
22790WAT     H168612   8.376   0.990   2.290
22790WAT     H268613   8.362   1.141   2.228
22791WAT      O68614   4.917   7.544   2.903
22791WAT     H168615   4.962   7.488   2.972
22791WAT     H268616   4.962   7.530   2.814
22792WAT      O68617   2.436   7.660   0.681
22792WAT     H168618   2.441   7.572   0.634
22792WAT     H268619   2.520   7.712   0.664
22793WAT      O68620   2.024   6.217   9.347
22793WAT     H168621   1.984   6.271   9.420
22793WAT     H268622   2.069   6.277   9.281
22794WAT      O68623   3.300   0.629   4.810
22794WAT     H168624   3.394   0.611   4.840
22794WAT     H268625   3.262   0.704   4.865
22795WAT      O68626   1.797   7.292   0.811
22795WAT     H168627   1.867   7.335   0.868
22795WAT     H268628   1.707   7.304   0.852
22796WAT      O68629   2.646   3.361   9.479
22796WAT     H168630   2.713   3.379   9.551
22796WAT     H268631   2.644   3.437   9.414
22797WAT      O68632   1.687   0.249   4.903
22797WAT     H168633   1.661   0.307   4.980
22797WAT     H268634   1.715   0.159   4.937
22798WAT      O68635   0.673   4.016   5.072
22798WAT     H168636   0.734   3.937   5.063
22798WAT     H268637   0.586   3.987   5.112
22799WAT      O68638   1.690   2.082   7.795
22799WAT     H168639   1.591   2.087   7.798
22799WAT     H268640   1.718   1.995   7.755
22800WAT      O68641   1.521   5.506   1.384
22800WAT     H168642   1.469   5.579   1.340
22800WAT     H268643   1.568   5.542   1.464
22801WAT      O68644   4.250   2.176   9.615
22801WAT     H168645   4.230   2.226   9.530
22801WAT     H268646   4.214   2.227   9.693
22802WAT      O68647   9.537   1.500   0.429
22802WAT     H168648   9.440   1.479   0.437
22802WAT     H268649   9.589   1.415   0.424
22803WAT      O68650   7.409   9.762   2.013
22803WAT     H168651   7.493   9.805   1.977
22803WAT     H268652   7.379   9.812   2.094
22804WAT      O68653   1.412   6.301   1.688
22804WAT     H168654   1.455   6.364   1.622
22804WAT     H268655   1.333   6.345   1.729
22805WAT      O68656   0.725   6.613   9.519
22805WAT     H168657   0.628   6.615   9.543
22805WAT     H268658   0.777   6.666   9.587
22806WAT      O68659   1.253   1.291   7.934
22806WAT     H168660   1.188   1.349   7.983
22806WAT     H268661   1.228   1.195   7.945
22807WAT      O68662   0.972   9.674   3.944
22807WAT     H168663   0.994   9.590   3.994
22807WAT     H268664   1.022   9.751   3.984
22808WAT      O68665   6.709   9.842   4.664
22808WAT     H168666   6.716   9.780   4.742
22808WAT     H268667   6.800   9.867   4.633
22809WAT      O68668   2.332   1.725   5.069
22809WAT     H168669   2.389   1.804   5.046
22809WAT     H268670   2.352   1.650   5.006
22810WAT      O68671   7.278   8.371   3.629
22810WAT     H168672   7.355   8.307   3.636
22810WAT     H268673   7.294   8.450   3.687
22811WAT      O68674   0.256   2.097   2.759
22811WAT     H168675   0.338   2.142   2.723
22811WAT     H268676   0.279   2.052   2.846
22812WAT      O68677   3.516   3.151   4.031
22812WAT     H168678   3.448   3.195   4.090
22812WAT     H268679   3.551   3.217   3.965
22813WAT      O68680   5.809   3.327   7.599
22813WAT     H168681   5.831   3.344   7.502
22813WAT     H268682   5.894   3.322   7.651
22814WAT      O68683   8.870   4.345   3.073
22814WAT     H168684   8.961   4.362   3.035
22814WAT     H268685   8.870   4.258   3.122
22815WAT      O68686   8.824   3.169   1.416
22815WAT     H168687   8.775   3.128   1.339
22815WAT     H268688   8.915   3.130   1.422
22816WAT      O68689   4.752   1.643   9.558
22816WAT     H168690   4.820   1.601   9.498
22816WAT     H268691   4.783   1.634   9.653
22817WAT      O68692   5.496   1.152   5.393
22817WAT     H168693   5.441   1.213   5.451
22817WAT     H268694   5.443   1.070   5.372
22818WAT      O68695   6.582   2.849   7.572
22818WAT     H168696   6.535   2.764   7.547
22818WAT     H268697   6.681   2.836   7.565
22819WAT      O68698   0.535   2.908   3.496
22819WAT     H168699   0.605   2.839   3.480
22819WAT     H268700   0.514   2.911   3.594
22820WAT      O68701   4.336   4.562   5.762
22820WAT     H168702   4.410   4.496   5.770
22820WAT     H268703   4.288   4.548   5.676
22821WAT      O68704   4.238   9.313   8.425
22821WAT     H168705   4.297   9.258   8.484
22821WAT     H268706   4.271   9.407   8.424
22822WAT      O68707   6.442   1.578   3.050
22822WAT     H168708   6.378   1.620   2.985
22822WAT     H268709   6.406   1.586   3.142
22823WAT      O68710   3.473   1.827   7.096
22823WAT     H168711   3.436   1.856   7.184
22823WAT     H268712   3.504   1.733   7.102
22824WAT      O68713   8.670   1.722   8.887
22824WAT     H168714   8.571   1.732   8.899
22824WAT     H268715   8.716   1.807   8.914
22825WAT      O68716   4.049   1.800   4.032
22825WAT     H168717   4.069   1.805   3.934
22825WAT     H268718   4.134   1.803   4.084
22826WAT      O68719   7.114   5.458   4.974
22826WAT     H168720   7.206   5.495   4.984
22826WAT     H268721   7.113   5.388   4.903
22827WAT      O68722   7.332   4.966   7.596
22827WAT     H168723   7.244   4.953   7.551
22827WAT     H268724   7.321   4.960   7.695
22828WAT      O68725   3.202   3.379   7.446
22828WAT     H168726   3.239   3.356   7.536
22828WAT     H268727   3.252   3.327   7.376
22829WAT      O68728   8.387   3.524   7.983
22829WAT     H168729   8.352   3.504   7.891
22829WAT     H268730   8.421   3.439   8.024
22830WAT      O68731   0.711   9.791   1.973
22830WAT     H168732   0.618   9.774   1.940
22830WAT     H268733   0.777   9.763   1.904
22831WAT      O68734   1.230   0.561   0.712
22831WAT     H168735   1.135   0.528   0.715
22831WAT     H268736   1.243   0.632   0.781
22832WAT      O68737   3.614   3.208   6.966
22832WAT     H168738   3.524   3.180   6.933
22832WAT     H268739   3.653   3.275   6.904
22833WAT      O68740   7.026   1.841   3.194
22833WAT     H168741   6.933   1.876   3.198
22833WAT     H268742   7.085   1.905   3.145
22834WAT      O68743   6.029   1.607   5.654
22834WAT     H168744   5.956   1.648   5.709
22834WAT     H268745   6.054   1.671   5.581
22835WAT      O68746   2.507   3.358   8.090
22835WAT     H168747   2.534   3.350   7.994
22835WAT     H268748   2.429   3.421   8.097
22836WAT      O68749   7.127   6.212   8.032
22836WAT     H168750   7.035   6.234   8.000
22836WAT     H268751   7.189   6.205   7.954
22837WAT      O68752   1.936   7.619   2.412
22837WAT     H168753   1.944   7.567   2.497
22837WAT     H268754   1.974   7.565   2.337
22838WAT      O68755   3.639   0.412   1.542
22838WAT     H168756   3.609   0.321   1.514
22838WAT     H268757   3.683   0.406   1.632
22839WAT      O68758   3.154   3.959   1.403
22839WAT     H168759   3.071   4.013   1.406
22839WAT     H268760   3.134   3.869   1.364
22840WAT      O68761   9.034   1.005   1.853
22840WAT     H168762   9.130   1.031   1.857
22840WAT     H268763   9.015   0.936   1.923
22841WAT      O68764   0.756   1.026   6.153
22841WAT     H168765   0.728   0.931   6.138
22841WAT     H268766   0.848   1.028   6.192
22842WAT      O68767   9.731   3.431   8.785
22842WAT     H168768   9.665   3.469   8.849
22842WAT     H268769   9.722   3.331   8.783
22843WAT      O68770   7.622   3.338   1.481
22843WAT     H168771   7.556   3.355   1.554
22843WAT     H268772   7.590   3.377   1.396
22844WAT      O68773   3.167   4.541   3.761
22844WAT     H168774   3.172   4.568   3.665
22844WAT     H268775   3.160   4.441   3.767
22845WAT      O68776   1.340   1.703   2.716
22845WAT     H168777   1.355   1.610   2.750
22845WAT     H268778   1.286   1.755   2.783
22846WAT      O68779   9.697   1.821   6.265
22846WAT     H168780   9.693   1.843   6.363
22846WAT     H268781   9.615   1.855   6.220
22847WAT      O68782   8.263   7.068   5.088
22847WAT     H168783   8.354   7.051   5.048
22847WAT     H268784   8.238   7.163   5.073
22848WAT      O68785   3.955   1.907   3.733
22848WAT     H168786   3.901   1.937   3.654
22848WAT     H268787   4.047   1.884   3.704
22849WAT      O68788   0.946   4.871   9.728
22849WAT     H168789   0.877   4.834   9.791
22849WAT     H268790   1.024   4.907   9.780
22850WAT      O68791   8.012   0.869   3.302
22850WAT     H168792   8.097   0.861   3.355
22850WAT     H268793   7.935   0.837   3.357
22851WAT      O68794   6.919   9.186   8.040
22851WAT     H168795   6.963   9.216   8.125
22851WAT     H268796   6.888   9.265   7.989
22852WAT      O68797   5.517   8.181   8.307
22852WAT     H168798   5.473   8.098   8.343
22852WAT     H268799   5.499   8.188   8.209
22853WAT      O68800   0.152   5.384   1.765
22853WAT     H168801   0.090   5.318   1.723
22853WAT     H268802   0.163   5.361   1.862
22854WAT      O68803   3.805   6.019   0.488
22854WAT     H168804   3.747   6.086   0.441
22854WAT     H268805   3.809   5.935   0.435
22855WAT      O68806   2.164   9.832   3.790
22855WAT     H168807   2.184   9.737   3.811
22855WAT     H268808   2.239   9.890   3.822
22856WAT      O68809   3.661   3.003   4.234
22856WAT     H168810   3.640   3.083   4.178
22856WAT     H268811   3.744   2.959   4.200
22857WAT      O68812   4.240   2.937   1.480
22857WAT     H168813   4.258   2.943   1.578
22857WAT     H268814   4.158   2.881   1.464
22858WAT      O68815   4.038   0.023   1.482
22858WAT     H168816   3.997  -0.061   1.517
22858WAT     H268817   4.136   0.011   1.473
22859WAT      O68818   8.035   4.205   2.198
22859WAT     H168819   8.027   4.116   2.243
22859WAT     H268820   7.996   4.200   2.106
22860WAT      O68821   0.019   8.417   4.966
22860WAT     H168822   0.073   8.364   4.901
22860WAT     H268823  -0.074   8.430   4.930
22861WAT      O68824   0.789   2.881   9.663
22861WAT     H168825   0.825   2.865   9.754
22861WAT     H268826   0.759   2.794   9.623
22862WAT      O68827   2.552   9.372   3.188
22862WAT     H168828   2.518   9.419   3.269
22862WAT     H268829   2.582   9.440   3.121
22863WAT      O68830   6.941   0.811   0.365
22863WAT     H168831   6.950   0.713   0.382
22863WAT     H268832   7.026   0.846   0.326
22864WAT      O68833   2.835   2.479   3.443
22864WAT     H168834   2.753   2.435   3.481
22864WAT     H268835   2.874   2.542   3.511
22865WAT      O68836   1.998   8.540   2.153
22865WAT     H168837   2.074   8.491   2.111
22865WAT     H268838   1.913   8.516   2.106
22866WAT      O68839   6.504   5.198   7.365
22866WAT     H168840   6.431   5.153   7.416
22866WAT     H268841   6.466   5.275   7.313
22867WAT      O68842   6.444   8.587   1.154
22867WAT     H168843   6.443   8.499   1.107
22867WAT     H268844   6.362   8.639   1.129
22868WAT      O68845   6.886   5.649   4.075
22868WAT     H168846   6.946   5.582   4.117
22868WAT     H268847   6.791   5.627   4.096
22869WAT      O68848   3.356   9.814   8.305
22869WAT     H168849   3.373   9.722   8.269
22869WAT     H268850   3.274   9.811   8.363
22870WAT      O68851   1.220   5.488   4.934
22870WAT     H168852   1.256   5.481   5.027
22870WAT     H268853   1.267   5.422   4.875
22871WAT      O68854   0.726   3.711   1.458
22871WAT     H168855   0.768   3.770   1.390
22871WAT     H268856   0.719   3.618   1.422
22872WAT      O68857   8.976   8.529   9.229
22872WAT     H168858   8.901   8.572   9.178
22872WAT     H268859   9.023   8.598   9.283
22873WAT      O68860   9.790   3.968   7.757
22873WAT     H168861   9.829   3.982   7.848
22873WAT     H268862   9.791   4.055   7.707
22874WAT      O68863   5.010   0.452   0.157
22874WAT     H168864   4.958   0.438   0.241
22874WAT     H268865   4.973   0.531   0.108
22875WAT      O68866   5.249   3.270   6.900
22875WAT     H168867   5.334   3.219   6.908
22875WAT     H268868   5.172   3.214   6.931
22876WAT      O68869   3.389   9.004   4.655
22876WAT     H168870   3.476   9.033   4.616
22876WAT     H268871   3.318   9.071   4.631
22877WAT      O68872   1.636   8.417   4.192
22877WAT     H168873   1.695   8.473   4.134
22877WAT     H268874   1.564   8.474   4.232
22878WAT      O68875   3.566   7.505   8.954
22878WAT     H168876   3.606   7.415   8.936
22878WAT     H268877   3.617   7.550   9.026
22879WAT      O68878   0.300   5.577   8.421
22879WAT     H168879   0.264   5.514   8.489
22879WAT     H268880   0.243   5.575   8.339
22880WAT      O68881   3.689   0.320   0.917
22880WAT     H168882   3.656   0.281   1.003
22880WAT     H268883   3.779   0.361   0.930
22881WAT      O68884   2.109   8.744   9.703
22881WAT     H168885   2.193   8.722   9.752
22881WAT     H268886   2.071   8.661   9.661
22882WAT      O68887   8.903   2.807   0.629
22882WAT     H168888   8.909   2.771   0.722
22882WAT     H268889   8.991   2.795   0.582
22883WAT      O68890   0.947   7.550   9.119
22883WAT     H168891   0.928   7.601   9.035
22883WAT     H268892   1.022   7.593   9.169
22884WAT      O68893   7.247   8.411   6.386
22884WAT     H168894   7.166   8.469   6.397
22884WAT     H268895   7.230   8.344   6.314
22885WAT      O68896   0.961   9.108   9.154
22885WAT     H168897   0.880   9.050   9.159
22885WAT     H268898   0.977   9.136   9.060
22886WAT      O68899   2.093   0.259   4.004
22886WAT     H168900   2.154   0.233   4.079
22886WAT     H268901   2.048   0.345   4.025
22887WAT      O68902   0.102   8.960   9.743
22887WAT     H168903   0.073   9.036   9.685
22887WAT     H268904   0.174   8.908   9.697
22888WAT      O68905   5.944   0.316   1.029
22888WAT     H168906   5.974   0.223   1.049
22888WAT     H268907   5.974   0.342   0.938
22889WAT      O68908   3.502   5.359   4.491
22889WAT     H168909   3.458   5.375   4.579
22889WAT     H268910   3.582   5.301   4.504
22890WAT      O68911   6.659   2.093   0.711
22890WAT     H168912   6.612   2.181   0.709
22890WAT     H268913   6.597   2.021   0.680
22891WAT      O68914   0.945   5.407   3.511
22891WAT     H168915   0.952   5.476   3.583
22891WAT     H268916   1.031   5.356   3.504
22892WAT      O68917   0.789   4.820   5.984
22892WAT     H168918   0.726   4.897   5.992
22892WAT     H268919   0.738   4.738   5.960
22893WAT      O68920   7.011   9.634   4.942
22893WAT     H168921   7.012   9.730   4.971
22893WAT     H268922   7.105   9.601   4.932
22894WAT      O68923   2.596   6.711   0.455
22894WAT     H168924   2.632   6.710   0.362
22894WAT     H268925   2.617   6.624   0.500
22895WAT      O68926   4.292   6.396   9.859
22895WAT     H168927   4.335   6.369   9.773
22895WAT     H268928   4.194   6.375   9.855
22896WAT      O68929   1.332   8.986   8.333
22896WAT     H168930   1.282   9.049   8.393
22896WAT     H268931   1.355   9.032   8.248
22897WAT      O68932   8.002   9.258   0.458
22897WAT     H168933   7.918   9.221   0.498
22897WAT     H268934   7.998   9.358   0.458
22898WAT      O68935   1.001   0.545   7.139
22898WAT     H168936   1.038   0.455   7.158
22898WAT     H268937   0.906   0.550   7.170
22899WAT      O68938   3.156   9.705   7.693
22899WAT     H168939   3.176   9.609   7.673
22899WAT     H268940   3.172   9.760   7.611
22900WAT      O68941   3.910   8.885   1.100
22900WAT     H168942   3.968   8.810   1.129
22900WAT     H268943   3.879   8.937   1.180
22901WAT      O68944   4.555   1.774   2.006
22901WAT     H168945   4.635   1.824   1.972
22901WAT     H268946   4.487   1.839   2.040
22902WAT      O68947   1.627   9.320   0.148
22902WAT     H168948   1.587   9.391   0.090
22902WAT     H268949   1.593   9.331   0.242
22903WAT      O68950   9.686   6.277   6.492
22903WAT     H168951   9.678   6.347   6.422
22903WAT     H268952   9.688   6.187   6.449
22904WAT      O68953   1.057   1.536   7.834
22904WAT     H168954   1.092   1.533   7.927
22904WAT     H268955   1.128   1.571   7.772
22905WAT      O68956   0.739   2.059   5.072
22905WAT     H168957   0.792   2.144   5.080
22905WAT     H268958   0.692   2.041   5.158
22906WAT      O68959   4.576   8.835   1.334
22906WAT     H168960   4.489   8.801   1.372
22906WAT     H268961   4.561   8.864   1.239
22907WAT      O68962   2.918   1.453   2.131
22907WAT     H168963   2.890   1.524   2.196
22907WAT     H268964   2.846   1.385   2.123
22908WAT      O68965   5.447   6.287   1.192
22908WAT     H168966   5.522   6.339   1.152
22908WAT     H268967   5.419   6.329   1.278
22909WAT      O68968   3.086   2.361   6.901
22909WAT     H168969   3.162   2.298   6.916
22909WAT     H268970   3.069   2.370   6.803
22910WAT      O68971   4.239   2.049   7.711
22910WAT     H168972   4.317   2.110   7.724
22910WAT     H268973   4.157   2.089   7.752
22911WAT      O68974   3.706   7.057   2.583
22911WAT     H168975   3.790   7.006   2.600
22911WAT     H268976   3.643   7.000   2.529
22912WAT      O68977   9.298   7.313   9.048
22912WAT     H168978   9.344   7.321   9.137
22912WAT     H268979   9.343   7.243   8.993
22913WAT      O68980   3.687   6.630   0.106
22913WAT     H168981   3.619   6.691   0.066
22913WAT     H268982   3.763   6.684   0.142
22914WAT      O68983   5.877   6.968   8.398
22914WAT     H168984   5.813   6.907   8.445
22914WAT     H268985   5.960   6.918   8.374
22915WAT      O68986   9.762   4.867   2.431
22915WAT     H168987   9.676   4.865   2.482
22915WAT     H268988   9.795   4.961   2.423
22916WAT      O68989   6.304   6.661   6.750
22916WAT     H168990   6.260   6.653   6.839
22916WAT     H268991   6.280   6.581   6.694
22917WAT      O68992   8.721   1.962   0.828
22917WAT     H168993   8.740   2.055   0.861
22917WAT     H268994   8.627   1.938   0.852
22918WAT      O68995   8.134   6.996   4.861
22918WAT     H168996   8.188   7.007   4.944
22918WAT     H268997   8.039   6.975   4.886
22919WAT      O68998   3.564   5.205   3.926
22919WAT     H168999   3.560   5.109   3.954
22919WAT     H269000   3.603   5.212   3.835
22920WAT      O69001   1.410   7.149   3.795
22920WAT     H169002   1.505   7.138   3.825
22920WAT     H269003   1.349   7.144   3.874
22921WAT      O69004   5.633   5.651   6.364
22921WAT     H169005   5.536   5.674   6.370
22921WAT     H269006   5.648   5.558   6.399
22922WAT      O69007   8.598   0.488   4.858
22922WAT     H169008   8.500   0.502   4.845
22922WAT     H269009   8.643   0.576   4.870
22923WAT      O69010   3.077   6.153   2.561
22923WAT     H169011   3.081   6.139   2.660
22923WAT     H269012   3.053   6.066   2.517
22924WAT      O69013   2.695   1.831   2.347
22924WAT     H169014   2.722   1.913   2.296
22924WAT     H269015   2.749   1.753   2.316
22925WAT      O69016   8.817   9.148   0.728
22925WAT     H169017   8.777   9.238   0.709
22925WAT     H269018   8.744   9.079   0.732
22926WAT      O69019   9.080   6.353   7.456
22926WAT     H169020   9.041   6.445   7.454
22926WAT     H269021   9.178   6.359   7.477
22927WAT      O69022   4.575   3.381   1.282
22927WAT     H169023   4.594   3.406   1.187
22927WAT     H269024   4.499   3.436   1.317
22928WAT      O69025   3.612   0.416   4.672
22928WAT     H169026   3.594   0.320   4.697
22928WAT     H269027   3.588   0.476   4.748
22929WAT      O69028   4.876   4.032   1.487
22929WAT     H169029   4.967   4.023   1.527
22929WAT     H269030   4.877   4.105   1.418
22930WAT      O69031   6.810   4.832   5.240
22930WAT     H169032   6.736   4.852   5.176
22930WAT     H269033   6.772   4.788   5.321
22931WAT      O69034   2.068   7.005   7.355
22931WAT     H169035   2.010   7.082   7.329
22931WAT     H269036   2.010   6.926   7.375
22932WAT      O69037   9.470   1.824   1.362
22932WAT     H169038   9.377   1.826   1.398
22932WAT     H269039   9.535   1.812   1.437
22933WAT      O69040   7.489   8.433   7.881
22933WAT     H169041   7.569   8.373   7.881
22933WAT     H269042   7.518   8.528   7.871
22934WAT      O69043   5.467   3.268   0.694
22934WAT     H169044   5.451   3.275   0.596
22934WAT     H269045   5.454   3.358   0.736
22935WAT      O69046   5.276   2.373   8.532
22935WAT     H169047   5.305   2.301   8.470
22935WAT     H269048   5.279   2.340   8.627
22936WAT      O69049   8.323   7.131   9.045
22936WAT     H169050   8.378   7.210   9.021
22936WAT     H269051   8.283   7.092   8.962
22937WAT      O69052   0.055   2.434   3.856
22937WAT     H169053   0.083   2.524   3.822
22937WAT     H269054  -0.012   2.394   3.793
22938WAT      O69055   4.485   2.917   1.341
22938WAT     H169056   4.491   2.856   1.262
22938WAT     H269057   4.389   2.930   1.367
22939WAT      O69058   3.207   7.042   8.272
22939WAT     H169059   3.207   6.943   8.260
22939WAT     H269060   3.244   7.085   8.189
22940WAT      O69061   5.660   4.208   5.023
22940WAT     H169062   5.643   4.110   5.022
22940WAT     H269063   5.693   4.236   5.114
22941WAT      O69064   1.909   1.611   4.418
22941WAT     H169065   1.954   1.593   4.330
22941WAT     H269066   1.827   1.667   4.402
22942WAT      O69067   1.155   9.060   6.780
22942WAT     H169068   1.196   9.046   6.870
22942WAT     H269069   1.095   8.983   6.759
22943WAT      O69070   6.247   5.645   4.057
22943WAT     H169071   6.339   5.681   4.069
22943WAT     H269072   6.180   5.716   4.080
22944WAT      O69073   8.738   8.292   6.261
22944WAT     H169074   8.829   8.284   6.221
22944WAT     H269075   8.738   8.364   6.332
22945WAT      O69076   3.801   9.064   4.053
22945WAT     H169077   3.812   9.018   4.141
22945WAT     H269078   3.888   9.063   4.004
22946WAT      O69079   1.781   8.383   9.111
22946WAT     H169080   1.788   8.469   9.060
22946WAT     H269081   1.728   8.317   9.058
22947WAT      O69082   6.818   5.256   3.060
22947WAT     H169083   6.853   5.349   3.076
22947WAT     H269084   6.742   5.260   2.995
22948WAT      O69085   3.665   0.018   9.520
22948WAT     H169086   3.700  -0.075   9.531
22948WAT     H269087   3.738   0.076   9.485
22949WAT      O69088   7.023   2.092   3.728
22949WAT     H169089   7.073   2.178   3.737
22949WAT     H269090   7.047   2.047   3.642
22950WAT      O69091   2.757   8.458   2.045
22950WAT     H169092   2.808   8.452   2.131
22950WAT     H269093   2.694   8.381   2.037
22951WAT      O69094   9.238   9.385   1.997
22951WAT     H169095   9.187   9.316   1.945
22951WAT     H269096   9.180   9.466   2.010
22952WAT      O69097   1.740   6.704   2.736
22952WAT     H169098   1.644   6.712   2.708
22952WAT     H269099   1.751   6.622   2.793
22953WAT      O69100   6.955   1.923   5.822
22953WAT     H169101   6.987   2.008   5.781
22953WAT     H269102   7.008   1.904   5.904
22954WAT      O69103   6.917   0.566   5.827
22954WAT     H169104   6.943   0.474   5.800
22954WAT     H269105   6.917   0.626   5.747
22955WAT      O69106   1.965   8.012   0.855
22955WAT     H169107   1.982   7.925   0.901
22955WAT     H269108   2.040   8.075   0.875
22956WAT      O69109   0.788   5.755   0.179
22956WAT     H169110   0.861   5.767   0.247
22956WAT     H269111   0.706   5.802   0.212
22957WAT      O69112   0.280   0.112   4.445
22957WAT     H169113   0.283   0.013   4.463
22957WAT     H269114   0.331   0.132   4.362
22958WAT      O69115   5.559   3.167   6.934
22958WAT     H169116   5.591   3.261   6.924
22958WAT     H269117   5.623   3.115   6.989
22959WAT      O69118   5.623   1.151   6.763
22959WAT     H169119   5.572   1.093   6.826
22959WAT     H269120   5.599   1.247   6.780
22960WAT      O69121   9.679   4.260   4.789
22960WAT     H169122   9.680   4.193   4.863
22960WAT     H269123   9.592   4.252   4.740
22961WAT      O69124   8.266   8.076   1.954
22961WAT     H169125   8.244   7.997   1.898
22961WAT     H269126   8.365   8.094   1.950
22962WAT      O69127   6.292   5.629   8.954
22962WAT     H169128   6.208   5.668   8.917
22962WAT     H269129   6.325   5.557   8.894
22963WAT      O69130   4.901   3.763   7.790
22963WAT     H169131   4.828   3.713   7.837
22963WAT     H269132   4.971   3.699   7.757
22964WAT      O69133   0.770   1.096   3.384
22964WAT     H169134   0.747   1.062   3.293
22964WAT     H269135   0.853   1.052   3.417
22965WAT      O69136   2.423   4.228   5.749
22965WAT     H169137   2.470   4.303   5.702
22965WAT     H269138   2.355   4.188   5.688
22966WAT      O69139   3.348   6.288   7.883
22966WAT     H169140   3.284   6.316   7.955
22966WAT     H269141   3.393   6.368   7.845
22967WAT      O69142   8.781   3.156   2.622
22967WAT     H169143   8.835   3.238   2.639
22967WAT     H269144   8.827   3.098   2.555
22968WAT      O69145   5.334   6.997   7.419
22968WAT     H169146   5.342   7.010   7.320
22968WAT     H269147   5.362   7.081   7.466
22969WAT      O69148   8.287   9.560   1.501
22969WAT     H169149   8.263   9.569   1.598
22969WAT     H269150   8.385   9.542   1.493
22970WAT      O69151   8.329   9.482   0.142
22970WAT     H169152   8.299   9.394   0.178
22970WAT     H269153   8.255   9.523   0.088
22971WAT      O69154   8.062   7.761   0.402
22971WAT     H169155   8.096   7.676   0.441
22971WAT     H269156   7.966   7.773   0.426
22972WAT      O69157   6.489   2.629   1.291
22972WAT     H169158   6.537   2.657   1.375
22972WAT     H269159   6.532   2.673   1.212
22973WAT      O69160   4.707   3.509   2.660
22973WAT     H169161   4.658   3.567   2.725
22973WAT     H269162   4.796   3.549   2.640
22974WAT      O69163   4.148   7.409   3.231
22974WAT     H169164   4.218   7.456   3.178
22974WAT     H269165   4.080   7.475   3.264
22975WAT      O69166   4.993   3.281   1.389
22975WAT     H169167   5.016   3.211   1.457
22975WAT     H269168   4.899   3.313   1.405
22976WAT      O69169   6.887   8.344   6.648
22976WAT     H169170   6.844   8.285   6.579
22976WAT     H269171   6.819   8.369   6.717
22977WAT      O69172   7.394   5.765   7.789
22977WAT     H169173   7.316   5.811   7.831
22977WAT     H269174   7.428   5.819   7.713
22978WAT      O69175   3.552   6.873   8.130
22978WAT     H169176   3.497   6.838   8.053
22978WAT     H269177   3.572   6.970   8.115
22979WAT      O69178   7.634   6.487   0.954
22979WAT     H169179   7.662   6.519   0.864
22979WAT     H269180   7.635   6.387   0.956
22980WAT      O69181   6.357   9.087   8.669
22980WAT     H169182   6.335   9.022   8.742
22980WAT     H269183   6.298   9.070   8.590
22981WAT      O69184   2.515   4.961   7.938
22981WAT     H169185   2.597   5.003   7.977
22981WAT     H269186   2.538   4.869   7.904
22982WAT      O69187   1.609   6.855   1.794
22982WAT     H169188   1.516   6.892   1.787
22982WAT     H269189   1.627   6.794   1.717
22983WAT      O69190   4.809   5.846   0.997
22983WAT     H169191   4.778   5.941   1.002
22983WAT     H269192   4.749   5.794   0.936
22984WAT      O69193   7.563   3.099   1.699
22984WAT     H169194   7.477   3.050   1.706
22984WAT     H269195   7.546   3.195   1.677
22985WAT      O69196   7.050   3.405   5.127
22985WAT     H169197   7.143   3.367   5.133
22985WAT     H269198   6.993   3.367   5.200
22986WAT      O69199   0.200   7.176   0.909
22986WAT     H169200   0.186   7.264   0.954
22986WAT     H269201   0.187   7.187   0.810
22987WAT      O69202   8.853   4.266   9.796
22987WAT     H169203   8.774   4.278   9.737
22987WAT     H269204   8.855   4.338   9.865
22988WAT      O69205   2.332   4.370   0.181
22988WAT     H169206   2.396   4.445   0.193
22988WAT     H269207   2.377   4.284   0.204
22989WAT      O69208   8.205   1.875   7.995
22989WAT     H169209   8.138   1.815   7.950
22989WAT     H269210   8.160   1.922   8.071
22990WAT      O69211   3.529   9.469   4.546
22990WAT     H169212   3.459   9.502   4.483
22990WAT     H269213   3.562   9.380   4.514
22991WAT      O69214   4.022   7.220   5.415
22991WAT     H169215   4.061   7.132   5.442
22991WAT     H269216   4.086   7.293   5.437
22992WAT      O69217   4.627   5.421   0.844
22992WAT     H169218   4.636   5.519   0.865
22992WAT     H269219   4.682   5.399   0.764
22993WAT      O69220   5.148   3.394   4.600
22993WAT     H169221   5.171   3.415   4.505
22993WAT     H269222   5.089   3.313   4.603
22994WAT      O69223   9.675   1.621   2.345
22994WAT     H169224   9.774   1.605   2.349
22994WAT     H269225   9.654   1.710   2.387
22995WAT      O69226   1.242   4.603   3.515
22995WAT     H169227   1.233   4.688   3.567
22995WAT     H269228   1.332   4.599   3.473
22996WAT      O69229   9.006   5.582   8.906
22996WAT     H169230   9.011   5.487   8.937
22996WAT     H269231   9.002   5.643   8.985
22997WAT      O69232   5.356   3.690   5.267
22997WAT     H169233   5.356   3.676   5.168
22997WAT     H269234   5.441   3.656   5.306
22998WAT      O69235   4.087   8.683   7.763
22998WAT     H169236   4.171   8.715   7.806
22998WAT     H269237   4.079   8.723   7.671
22999WAT      O69238   5.865   5.379   1.230
22999WAT     H169239   5.927   5.388   1.308
22999WAT     H269240   5.829   5.469   1.205
23000WAT      O69241   8.153   3.481   5.118
23000WAT     H169242   8.231   3.466   5.057
23000WAT     H269243   8.068   3.467   5.067
23001WAT      O69244   8.643   7.952   3.296
23001WAT     H169245   8.731   7.973   3.255
23001WAT     H269246   8.607   7.867   3.257
23002WAT      O69247   3.249   6.857   9.376
23002WAT     H169248   3.205   6.767   9.378
23002WAT     H269249   3.240   6.901   9.465
23003WAT      O69250   5.387   1.059   6.914
23003WAT     H169251   5.360   1.031   7.007
23003WAT     H269252   5.331   1.136   6.885
23004WAT      O69253   3.441   5.469   9.751
23004WAT     H169254   3.510   5.401   9.778
23004WAT     H269255   3.390   5.500   9.831
23005WAT      O69256   6.769   0.826   4.807
23005WAT     H169257   6.781   0.801   4.903
23005WAT     H269258   6.854   0.868   4.773
23006WAT      O69259   3.524   9.154   3.971
23006WAT     H169260   3.615   9.119   3.993
23006WAT     H269261   3.489   9.209   4.047
23007WAT      O69262   7.532   7.248   4.446
23007WAT     H169263   7.575   7.331   4.483
23007WAT     H269264   7.604   7.186   4.413
23008WAT      O69265   9.689   0.072   4.046
23008WAT     H169266   9.722   0.043   3.956
23008WAT     H269267   9.766   0.099   4.103
23009WAT      O69268   6.109   0.007   9.552
23009WAT     H169269   6.010   0.010   9.565
23009WAT     H269270   6.151  -0.039   9.630
23010WAT      O69271   7.674   5.289   7.648
23010WAT     H169272   7.654   5.279   7.745
23010WAT     H269273   7.713   5.203   7.613
23011WAT      O69274   1.415   7.998   8.164
23011WAT     H169275   1.514   7.988   8.153
23011WAT     H269276   1.393   8.093   8.185
23012WAT      O69277   6.298   7.372   5.577
23012WAT     H169278   6.386   7.348   5.617
23012WAT     H269279   6.227   7.365   5.647
23013WAT      O69280   2.678   2.312   3.754
23013WAT     H169281   2.745   2.250   3.712
23013WAT     H269282   2.718   2.353   3.837
23014WAT      O69283   9.480   0.489   0.802
23014WAT     H169284   9.488   0.546   0.883
23014WAT     H269285   9.565   0.492   0.750
23015WAT      O69286   8.472   4.174   2.378
23015WAT     H169287   8.396   4.239   2.381
23015WAT     H269288   8.484   4.133   2.468
23016WAT      O69289   4.304   7.599   3.597
23016WAT     H169290   4.352   7.518   3.563
23016WAT     H269291   4.211   7.574   3.625
23017WAT      O69292   2.626   7.926   7.444
23017WAT     H169293   2.580   7.843   7.477
23017WAT     H269294   2.585   7.955   7.358
23018WAT      O69295   2.123   6.096   4.983
23018WAT     H169296   2.169   6.062   4.901
23018WAT     H269297   2.164   6.054   5.064
23019WAT      O69298   7.919   2.174   9.797
23019WAT     H169299   7.864   2.242   9.846
23019WAT     H269300   7.858   2.109   9.751
23020WAT      O69301   8.772   4.118   5.048
23020WAT     H169302   8.869   4.136   5.064
23020WAT     H269303   8.762   4.032   4.999
23021WAT      O69304   7.124   8.956   5.989
23021WAT     H169305   7.083   8.876   6.032
23021WAT     H269306   7.224   8.948   5.994
23022WAT      O69307   4.166   3.386   1.929
23022WAT     H169308   4.147   3.303   1.876
23022WAT     H269309   4.115   3.462   1.890
23023WAT      O69310   7.913   8.192   1.338
23023WAT     H169311   7.857   8.243   1.273
23023WAT     H269312   7.923   8.245   1.422
23024WAT      O69313   4.997   2.866   6.859
23024WAT     H169314   4.979   2.964   6.855
23024WAT     H269315   5.040   2.836   6.773
23025WAT      O69316   6.497   2.303   2.794
23025WAT     H169317   6.483   2.364   2.716
23025WAT     H269318   6.420   2.239   2.800
23026WAT      O69319   7.277   4.676   4.798
23026WAT     H169320   7.190   4.708   4.834
23026WAT     H269321   7.262   4.636   4.707
23027WAT      O69322   1.242   7.765   8.717
23027WAT     H169323   1.304   7.788   8.643
23027WAT     H269324   1.180   7.842   8.735
23028WAT      O69325   0.409   3.179   2.270
23028WAT     H169326   0.387   3.270   2.303
23028WAT     H269327   0.400   3.113   2.344
23029WAT      O69328   4.574   0.807   0.376
23029WAT     H169329   4.592   0.713   0.346
23029WAT     H269330   4.499   0.845   0.322
23030WAT      O69331   9.893   8.454   8.346
23030WAT     H169332   9.885   8.422   8.440
23030WAT     H269333   9.816   8.421   8.292
23031WAT      O69334   4.059   8.118   5.882
23031WAT     H169335   4.001   8.133   5.802
23031WAT     H269336   4.113   8.200   5.901
23032WAT      O69337   9.087   6.064   2.047
23032WAT     H169338   9.063   6.159   2.065
23032WAT     H269339   9.121   6.021   2.131
23033WAT      O69340   3.165   8.004   5.599
23033WAT     H169341   3.138   7.972   5.689
23033WAT     H269342   3.263   8.025   5.599
23034WAT      O69343   2.372   2.101   7.478
23034WAT     H169344   2.341   2.092   7.573
23034WAT     H269345   2.296   2.083   7.416
23035WAT      O69346   5.448   5.412   0.594
23035WAT     H169347   5.480   5.322   0.564
23035WAT     H269348   5.382   5.402   0.669
23036WAT      O69349   6.309   0.612   8.191
23036WAT     H169350   6.387   0.663   8.155
23036WAT     H269351   6.224   0.659   8.165
23037WAT      O69352   4.075   6.628   9.517
23037WAT     H169353   4.013   6.550   9.528
23037WAT     H269354   4.134   6.613   9.437
23038WAT      O69355   0.349   4.709   9.601
23038WAT     H169356   0.257   4.673   9.617
23038WAT     H269357   0.402   4.707   9.686
23039WAT      O69358   3.048   2.796   9.656
23039WAT     H169359   3.085   2.848   9.733
23039WAT     H269360   2.963   2.839   9.624
23040WAT      O69361   0.207   6.362   2.654
23040WAT     H169362   0.298   6.398   2.632
23040WAT     H269363   0.178   6.397   2.743
23041WAT      O69364   2.033   8.709   9.081
23041WAT     H169365   2.011   8.759   8.997
23041WAT     H269366   1.949   8.695   9.134
23042WAT      O69367   9.086   1.039   5.713
23042WAT     H169368   9.181   1.056   5.690
23042WAT     H269369   9.061   1.091   5.794
23043WAT      O69370   9.712   6.772   2.961
23043WAT     H169371   9.642   6.790   3.030
23043WAT     H269372   9.704   6.678   2.928
23044WAT      O69373   1.772   7.298   5.068
23044WAT     H169374   1.757   7.209   5.110
23044WAT     H269375   1.708   7.365   5.107
23045WAT      O69376   6.770   3.778   0.137
23045WAT     H169377   6.867   3.802   0.140
23045WAT     H269378   6.727   3.822   0.058
23046WAT      O69379   4.824   5.709   1.572
23046WAT     H169380   4.868   5.735   1.486
23046WAT     H269381   4.815   5.609   1.575
23047WAT      O69382   0.455   6.559   5.466
23047WAT     H169383   0.433   6.621   5.542
23047WAT     H269384   0.428   6.466   5.489
23048WAT      O69385   3.049   7.015   1.478
23048WAT     H169386   2.983   7.051   1.412
23048WAT     H269387   3.093   7.091   1.526
23049WAT      O69388   6.604   8.467   4.434
23049WAT     H169389   6.578   8.436   4.343
23049WAT     H269390   6.687   8.420   4.463
23050WAT      O69391   2.125   9.405   4.717
23050WAT     H169392   2.183   9.483   4.693
23050WAT     H269393   2.179   9.321   4.710
23051WAT      O69394   1.262   3.421   4.626
23051WAT     H169395   1.283   3.378   4.538
23051WAT     H269396   1.345   3.426   4.681
23052WAT      O69397   0.566   2.794   9.887
23052WAT     H169398   0.664   2.801   9.868
23052WAT     H269399   0.539   2.698   9.887
23053WAT      O69400   3.612   1.863   7.613
23053WAT     H169401   3.711   1.863   7.603
23053WAT     H269402   3.582   1.953   7.645
23054WAT      O69403   9.017   5.650   0.729
23054WAT     H169404   9.014   5.616   0.635
23054WAT     H269405   8.995   5.576   0.792
23055WAT      O69406   7.729   6.996   0.177
23055WAT     H169407   7.670   7.073   0.153
23055WAT     H269408   7.674   6.913   0.181
23056WAT      O69409   2.715   9.125   4.709
23056WAT     H169410   2.756   9.213   4.732
23056WAT     H269411   2.708   9.068   4.791
23057WAT      O69412   2.824   9.628   5.674
23057WAT     H169413   2.918   9.623   5.640
23057WAT     H269414   2.779   9.710   5.638
23058WAT      O69415   0.867   6.427   0.693
23058WAT     H169416   0.959   6.400   0.718
23058WAT     H269417   0.813   6.346   0.669
23059WAT      O69418   1.041   4.391   7.539
23059WAT     H169419   1.077   4.389   7.446
23059WAT     H269420   1.043   4.299   7.577
23060WAT      O69421   8.141   8.775   1.584
23060WAT     H169422   8.202   8.793   1.661
23060WAT     H269423   8.123   8.861   1.536
23061WAT      O69424   2.383   1.606   0.014
23061WAT     H169425   2.375   1.542   0.091
23061WAT     H269426   2.475   1.644   0.012
23062WAT      O69427   4.049   6.967   0.898
23062WAT     H169428   4.012   6.950   0.806
23062WAT     H269429   4.057   7.066   0.912
23063WAT      O69430   3.200   7.353   9.764
23063WAT     H169431   3.161   7.426   9.821
23063WAT     H269432   3.133   7.279   9.756
23064WAT      O69433   7.858   2.875   3.492
23064WAT     H169434   7.861   2.814   3.571
23064WAT     H269435   7.797   2.837   3.422
23065WAT      O69436   5.085   0.595   9.329
23065WAT     H169437   5.090   0.548   9.241
23065WAT     H269438   5.171   0.643   9.347
23066WAT      O69439   4.125   3.569   6.534
23066WAT     H169440   4.095   3.520   6.452
23066WAT     H269441   4.225   3.575   6.535
23067WAT      O69442   3.154   0.272   4.129
23067WAT     H169443   3.238   0.278   4.182
23067WAT     H269444   3.103   0.358   4.138
23068WAT      O69445   7.207   5.492   6.020
23068WAT     H169446   7.150   5.410   6.020
23068WAT     H269447   7.160   5.565   5.970
23069WAT      O69448   9.858   1.112   6.367
23069WAT     H169449   9.827   1.038   6.426
23069WAT     H269450   9.947   1.145   6.399
23070WAT      O69451   3.596   6.065   7.760
23070WAT     H169452   3.526   6.118   7.711
23070WAT     H269453   3.591   5.969   7.733
23071WAT      O69454   2.416   1.033   7.494
23071WAT     H169455   2.442   0.991   7.407
23071WAT     H269456   2.412   1.132   7.482
23072WAT      O69457   6.999   0.931   8.075
23072WAT     H169458   6.932   0.915   8.147
23072WAT     H269459   7.070   0.992   8.108
23073WAT      O69460   2.357   4.676   5.903
23073WAT     H169461   2.309   4.724   5.977
23073WAT     H269462   2.302   4.679   5.820
23074WAT      O69463   3.356   6.237   6.170
23074WAT     H169464   3.446   6.235   6.125
23074WAT     H269465   3.318   6.145   6.172
23075WAT      O69466   3.847   0.464   6.601
23075WAT     H169467   3.862   0.380   6.653
23075WAT     H269468   3.781   0.521   6.650
23076WAT      O69469   5.496   0.290   4.209
23076WAT     H169470   5.527   0.291   4.114
23076WAT     H269471   5.396   0.296   4.211
23077WAT      O69472   9.651   7.777   6.801
23077WAT     H169473   9.694   7.867   6.795
23077WAT     H269474   9.590   7.764   6.724
23078WAT      O69475   2.976   2.091   6.631
23078WAT     H169476   3.028   2.170   6.664
23078WAT     H269477   2.887   2.122   6.596
23079WAT      O69478   5.324   7.820   0.097
23079WAT     H169479   5.332   7.919   0.090
23079WAT     H269480   5.233   7.791   0.067
23080WAT      O69481   2.990   2.321   7.541
23080WAT     H169482   3.007   2.225   7.564
23080WAT     H269483   3.077   2.369   7.531
23081WAT      O69484   0.811   6.875   5.525
23081WAT     H169485   0.891   6.932   5.541
23081WAT     H269486   0.822   6.827   5.437
23082WAT      O69487   7.845   8.086   0.203
23082WAT     H169488   7.769   8.093   0.268
23082WAT     H269489   7.932   8.088   0.252
23083WAT      O69490   3.672   7.017   1.875
23083WAT     H169491   3.748   7.072   1.839
23083WAT     H269492   3.645   7.052   1.964
23084WAT      O69493   2.815   8.732   4.586
23084WAT     H169494   2.715   8.737   4.586
23084WAT     H269495   2.843   8.646   4.545
23085WAT      O69496   4.885   0.937   6.936
23085WAT     H169497   4.842   0.930   6.846
23085WAT     H269498   4.887   1.033   6.965
23086WAT      O69499   4.463   5.421   5.457
23086WAT     H169500   4.512   5.425   5.544
23086WAT     H269501   4.414   5.507   5.443
23087WAT      O69502   5.520   7.223   3.673
23087WAT     H169503   5.604   7.169   3.667
23087WAT     H269504   5.525   7.284   3.752
23088WAT      O69505   9.291   0.183   3.895
23088WAT     H169506   9.269   0.099   3.943
23088WAT     H269507   9.220   0.203   3.828
23089WAT      O69508   6.662   9.071   8.026
23089WAT     H169509   6.746   9.125   8.036
23089WAT     H269510   6.685   8.980   7.989
23090WAT      O69511   8.616   2.769   0.723
23090WAT     H169512   8.702   2.808   0.690
23090WAT     H269513   8.616   2.769   0.823
23091WAT      O69514   3.750   6.190   6.901
23091WAT     H169515   3.651   6.175   6.905
23091WAT     H269516   3.797   6.113   6.945
23092WAT      O69517   5.744   5.452   8.780
23092WAT     H169518   5.743   5.529   8.717
23092WAT     H269519   5.823   5.459   8.840
23093WAT      O69520   0.830   6.436   4.301
23093WAT     H169521   0.857   6.385   4.220
23093WAT     H269522   0.910   6.479   4.342
23094WAT      O69523   4.499   4.076   0.716
23094WAT     H169524   4.571   4.114   0.773
23094WAT     H269525   4.475   4.141   0.644
23095WAT      O69526   9.281   3.184   5.973
23095WAT     H169527   9.227   3.247   5.918
23095WAT     H269528   9.279   3.093   5.931
23096WAT      O69529   1.993   1.657   8.006
23096WAT     H169530   1.996   1.661   7.906
23096WAT     H269531   1.977   1.563   8.036
23097WAT      O69532   5.728   3.546   8.811
23097WAT     H169533   5.808   3.605   8.800
23097WAT     H269534   5.738   3.465   8.753
23098WAT      O69535   6.308   5.039   2.153
23098WAT     H169536   6.260   5.033   2.066
23098WAT     H269537   6.243   5.033   2.228
23099WAT      O69538   0.079   1.757   3.691
23099WAT     H169539   0.018   1.698   3.744
23099WAT     H269540   0.104   1.711   3.606
23100WAT      O69541   8.976   4.648   1.982
23100WAT     H169542   9.072   4.629   2.002
23100WAT     H269543   8.941   4.580   1.918
23101WAT      O69544   1.661   6.723   8.570
23101WAT     H169545   1.687   6.630   8.594
23101WAT     H269546   1.735   6.767   8.520
23102WAT      O69547   2.364   0.977   8.596
23102WAT     H169548   2.457   0.997   8.629
23102WAT     H269549   2.348   0.879   8.601
23103WAT      O69550   3.177   4.397   4.689
23103WAT     H169551   3.227   4.311   4.679
23103WAT     H269552   3.085   4.378   4.724
23104WAT      O69553   0.485   9.522   3.494
23104WAT     H169554   0.466   9.434   3.451
23104WAT     H269555   0.531   9.582   3.428
23105WAT      O69556   5.222   5.805   2.937
23105WAT     H169557   5.167   5.849   3.008
23105WAT     H269558   5.189   5.711   2.924
23106WAT      O69559   3.164   2.941   5.599
23106WAT     H169560   3.149   2.902   5.690
23106WAT     H269561   3.141   3.038   5.600
23107WAT      O69562   1.323   0.432   4.804
23107WAT     H169563   1.347   0.419   4.900
23107WAT     H269564   1.282   0.522   4.791
23108WAT      O69565   1.008   7.569   4.984
23108WAT     H169566   0.966   7.632   5.049
23108WAT     H269567   1.092   7.610   4.948
23109WAT      O69568   2.042   2.460   4.774
23109WAT     H169569   1.957   2.452   4.721
23109WAT     H269570   2.027   2.424   4.866
23110WAT      O69571   2.021   6.509   6.361
23110WAT     H169572   2.049   6.435   6.300
23110WAT     H269573   2.079   6.589   6.344
23111WAT      O69574   2.064   9.386   8.141
23111WAT     H169575   2.147   9.406   8.089
23111WAT     H269576   2.076   9.413   8.236
23112WAT      O69577   4.656   8.621   4.103
23112WAT     H169578   4.641   8.582   4.194
23112WAT     H269579   4.731   8.572   4.058
23113WAT      O69580   2.197   3.217   0.248
23113WAT     H169581   2.205   3.260   0.158
23113WAT     H269582   2.184   3.118   0.237
23114WAT      O69583   5.876   3.539   4.262
23114WAT     H169584   5.855   3.495   4.350
23114WAT     H269585   5.807   3.608   4.243
23115WAT      O69586   3.675   0.534   6.018
23115WAT     H169587   3.655   0.524   5.921
23115WAT     H269588   3.632   0.458   6.069
23116WAT      O69589   0.589   1.162   1.018
23116WAT     H169590   0.558   1.248   0.977
23116WAT     H269591   0.522   1.090   0.998
23117WAT      O69592   5.632   7.280   6.185
23117WAT     H169593   5.645   7.354   6.250
23117WAT     H269594   5.616   7.317   6.094
23118WAT      O69595   3.445   0.439   2.366
23118WAT     H169596   3.514   0.395   2.423
23118WAT     H269597   3.488   0.471   2.281
23119WAT      O69598   8.118   8.812   6.830
23119WAT     H169599   8.074   8.829   6.741
23119WAT     H269600   8.112   8.894   6.886
23120WAT      O69601   2.633   5.306   7.347
23120WAT     H169602   2.643   5.306   7.446
23120WAT     H269603   2.702   5.244   7.307
23121WAT      O69604   4.255   0.769   6.944
23121WAT     H169605   4.269   0.868   6.953
23121WAT     H269606   4.324   0.721   6.998
23122WAT      O69607   1.438   4.398   5.588
23122WAT     H169608   1.515   4.334   5.596
23122WAT     H269609   1.361   4.364   5.642
23123WAT      O69610   2.016   7.347   7.998
23123WAT     H169611   1.947   7.292   8.044
23123WAT     H269612   2.061   7.294   7.926
23124WAT      O69613   1.918   3.154   5.943
23124WAT     H169614   1.820   3.131   5.942
23124WAT     H269615   1.938   3.211   6.023
23125WAT      O69616   3.439   4.441   6.708
23125WAT     H169617   3.364   4.506   6.710
23125WAT     H269618   3.519   4.479   6.755
23126WAT      O69619   7.217   5.584   6.276
23126WAT     H169620   7.240   5.516   6.207
23126WAT     H269621   7.235   5.676   6.239
23127WAT      O69622   1.767   0.229   6.626
23127WAT     H169623   1.858   0.270   6.622
23127WAT     H269624   1.738   0.201   6.535
23128WAT      O69625   5.229   3.871   0.092
23128WAT     H169626   5.182   3.844   0.176
23128WAT     H269627   5.176   3.942   0.046
23129WAT      O69628   0.762   8.893   9.519
23129WAT     H169629   0.702   8.973   9.519
23129WAT     H269630   0.838   8.908   9.582
23130WAT      O69631   6.050   3.594   5.252
23130WAT     H169632   6.079   3.676   5.203
23130WAT     H269633   5.987   3.542   5.195
23131WAT      O69634   8.232   8.422   8.878
23131WAT     H169635   8.311   8.449   8.933
23131WAT     H269636   8.260   8.406   8.783
23132WAT      O69637   9.785   7.471   3.294
23132WAT     H169638   9.834   7.516   3.220
23132WAT     H269639   9.698   7.436   3.260
23133WAT      O69640   5.873   7.145   2.006
23133WAT     H169641   5.899   7.100   1.921
23133WAT     H269642   5.859   7.243   1.989
23134WAT      O69643   7.737   7.513   0.607
23134WAT     H169644   7.671   7.554   0.670
23134WAT     H269645   7.703   7.424   0.576
23135WAT      O69646   5.379   7.941   7.352
23135WAT     H169647   5.292   7.990   7.363
23135WAT     H269648   5.453   8.008   7.338
23136WAT      O69649   3.185   5.815   0.624
23136WAT     H169650   3.256   5.746   0.637
23136WAT     H269651   3.105   5.773   0.582
23137WAT      O69652   3.092   5.126   8.690
23137WAT     H169653   3.112   5.102   8.595
23137WAT     H269654   3.045   5.050   8.734
23138WAT      O69655   3.406   8.888   5.195
23138WAT     H169656   3.363   8.831   5.124
23138WAT     H269657   3.357   8.975   5.201
23139WAT      O69658   8.658   0.410   7.961
23139WAT     H169659   8.737   0.440   7.909
23139WAT     H269660   8.620   0.487   8.013
23140WAT      O69661   6.127   5.944   8.656
23140WAT     H169662   6.128   6.043   8.640
23140WAT     H269663   6.205   5.902   8.609
23141WAT      O69664   6.593   4.993   5.662
23141WAT     H169665   6.616   5.087   5.638
23141WAT     H269666   6.509   4.966   5.615
23142WAT      O69667   9.550   6.118   5.385
23142WAT     H169668   9.468   6.061   5.400
23142WAT     H269669   9.603   6.080   5.309
23143WAT      O69670   9.816   5.727   0.180
23143WAT     H169671   9.846   5.795   0.113
23143WAT     H269672   9.741   5.674   0.142
23144WAT      O69673   9.048   4.025   5.009
23144WAT     H169674   9.063   4.037   5.107
23144WAT     H269675   9.043   3.927   4.987
23145WAT      O69676   1.315   7.309   7.871
23145WAT     H169677   1.316   7.408   7.866
23145WAT     H269678   1.353   7.279   7.959
23146WAT      O69679   4.721   6.583   0.934
23146WAT     H169680   4.764   6.576   1.024
23146WAT     H269681   4.793   6.591   0.865
23147WAT      O69682   4.277   9.621   5.575
23147WAT     H169683   4.213   9.694   5.602
23147WAT     H269684   4.361   9.629   5.629
23148WAT      O69685   7.079   3.517   9.882
23148WAT     H169686   7.140   3.440   9.860
23148WAT     H269687   7.125   3.578   9.947
23149WAT      O69688   1.430   3.602   2.246
23149WAT     H169689   1.510   3.555   2.284
23149WAT     H269690   1.406   3.680   2.304
23150WAT      O69691   1.959   3.543   3.896
23150WAT     H169692   1.987   3.597   3.817
23150WAT     H269693   1.886   3.590   3.945
23151WAT      O69694   8.082   6.585   2.920
23151WAT     H169695   8.161   6.634   2.958
23151WAT     H269696   7.998   6.627   2.952
23152WAT      O69697   4.503   4.627   1.839
23152WAT     H169698   4.409   4.646   1.865
23152WAT     H269699   4.524   4.673   1.753
23153WAT      O69700   1.435   8.115   4.226
23153WAT     H169701   1.457   8.169   4.144
23153WAT     H269702   1.506   8.045   4.239
23154WAT      O69703   2.658   7.296   4.839
23154WAT     H169704   2.604   7.358   4.783
23154WAT     H269705   2.747   7.280   4.795
23155WAT      O69706   9.714   1.786   4.184
23155WAT     H169707   9.669   1.858   4.130
23155WAT     H269708   9.650   1.711   4.200
23156WAT      O69709   8.228   1.196   0.579
23156WAT     H169710   8.192   1.282   0.615
23156WAT     H269711   8.208   1.122   0.644
23157WAT      O69712   4.690   7.919   0.874
23157WAT     H169713   4.661   7.835   0.918
23157WAT     H269714   4.764   7.899   0.809
23158WAT      O69715   8.515   0.594   8.787
23158WAT     H169716   8.497   0.521   8.852
23158WAT     H269717   8.512   0.557   8.694
23159WAT      O69718   5.174   7.518   0.726
23159WAT     H169719   5.163   7.435   0.672
23159WAT     H269720   5.105   7.520   0.799
23160WAT      O69721   5.675   3.382   3.737
23160WAT     H169722   5.647   3.302   3.791
23160WAT     H269723   5.641   3.371   3.643
23161WAT      O69724   6.358   6.404   1.702
23161WAT     H169725   6.292   6.478   1.707
23161WAT     H269726   6.381   6.373   1.795
23162WAT      O69727   8.593   2.139   9.142
23162WAT     H169728   8.639   2.216   9.187
23162WAT     H269729   8.503   2.125   9.183
23163WAT      O69730   0.281   1.428   1.893
23163WAT     H169731   0.316   1.367   1.964
23163WAT     H269732   0.357   1.459   1.835
23164WAT      O69733   8.169   3.437   3.365
23164WAT     H169734   8.121   3.525   3.371
23164WAT     H269735   8.102   3.363   3.370
23165WAT      O69736   3.578   2.360   3.178
23165WAT     H169737   3.644   2.408   3.120
23165WAT     H269738   3.490   2.405   3.172
23166WAT      O69739   4.256   8.904   4.586
23166WAT     H169740   4.275   8.880   4.681
23166WAT     H269741   4.340   8.898   4.532
23167WAT      O69742   0.554   4.584   8.221
23167WAT     H169743   0.555   4.486   8.202
23167WAT     H269744   0.585   4.600   8.315
23168WAT      O69745   5.226   2.745   6.030
23168WAT     H169746   5.189   2.692   5.954
23168WAT     H269747   5.288   2.814   5.995
23169WAT      O69748   9.273   5.446   5.403
23169WAT     H169749   9.277   5.435   5.304
23169WAT     H269750   9.253   5.542   5.425
23170WAT      O69751   9.476   6.375   5.958
23170WAT     H169752   9.521   6.458   5.927
23170WAT     H269753   9.379   6.377   5.931
23171WAT      O69754   6.965   3.703   0.552
23171WAT     H169755   7.060   3.671   0.549
23171WAT     H269756   6.946   3.744   0.641
23172WAT      O69757   8.032   3.671   3.428
23172WAT     H169758   8.018   3.746   3.363
23172WAT     H269759   7.998   3.699   3.518
23173WAT      O69760   1.090   5.593   7.138
23173WAT     H169761   1.179   5.547   7.139
23173WAT     H269762   1.097   5.679   7.189
23174WAT      O69763   1.629   3.422   2.346
23174WAT     H169764   1.693   3.353   2.311
23174WAT     H269765   1.540   3.379   2.362
23175WAT      O69766   6.439   7.099   8.184
23175WAT     H169767   6.498   7.038   8.237
23175WAT     H269768   6.441   7.191   8.225
23176WAT      O69769   8.102   6.482   3.441
23176WAT     H169770   8.139   6.435   3.360
23176WAT     H269771   8.122   6.579   3.435
23177WAT      O69772   1.123   7.871   5.973
23177WAT     H169773   1.187   7.799   5.997
23177WAT     H269774   1.067   7.895   6.053
23178WAT      O69775   2.805   2.070   8.378
23178WAT     H169776   2.885   2.111   8.335
23178WAT     H269777   2.821   2.059   8.476
23179WAT      O69778   8.917   0.462   7.282
23179WAT     H169779   8.969   0.410   7.214
23179WAT     H269780   8.824   0.477   7.249
23180WAT      O69781   5.193   2.795   0.038
23180WAT     H169782   5.123   2.765  -0.027
23180WAT     H269783   5.152   2.860   0.103
23181WAT      O69784   2.369   1.486   1.801
23181WAT     H169785   2.316   1.538   1.867
23181WAT     H269786   2.436   1.547   1.758
23182WAT      O69787   4.195   4.731   8.338
23182WAT     H169788   4.183   4.636   8.367
23182WAT     H269789   4.185   4.737   8.238
23183WAT      O69790   0.815   6.938   6.250
23183WAT     H169791   0.839   7.035   6.250
23183WAT     H269792   0.898   6.883   6.239
23184WAT      O69793   8.315   2.427   2.172
23184WAT     H169794   8.226   2.433   2.128
23184WAT     H269795   8.380   2.384   2.110
23185WAT      O69796   0.341   6.927   7.889
23185WAT     H169797   0.435   6.897   7.871
23185WAT     H269798   0.287   6.849   7.922
23186WAT      O69799   0.000   8.797   6.305
23186WAT     H169800  -0.066   8.847   6.360
23186WAT     H269801   0.070   8.757   6.366
23187WAT      O69802   2.695   4.894   3.263
23187WAT     H169803   2.625   4.824   3.249
23187WAT     H269804   2.658   4.984   3.240
23188WAT      O69805   1.974   0.620   9.887
23188WAT     H169806   1.942   0.553   9.954
23188WAT     H269807   1.905   0.691   9.876
23189WAT      O69808   1.006   7.173   7.598
23189WAT     H169809   0.930   7.238   7.587
23189WAT     H269810   0.969   7.081   7.612
23190WAT      O69811   4.426   6.135   3.737
23190WAT     H169812   4.467   6.062   3.792
23190WAT     H269813   4.327   6.122   3.733
23191WAT      O69814   8.394   4.872   9.621
23191WAT     H169815   8.341   4.842   9.701
23191WAT     H269816   8.333   4.891   9.545
23192WAT      O69817   9.507   6.573   0.472
23192WAT     H169818   9.565   6.511   0.525
23192WAT     H269819   9.413   6.540   0.472
23193WAT      O69820   2.876   5.118   5.323
23193WAT     H169821   2.802   5.136   5.258
23193WAT     H269822   2.843   5.057   5.395
23194WAT      O69823   6.308   6.354   6.222
23194WAT     H169824   6.297   6.446   6.259
23194WAT     H269825   6.227   6.331   6.168
23195WAT      O69826   0.052   0.748   3.211
23195WAT     H169827   0.030   0.654   3.235
23195WAT     H269828   0.117   0.749   3.135
23196WAT      O69829   7.222   8.285   8.553
23196WAT     H169830   7.319   8.307   8.567
23196WAT     H269831   7.172   8.300   8.639
23197WAT      O69832   3.241   1.982   2.913
23197WAT     H169833   3.317   1.979   2.849
23197WAT     H269834   3.273   1.956   3.004
23198WAT      O69835   8.251   3.700   4.602
23198WAT     H169836   8.346   3.725   4.623
23198WAT     H269837   8.205   3.778   4.562
23199WAT      O69838   2.312   5.181   6.816
23199WAT     H169839   2.263   5.155   6.732
23199WAT     H269840   2.353   5.099   6.857
23200WAT      O69841   8.920   2.656   8.694
23200WAT     H169842   8.848   2.588   8.679
23200WAT     H269843   8.902   2.736   8.636
23201WAT      O69844   3.673   4.521   0.299
23201WAT     H169845   3.750   4.549   0.241
23201WAT     H269846   3.636   4.601   0.346
23202WAT      O69847   8.799   5.664   4.899
23202WAT     H169848   8.845   5.589   4.851
23202WAT     H269849   8.855   5.747   4.892
23203WAT      O69850   2.555   3.789   5.894
23203WAT     H169851   2.507   3.762   5.810
23203WAT     H269852   2.489   3.794   5.970
23204WAT      O69853   7.921   5.681   5.987
23204WAT     H169854   8.020   5.683   5.999
23204WAT     H269855   7.890   5.587   5.974
23205WAT      O69856   0.849   2.335   5.673
23205WAT     H169857   0.810   2.243   5.666
23205WAT     H269858   0.780   2.398   5.708
23206WAT      O69859   8.005   1.355   7.255
23206WAT     H169860   7.957   1.327   7.338
23206WAT     H269861   8.042   1.275   7.209
23207WAT      O69862   4.672   2.606   1.331
23207WAT     H169863   4.653   2.551   1.413
23207WAT     H269864   4.641   2.556   1.250
23208WAT      O69865   3.713   4.911   1.906
23208WAT     H169866   3.701   4.815   1.928
23208WAT     H269867   3.731   4.963   1.990
23209WAT      O69868   8.451   6.704   2.391
23209WAT     H169869   8.424   6.609   2.381
23209WAT     H269870   8.523   6.725   2.325
23210WAT      O69871   4.735   3.600   3.090
23210WAT     H169872   4.781   3.666   3.150
23210WAT     H269873   4.740   3.509   3.130
23211WAT      O69874   7.735   1.651   2.973
23211WAT     H169875   7.822   1.681   3.010
23211WAT     H269876   7.684   1.600   3.043
23212WAT      O69877   4.329   5.102   9.702
23212WAT     H169878   4.351   5.041   9.778
23212WAT     H269879   4.336   5.053   9.616
23213WAT      O69880   8.493   1.790   9.639
23213WAT     H169881   8.446   1.821   9.722
23213WAT     H269882   8.461   1.698   9.616
23214WAT      O69883   0.441   9.683   2.918
23214WAT     H169884   0.533   9.693   2.956
23214WAT     H269885   0.436   9.730   2.830
23215WAT      O69886   5.380   6.328   7.516
23215WAT     H169887   5.352   6.265   7.587
23215WAT     H269888   5.443   6.282   7.453
23216WAT      O69889   5.464   5.539   8.098
23216WAT     H169890   5.459   5.565   8.194
23216WAT     H269891   5.560   5.537   8.068
23217WAT      O69892   7.810   9.578   4.370
23217WAT     H169893   7.880   9.646   4.348
23217WAT     H269894   7.736   9.585   4.303
23218WAT      O69895   4.189   4.933   6.327
23218WAT     H169896   4.204   4.841   6.291
23218WAT     H269897   4.164   4.994   6.252
23219WAT      O69898   8.716   8.077   3.827
23219WAT     H169899   8.721   8.111   3.733
23219WAT     H269900   8.794   8.109   3.879
23220WAT      O69901   2.546   6.304   2.992
23220WAT     H169902   2.560   6.208   3.018
23220WAT     H269903   2.506   6.354   3.068
23221WAT      O69904   1.516   8.807   6.078
23221WAT     H169905   1.602   8.757   6.081
23221WAT     H269906   1.466   8.783   5.995
23222WAT      O69907   5.240   8.398   0.060
23222WAT     H169908   5.218   8.475  -0.000
23222WAT     H269909   5.234   8.427   0.155
23223WAT      O69910   3.370   7.180   6.743
23223WAT     H169911   3.311   7.112   6.786
23223WAT     H269912   3.395   7.149   6.651
23224WAT      O69913   0.308   2.536   9.014
23224WAT     H169914   0.233   2.583   8.968
23224WAT     H269915   0.271   2.463   9.072
23225WAT      O69916   6.270   5.324   5.331
23225WAT     H169917   6.185   5.300   5.379
23225WAT     H269918   6.320   5.240   5.308
23226WAT      O69919   5.510   7.653   8.662
23226WAT     H169920   5.529   7.612   8.751
23226WAT     H269921   5.580   7.721   8.641
23227WAT      O69922   7.883   1.790   7.705
23227WAT     H169923   7.943   1.733   7.762
23227WAT     H269924   7.937   1.831   7.631
23228WAT      O69925   3.410   2.300   4.549
23228WAT     H169926   3.381   2.231   4.483
23228WAT     H269927   3.371   2.389   4.525
23229WAT      O69928   7.135   3.338   2.531
23229WAT     H169929   7.156   3.247   2.495
23229WAT     H269930   7.175   3.408   2.472
23230WAT      O69931   8.012   3.250   4.915
23230WAT     H169932   7.930   3.242   4.972
23230WAT     H269933   8.013   3.339   4.869
23231WAT      O69934   9.227   8.073   0.538
23231WAT     H169935   9.213   7.978   0.510
23231WAT     H269936   9.193   8.135   0.466
23232WAT      O69937   5.367   9.803   3.625
23232WAT     H169938   5.462   9.773   3.637
23232WAT     H269939   5.316   9.785   3.709
23233WAT      O69940   2.627   0.357   3.381
23233WAT     H169941   2.586   0.358   3.289
23233WAT     H269942   2.583   0.286   3.436
23234WAT      O69943   5.073   3.927   5.338
23234WAT     H169944   5.136   3.963   5.406
23234WAT     H269945   4.979   3.933   5.373
23235WAT      O69946   6.716   2.462   0.854
23235WAT     H169947   6.647   2.407   0.902
23235WAT     H269948   6.673   2.545   0.818
23236WAT      O69949   2.365   5.073   3.686
23236WAT     H169950   2.322   5.010   3.751
23236WAT     H269951   2.461   5.047   3.673
23237WAT      O69952   5.335   1.456   2.224
23237WAT     H169953   5.292   1.392   2.287
23237WAT     H269954   5.265   1.500   2.168
23238WAT      O69955   2.662   4.776   0.095
23238WAT     H169956   2.641   4.848   0.029
23238WAT     H269957   2.760   4.775   0.114
23239WAT      O69958   8.303   7.410   9.669
23239WAT     H169959   8.372   7.397   9.740
23239WAT     H269960   8.273   7.505   9.669
23240WAT      O69961   8.586   0.411   0.679
23240WAT     H169962   8.498   0.366   0.659
23240WAT     H269963   8.624   0.449   0.594
23241WAT      O69964   7.295   8.796   7.289
23241WAT     H169965   7.271   8.885   7.249
23241WAT     H269966   7.290   8.726   7.218
23242WAT      O69967   2.174   2.751   3.988
23242WAT     H169968   2.085   2.762   3.942
23242WAT     H269969   2.199   2.654   3.988
23243WAT      O69970   1.313   6.278   6.732
23243WAT     H169971   1.267   6.189   6.734
23243WAT     H269972   1.391   6.274   6.669
23244WAT      O69973   5.929   7.701   5.698
23244WAT     H169974   5.972   7.614   5.722
23244WAT     H269975   5.902   7.699   5.601
23245WAT      O69976   5.504   2.675   6.574
23245WAT     H169977   5.415   2.633   6.593
23245WAT     H269978   5.577   2.616   6.609
23246WAT      O69979   2.540   1.758   6.604
23246WAT     H169980   2.479   1.822   6.558
23246WAT     H269981   2.486   1.688   6.650
23247WAT      O69982   5.594   3.978   2.606
23247WAT     H169983   5.647   4.040   2.548
23247WAT     H269984   5.497   3.995   2.592
23248WAT      O69985   7.753   7.818   7.387
23248WAT     H169986   7.686   7.888   7.413
23248WAT     H269987   7.718   7.766   7.309
23249WAT      O69988   5.234   1.350   7.354
23249WAT     H169989   5.313   1.289   7.357
23249WAT     H269990   5.179   1.338   7.437
23250WAT      O69991   5.921   4.381   3.830
23250WAT     H169992   5.920   4.481   3.827
23250WAT     H269993   5.993   4.346   3.770
23251WAT      O69994   6.671   4.260   6.018
23251WAT     H169995   6.718   4.270   5.930
23251WAT     H269996   6.592   4.200   6.006
23252WAT      O69997   2.208   9.184   1.021
23252WAT     H169998   2.227   9.234   0.937
23252WAT     H269999   2.113   9.152   1.021
23253WAT      O70000   8.350   2.849   4.505
23253WAT     H170001   8.358   2.924   4.571
23253WAT     H270002   8.441   2.820   4.477
23254WAT      O70003   8.406   3.537   7.056
23254WAT     H170004   8.364   3.619   7.094
23254WAT     H270005   8.427   3.551   6.959
23255WAT      O70006   5.007   0.727   1.164
23255WAT     H170007   4.980   0.810   1.116
23255WAT     H270008   5.070   0.750   1.239
23256WAT      O70009   9.384   2.639   4.548
23256WAT     H170010   9.346   2.570   4.611
23256WAT     H270011   9.483   2.630   4.546
23257WAT      O70012   9.785   3.017   7.161
23257WAT     H170013   9.773   2.930   7.114
23257WAT     H270014   9.695   3.060   7.176
23258WAT      O70015   4.026   7.604   4.210
23258WAT     H170016   3.976   7.684   4.244
23258WAT     H270017   4.087   7.570   4.281
23259WAT      O70018   1.391   9.242   1.974
23259WAT     H170019   1.446   9.321   2.002
23259WAT     H270020   1.388   9.237   1.875
23260WAT      O70021   5.932   5.537   8.953
23260WAT     H170022   5.993   5.468   8.913
23260WAT     H270023   5.966   5.628   8.932
23261WAT      O70024   1.043   9.818   5.398
23261WAT     H170025   1.061   9.900   5.453
23261WAT     H270026   0.984   9.842   5.321
23262WAT      O70027   9.701   4.725   7.644
23262WAT     H170028   9.760   4.647   7.623
23262WAT     H270029   9.758   4.805   7.664
23263WAT      O70030   7.132   1.891   1.706
23263WAT     H170031   7.224   1.910   1.670
23263WAT     H270032   7.080   1.838   1.638
23264WAT      O70033   4.354   4.570   1.570
23264WAT     H170034   4.278   4.546   1.509
23264WAT     H270035   4.419   4.627   1.520
23265WAT      O70036   7.695   4.762   0.014
23265WAT     H170037   7.651   4.773  -0.076
23265WAT     H270038   7.651   4.823   0.080
23266WAT      O70039   3.680   9.158   7.891
23266WAT     H170040   3.690   9.199   7.800
23266WAT     H270041   3.642   9.226   7.954
23267WAT      O70042   7.026   3.996   2.759
23267WAT     H170043   7.074   4.062   2.817
23267WAT     H270044   7.051   3.903   2.788
23268WAT      O70045   8.040   4.324   4.381
23268WAT     H170046   8.052   4.420   4.407
23268WAT     H270047   8.045   4.267   4.463
23269WAT      O70048   5.902   0.630   8.679
23269WAT     H170049   5.896   0.719   8.726
23269WAT     H270050   5.842   0.564   8.724
23270WAT      O70051   5.481   3.755   9.691
23270WAT     H170052   5.463   3.708   9.777
23270WAT     H270053   5.506   3.689   9.621
23271WAT      O70054   9.335   6.077   3.374
23271WAT     H170055   9.288   6.160   3.407
23271WAT     H270056   9.399   6.102   3.302
23272WAT      O70057   2.085   9.792   5.573
23272WAT     H170058   2.126   9.722   5.631
23272WAT     H270059   2.019   9.749   5.511
23273WAT      O70060   0.563   8.870   1.858
23273WAT     H170061   0.488   8.812   1.826
23273WAT     H270062   0.598   8.926   1.783
23274WAT      O70063   5.013   8.576   4.241
23274WAT     H170064   5.020   8.498   4.302
23274WAT     H270065   5.097   8.631   4.247
23275WAT      O70066   8.383   7.266   5.289
23275WAT     H170067   8.293   7.278   5.246
23275WAT     H270068   8.394   7.172   5.320
23276WAT      O70069   0.047   7.013   7.213
23276WAT     H170070  -0.046   7.003   7.177
23276WAT     H270071   0.076   6.927   7.254
23277WAT      O70072   8.983   8.010   0.859
23277WAT     H170073   8.984   7.976   0.953
23277WAT     H270074   9.062   8.069   0.844
23278WAT      O70075   7.741   1.620   2.410
23278WAT     H170076   7.757   1.529   2.373
23278WAT     H270077   7.652   1.654   2.378
23279WAT      O70078   3.864   8.756   9.851
23279WAT     H170079   3.774   8.758   9.806
23279WAT     H270080   3.924   8.822   9.807
23280WAT      O70081   9.085   9.326   9.384
23280WAT     H170082   9.040   9.351   9.470
23280WAT     H270083   9.087   9.405   9.323
23281WAT      O70084   9.261   3.474   7.290
23281WAT     H170085   9.320   3.540   7.244
23281WAT     H270086   9.240   3.398   7.227
23282WAT      O70087   9.095   8.697   3.902
23282WAT     H170088   9.044   8.771   3.859
23282WAT     H270089   9.111   8.624   3.835
23283WAT      O70090   9.004   1.594   6.163
23283WAT     H170091   9.043   1.633   6.247
23283WAT     H270092   9.054   1.511   6.139
23284WAT      O70093   9.534   4.865   1.776
23284WAT     H170094   9.582   4.841   1.860
23284WAT     H270095   9.532   4.965   1.766
23285WAT      O70096   2.422   2.893   2.415
23285WAT     H170097   2.496   2.945   2.372
23285WAT     H270098   2.408   2.928   2.508
23286WAT      O70099   3.032   6.810   7.970
23286WAT     H170100   2.950   6.764   8.004
23286WAT     H270101   3.079   6.750   7.906
23287WAT      O70102   3.901   9.416   2.654
23287WAT     H170103   3.853   9.358   2.721
23287WAT     H270104   3.994   9.382   2.642
23288WAT      O70105   2.840   0.312   6.932
23288WAT     H170106   2.884   0.393   6.969
23288WAT     H270107   2.741   0.320   6.942
23289WAT      O70108   6.585   1.336   0.497
23289WAT     H170109   6.636   1.419   0.522
23289WAT     H270110   6.633   1.288   0.424
23290WAT      O70111   9.126   6.152   6.863
23290WAT     H170112   9.037   6.198   6.861
23290WAT     H270113   9.172   6.175   6.949
23291WAT      O70114   4.665   7.375   4.041
23291WAT     H170115   4.611   7.370   3.956
23291WAT     H270116   4.688   7.282   4.070
23292WAT      O70117   2.202   0.492   0.804
23292WAT     H170118   2.173   0.420   0.741
23292WAT     H270119   2.300   0.510   0.792
23293WAT      O70120   4.763   4.009   2.730
23293WAT     H170121   4.862   3.995   2.725
23293WAT     H270122   4.738   4.093   2.681
23294WAT      O70123   0.789   4.100   0.650
23294WAT     H170124   0.840   4.144   0.724
23294WAT     H270125   0.843   4.025   0.611
23295WAT      O70126   3.935   7.451   8.831
23295WAT     H170127   4.024   7.434   8.873
23295WAT     H270128   3.918   7.383   8.760
23296WAT      O70129   0.327   0.897   6.864
23296WAT     H170130   0.378   0.965   6.811
23296WAT     H270131   0.382   0.865   6.941
23297WAT      O70132   4.410   3.601   1.319
23297WAT     H170133   4.479   3.659   1.277
23297WAT     H270134   4.366   3.544   1.250
23298WAT      O70135   5.682   6.299   5.272
23298WAT     H170136   5.645   6.389   5.248
23298WAT     H270137   5.782   6.303   5.268
23299WAT      O70138   7.558   9.802   3.281
23299WAT     H170139   7.531   9.896   3.299
23299WAT     H270140   7.653   9.788   3.311
23300WAT      O70141   2.242   1.801   8.023
23300WAT     H170142   2.248   1.835   7.929
23300WAT     H270143   2.168   1.734   8.030
23301WAT      O70144   8.313   8.558   5.137
23301WAT     H170145   8.256   8.508   5.072
23301WAT     H270146   8.294   8.656   5.130
23302WAT      O70147   7.121   8.713   1.226
23302WAT     H170148   7.039   8.768   1.239
23302WAT     H270149   7.165   8.696   1.314
23303WAT      O70150   2.976   2.799   6.997
23303WAT     H170151   2.982   2.869   7.069
23303WAT     H270152   2.908   2.827   6.929
23304WAT      O70153   4.750   4.338   0.650
23304WAT     H170154   4.704   4.319   0.564
23304WAT     H270155   4.808   4.260   0.675
23305WAT      O70156   5.523   8.885   4.323
23305WAT     H170157   5.431   8.915   4.300
23305WAT     H270158   5.574   8.865   4.240
23306WAT      O70159   5.484   0.550   5.378
23306WAT     H170160   5.434   0.578   5.297
23306WAT     H270161   5.548   0.622   5.405
23307WAT      O70162   6.093   7.874   3.680
23307WAT     H170163   6.005   7.854   3.723
23307WAT     H270164   6.105   7.973   3.671
23308WAT      O70165   8.302   7.090   7.951
23308WAT     H170166   8.340   7.004   7.918
23308WAT     H270167   8.216   7.072   7.999
23309WAT      O70168   5.782   9.197   1.454
23309WAT     H170169   5.835   9.186   1.370
23309WAT     H270170   5.771   9.294   1.475
23310WAT      O70171   6.856   0.734   0.056
23310WAT     H170172   6.940   0.777   0.021
23310WAT     H270173   6.851   0.746   0.155
23311WAT      O70174   3.771   4.213   7.421
23311WAT     H170175   3.836   4.137   7.410
23311WAT     H270176   3.703   4.190   7.490
23312WAT      O70177   8.950   5.330   7.822
23312WAT     H170178   9.008   5.298   7.747
23312WAT     H270179   8.999   5.317   7.909
23313WAT      O70180   3.282   6.479   3.870
23313WAT     H170181   3.370   6.523   3.851
23313WAT     H270182   3.216   6.548   3.901
23314WAT      O70183   6.026   3.357   4.909
23314WAT     H170184   6.007   3.259   4.897
23314WAT     H270185   5.959   3.396   4.973
23315WAT      O70186   2.217   7.968   1.860
23315WAT     H170187   2.243   8.021   1.940
23315WAT     H270188   2.273   7.885   1.855
23316WAT      O70189   8.999   3.913   4.158
23316WAT     H170190   8.969   3.851   4.230
23316WAT     H270191   8.958   4.003   4.172
23317WAT      O70192   4.863   1.105   1.698
23317WAT     H170193   4.776   1.059   1.676
23317WAT     H270194   4.901   1.066   1.782
23318WAT      O70195   9.089   6.733   0.683
23318WAT     H170196   9.116   6.660   0.746
23318WAT     H270197   8.996   6.763   0.705
23319WAT      O70198   1.260   7.233   2.357
23319WAT     H170199   1.178   7.264   2.406
23319WAT     H270200   1.342   7.263   2.407
23320WAT      O70201   9.358   5.252   6.793
23320WAT     H170202   9.435   5.188   6.786
23320WAT     H270203   9.282   5.219   6.737
23321WAT      O70204   8.415   9.592   3.481
23321WAT     H170205   8.411   9.528   3.403
23321WAT     H270206   8.480   9.558   3.548
23322WAT      O70207   1.511   9.421   6.464
23322WAT     H170208   1.559   9.507   6.483
23322WAT     H270209   1.502   9.368   6.548
23323WAT      O70210   2.748   5.091   1.111
23323WAT     H170211   2.806   5.022   1.068
23323WAT     H270212   2.721   5.159   1.043
23324WAT      O70213   4.583   3.553   8.657
23324WAT     H170214   4.573   3.455   8.669
23324WAT     H270215   4.672   3.583   8.691
23325WAT      O70216   4.056   3.902   9.651
23325WAT     H170217   4.055   3.995   9.688
23325WAT     H270218   4.149   3.877   9.625
23326WAT      O70219   2.344   3.582   3.887
23326WAT     H170220   2.284   3.502   3.894
23326WAT     H270221   2.373   3.595   3.792
23327WAT      O70222   7.979   2.350   3.011
23327WAT     H170223   7.927   2.308   2.937
23327WAT     H270224   7.980   2.290   3.090
23328WAT      O70225   5.793   0.034   1.835
23328WAT     H170226   5.780   0.104   1.765
23328WAT     H270227   5.754   0.065   1.922
23329WAT      O70228   7.720   6.242   0.839
23329WAT     H170229   7.799   6.252   0.899
23329WAT     H270230   7.751   6.221   0.746
23330WAT      O70231   3.409   5.317   0.207
23330WAT     H170232   3.505   5.299   0.228
23330WAT     H270233   3.402   5.391   0.141
23331WAT      O70234   9.475   1.844   2.054
23331WAT     H170235   9.457   1.920   1.992
23331WAT     H270236   9.507   1.765   2.002
23332WAT      O70237   1.743   7.332   0.546
23332WAT     H170238   1.773   7.245   0.508
23332WAT     H270239   1.746   7.327   0.646
23333WAT      O70240   7.033   9.027   7.837
23333WAT     H170241   6.951   8.977   7.808
23333WAT     H270242   7.011   9.088   7.913
23334WAT      O70243   4.250   5.909   2.754
23334WAT     H170244   4.313   5.986   2.765
23334WAT     H270245   4.228   5.898   2.657
23335WAT      O70246   2.488   9.420   0.390
23335WAT     H170247   2.524   9.433   0.482
23335WAT     H270248   2.389   9.407   0.394
23336WAT      O70249   1.937   2.743   3.847
23336WAT     H170250   1.961   2.724   3.752
23336WAT     H270251   1.851   2.794   3.850
23337WAT      O70252   1.604   0.927   6.241
23337WAT     H170253   1.586   0.898   6.146
23337WAT     H270254   1.702   0.924   6.259
23338WAT      O70255   0.095   8.079   4.016
23338WAT     H170256   0.054   8.096   4.106
23338WAT     H270257   0.184   8.034   4.028
23339WAT      O70258   8.419   6.371   8.807
23339WAT     H170259   8.468   6.358   8.721
23339WAT     H270260   8.483   6.401   8.877
23340WAT      O70261   7.975   0.592   5.486
23340WAT     H170262   7.898   0.572   5.425
23340WAT     H270263   8.050   0.632   5.433
23341WAT      O70264   5.492   8.278   1.885
23341WAT     H170265   5.407   8.318   1.850
23341WAT     H270266   5.497   8.294   1.984
23342WAT      O70267   6.832   5.795   6.286
23342WAT     H170268   6.865   5.764   6.197
23342WAT     H270269   6.740   5.760   6.302
23343WAT      O70270   5.443   0.635   5.909
23343WAT     H170271   5.446   0.665   5.814
23343WAT     H270272   5.500   0.695   5.965
23344WAT      O70273   2.657   6.203   6.395
23344WAT     H170274   2.661   6.121   6.338
23344WAT     H270275   2.645   6.177   6.491
23345WAT      O70276   6.325   7.582   0.489
23345WAT     H170277   6.274   7.666   0.468
23345WAT     H270278   6.413   7.607   0.529
23346WAT      O70279   0.975   8.647   7.206
23346WAT     H170280   1.026   8.732   7.192
23346WAT     H270281   0.909   8.660   7.280
23347WAT      O70282   4.615   1.644   4.131
23347WAT     H170283   4.629   1.735   4.170
23347WAT     H270284   4.683   1.627   4.060
23348WAT      O70285   7.196   1.464   7.158
23348WAT     H170286   7.120   1.423   7.207
23348WAT     H270287   7.208   1.418   7.070
23349WAT      O70288   8.548   3.812   6.013
23349WAT     H170289   8.538   3.862   6.099
23349WAT     H270290   8.474   3.838   5.951
23350WAT      O70291   1.667   5.575   1.587
23350WAT     H170292   1.714   5.519   1.655
23350WAT     H270293   1.732   5.638   1.545
23351WAT      O70294   7.731   4.473   9.139
23351WAT     H170295   7.780   4.548   9.093
23351WAT     H270296   7.656   4.442   9.081
23352WAT      O70297   1.508   6.433   4.088
23352WAT     H170298   1.420   6.390   4.067
23352WAT     H270299   1.552   6.463   4.003
23353WAT      O70300   6.227   4.059   1.919
23353WAT     H170301   6.291   3.991   1.882
23353WAT     H270302   6.252   4.081   2.013
23354WAT      O70303   8.051   6.732   5.341
23354WAT     H170304   8.053   6.648   5.395
23354WAT     H270305   7.964   6.738   5.291
23355WAT      O70306   2.138   7.895   6.661
23355WAT     H170307   2.160   7.902   6.758
23355WAT     H270308   2.184   7.967   6.610
23356WAT      O70309   1.657   2.018   2.722
23356WAT     H170310   1.668   1.935   2.667
23356WAT     H270311   1.561   2.030   2.745
23357WAT      O70312   0.317   2.789   7.154
23357WAT     H170313   0.357   2.879   7.167
23357WAT     H270314   0.278   2.782   7.062
23358WAT      O70315   5.629   7.384   8.134
23358WAT     H170316   5.586   7.427   8.213
23358WAT     H270317   5.576   7.304   8.107
23359WAT      O70318   3.524   1.271   9.883
23359WAT     H170319   3.487   1.250   9.974
23359WAT     H270320   3.596   1.206   9.861
23360WAT      O70321   6.875   3.357   2.620
23360WAT     H170322   6.871   3.312   2.709
23360WAT     H270323   6.958   3.329   2.573
23361WAT      O70324   9.852   8.994   4.863
23361WAT     H170325   9.948   8.968   4.873
23361WAT     H270326   9.830   9.067   4.928
23362WAT      O70327   6.953   0.032   5.070
23362WAT     H170328   6.961   0.045   5.169
23362WAT     H270329   6.960   0.121   5.024
23363WAT      O70330   1.168   4.120   2.750
23363WAT     H170331   1.234   4.174   2.699
23363WAT     H270332   1.215   4.067   2.821
23364WAT      O70333   5.887   3.443   0.665
23364WAT     H170334   5.979   3.461   0.698
23364WAT     H270335   5.868   3.345   0.670
23365WAT      O70336   9.480   8.181   1.441
23365WAT     H170337   9.561   8.225   1.404
23365WAT     H270338   9.504   8.127   1.522
23366WAT      O70339   5.204   9.547   6.074
23366WAT     H170340   5.265   9.560   5.996
23366WAT     H270341   5.114   9.516   6.042
23367WAT      O70342   3.171   5.464   5.780
23367WAT     H170343   3.083   5.422   5.802
23367WAT     H270344   3.170   5.560   5.806
23368WAT      O70345   0.223   7.901   0.138
23368WAT     H170346   0.263   7.865   0.053
23368WAT     H270347   0.149   7.964   0.116
23369WAT      O70348   9.525   0.075   2.125
23369WAT     H170349   9.535  -0.004   2.065
23369WAT     H270350   9.524   0.045   2.220
23370WAT      O70351   6.076   1.025   9.060
23370WAT     H170352   5.986   0.985   9.079
23370WAT     H270353   6.085   1.044   8.962
23371WAT      O70354   7.800   0.519   2.723
23371WAT     H170355   7.871   0.506   2.793
23371WAT     H270356   7.843   0.551   2.638
23372WAT      O70357   8.248   0.056   9.594
23372WAT     H170358   8.231   0.019   9.685
23372WAT     H270359   8.343   0.088   9.589
23373WAT      O70360   3.183   5.570   6.983
23373WAT     H170361   3.175   5.667   6.959
23373WAT     H270362   3.248   5.526   6.921
23374WAT      O70363   1.975   6.962   5.221
23374WAT     H170364   2.051   7.019   5.192
23374WAT     H270365   1.971   6.958   5.321
23375WAT      O70366   0.391   2.120   3.272
23375WAT     H170367   0.336   2.097   3.352
23375WAT     H270368   0.421   2.216   3.278
23376WAT      O70369   2.129   0.713   2.986
23376WAT     H170370   2.157   0.794   3.037
23376WAT     H270371   2.208   0.674   2.939
23377WAT      O70372   6.194   1.179   1.535
23377WAT     H170373   6.245   1.150   1.616
23377WAT     H270374   6.146   1.101   1.496
23378WAT      O70375   2.127   6.073   5.612
23378WAT     H170376   2.222   6.044   5.600
23378WAT     H270377   2.112   6.159   5.564
23379WAT      O70378   6.810   9.825   8.355
23379WAT     H170379   6.852   9.734   8.354
23379WAT     H270380   6.815   9.865   8.264
23380WAT      O70381   8.868   5.801   8.019
23380WAT     H170382   8.958   5.782   8.058
23380WAT     H270383   8.846   5.732   7.951
23381WAT      O70384   2.073   4.065   4.295
23381WAT     H170385   2.080   4.132   4.369
23381WAT     H270386   2.049   4.111   4.210
23382WAT      O70387   3.028   1.016   1.512
23382WAT     H170388   3.016   1.115   1.526
23382WAT     H270389   3.090   1.000   1.436
23383WAT      O70390   8.719   2.301   3.149
23383WAT     H170391   8.732   2.290   3.248
23383WAT     H270392   8.808   2.297   3.103
23384WAT      O70393   8.490   3.753   6.456
23384WAT     H170394   8.543   3.669   6.445
23384WAT     H270395   8.508   3.792   6.547
23385WAT      O70396   5.579   8.155   0.758
23385WAT     H170397   5.600   8.069   0.804
23385WAT     H270398   5.625   8.230   0.806
23386WAT      O70399   7.181   0.954   1.332
23386WAT     H170400   7.124   0.961   1.414
23386WAT     H270401   7.277   0.948   1.358
23387WAT      O70402   7.927   9.224   7.046
23387WAT     H170403   7.926   9.191   7.140
23387WAT     H270404   8.000   9.292   7.035
23388WAT      O70405   7.898   3.881   1.313
23388WAT     H170406   7.985   3.873   1.361
23388WAT     H270407   7.901   3.828   1.228
23389WAT      O70408   8.826   8.771   9.377
23389WAT     H170409   8.775   8.710   9.317
23389WAT     H270410   8.913   8.795   9.334
23390WAT      O70411   4.071   0.422   8.693
23390WAT     H170412   4.158   0.379   8.671
23390WAT     H270413   4.014   0.425   8.610
23391WAT      O70414   7.276   2.838   1.909
23391WAT     H170415   7.320   2.751   1.933
23391WAT     H270416   7.308   2.868   1.819
23392WAT      O70417   7.748   8.245   8.549
23392WAT     H170418   7.831   8.212   8.503
23392WAT     H270419   7.710   8.172   8.606
23393WAT      O70420   7.503   9.053   9.793
23393WAT     H170421   7.578   9.120   9.794
23393WAT     H270422   7.539   8.964   9.766
23394WAT      O70423   8.402   8.331   7.635
23394WAT     H170424   8.400   8.239   7.596
23394WAT     H270425   8.461   8.332   7.716
23395WAT      O70426   4.155   0.045   7.458
23395WAT     H170427   4.242   0.086   7.430
23395WAT     H270428   4.084   0.116   7.461
23396WAT      O70429   1.660   9.763   8.701
23396WAT     H170430   1.561   9.779   8.693
23396WAT     H270431   1.709   9.847   8.680
23397WAT      O70432   1.969   0.860   3.833
23397WAT     H170433   1.973   0.950   3.877
23397WAT     H270434   1.879   0.820   3.848
23398WAT      O70435   4.331   6.463   1.064
23398WAT     H170436   4.257   6.428   1.006
23398WAT     H270437   4.419   6.434   1.026
23399WAT      O70438   4.140   7.425   8.498
23399WAT     H170439   4.095   7.474   8.423
23399WAT     H270440   4.189   7.346   8.461
23400WAT      O70441   4.798   7.098   1.143
23400WAT     H170442   4.834   7.045   1.220
23400WAT     H270443   4.826   7.194   1.154
23401WAT      O70444   0.906   1.350   9.214
23401WAT     H170445   0.877   1.309   9.127
23401WAT     H270446   0.848   1.429   9.234
23402WAT      O70447   4.255   4.014   8.977
23402WAT     H170448   4.318   4.078   9.021
23402WAT     H270449   4.307   3.952   8.918
23403WAT      O70450   6.787   3.988   8.934
23403WAT     H170451   6.768   4.050   9.010
23403WAT     H270452   6.718   4.001   8.863
23404WAT      O70453   7.404   0.522   7.073
23404WAT     H170454   7.357   0.598   7.118
23404WAT     H270455   7.477   0.557   7.015
23405WAT      O70456   8.247   8.251   1.006
23405WAT     H170457   8.338   8.271   0.970
23405WAT     H270458   8.184   8.233   0.931
23406WAT      O70459   7.137   1.558   8.514
23406WAT     H170460   7.198   1.539   8.591
23406WAT     H270461   7.051   1.507   8.527
23407WAT      O70462   8.813   0.190   7.145
23407WAT     H170463   8.787   0.271   7.094
23407WAT     H270464   8.752   0.178   7.223
23408WAT      O70465   2.841   7.498   8.830
23408WAT     H170466   2.791   7.473   8.747
23408WAT     H270467   2.776   7.516   8.904
23409WAT      O70468   7.071   8.302   3.200
23409WAT     H170469   7.000   8.238   3.227
23409WAT     H270470   7.047   8.344   3.113
23410WAT      O70471   4.641   9.375   0.937
23410WAT     H170472   4.715   9.442   0.950
23410WAT     H270473   4.557   9.423   0.913
23411WAT      O70474   5.263   5.750   6.668
23411WAT     H170475   5.179   5.765   6.719
23411WAT     H270476   5.342   5.763   6.729
23412WAT      O70477   6.348   1.565   8.743
23412WAT     H170478   6.438   1.530   8.717
23412WAT     H270479   6.321   1.526   8.831
23413WAT      O70480   9.346   6.263   9.375
23413WAT     H170481   9.337   6.164   9.372
23413WAT     H270482   9.391   6.291   9.460
23414WAT      O70483   3.504   8.535   3.247
23414WAT     H170484   3.469   8.446   3.217
23414WAT     H270485   3.600   8.543   3.222
23415WAT      O70486   1.567   5.651   2.585
23415WAT     H170487   1.508   5.729   2.564
23415WAT     H270488   1.619   5.669   2.668
23416WAT      O70489   4.554   0.098   2.563
23416WAT     H170490   4.603   0.171   2.610
23416WAT     H270491   4.619   0.043   2.510
23417WAT      O70492   3.911   5.597   0.464
23417WAT     H170493   3.933   5.641   0.551
23417WAT     H270494   3.983   5.531   0.441
23418WAT      O70495   2.728   9.308   4.131
23418WAT     H170496   2.816   9.324   4.176
23418WAT     H270497   2.742   9.255   4.048
23419WAT      O70498   6.424   6.378   7.200
23419WAT     H170499   6.465   6.451   7.144
23419WAT     H270500   6.327   6.371   7.179
23420WAT      O70501   8.336   6.759   8.264
23420WAT     H170502   8.344   6.853   8.296
23420WAT     H270503   8.380   6.750   8.175
23421WAT      O70504   7.170   3.640   0.206
23421WAT     H170505   7.240   3.612   0.272
23421WAT     H270506   7.082   3.646   0.253
23422WAT      O70507   6.856   9.265   7.208
23422WAT     H170508   6.855   9.300   7.301
23422WAT     H270509   6.918   9.321   7.153
23423WAT      O70510   1.143   9.610   1.529
23423WAT     H170511   1.116   9.604   1.433
23423WAT     H270512   1.132   9.520   1.572
23424WAT      O70513   2.642   1.344   5.076
23424WAT     H170514   2.606   1.352   5.169
23424WAT     H270515   2.738   1.372   5.076
23425WAT      O70516   0.978   1.369   7.103
23425WAT     H170517   1.034   1.413   7.033
23425WAT     H270518   0.948   1.437   7.170
23426WAT      O70519   4.391   3.331   6.063
23426WAT     H170520   4.417   3.264   5.993
23426WAT     H270521   4.456   3.328   6.139
23427WAT      O70522   9.325   5.083   4.037
23427WAT     H170523   9.416   5.073   4.076
23427WAT     H270524   9.263   5.119   4.107
23428WAT      O70525   6.454   8.213   6.939
23428WAT     H170526   6.525   8.142   6.946
23428WAT     H270527   6.375   8.187   6.994
23429WAT      O70528   0.285   5.404   0.169
23429WAT     H170529   0.339   5.453   0.100
23429WAT     H270530   0.210   5.355   0.123
23430WAT      O70531   2.974   7.791   8.647
23430WAT     H170532   3.009   7.744   8.566
23430WAT     H270533   3.046   7.798   8.716
23431WAT      O70534   2.948   0.998   7.154
23431WAT     H170535   2.984   1.016   7.246
23431WAT     H270536   2.915   0.903   7.150
23432WAT      O70537   1.024   2.128   7.285
23432WAT     H170538   0.945   2.067   7.295
23432WAT     H270539   1.047   2.169   7.374
23433WAT      O70540   1.102   5.099   7.365
23433WAT     H170541   1.096   5.002   7.386
23433WAT     H270542   1.130   5.149   7.447
23434WAT      O70543   5.592   8.293   7.026
23434WAT     H170544   5.663   8.278   6.957
23434WAT     H270545   5.620   8.366   7.088
23435WAT      O70546   6.484   8.738   7.797
23435WAT     H170547   6.428   8.821   7.804
23435WAT     H270548   6.562   8.744   7.858
23436WAT      O70549   8.580   1.962   1.531
23436WAT     H170550   8.547   2.055   1.543
23436WAT     H270551   8.661   1.963   1.472
23437WAT      O70552   9.663   1.719   0.324
23437WAT     H170553   9.665   1.809   0.368
23437WAT     H270554   9.635   1.650   0.390
23438WAT      O70555   5.502   3.513   1.221
23438WAT     H170556   5.589   3.562   1.208
23438WAT     H270557   5.435   3.574   1.263
23439WAT      O70558   8.180   5.894   3.811
23439WAT     H170559   8.232   5.874   3.728
23439WAT     H270560   8.085   5.865   3.800
23440WAT      O70561   8.366   1.462   9.183
23440WAT     H170562   8.389   1.365   9.173
23440WAT     H270563   8.317   1.475   9.270
23441WAT      O70564   6.451   3.640   0.888
23441WAT     H170565   6.469   3.596   0.977
23441WAT     H270566   6.355   3.627   0.864
23442WAT      O70567   0.272   3.333   8.541
23442WAT     H170568   0.192   3.274   8.537
23442WAT     H270569   0.265   3.393   8.620
23443WAT      O70570   2.356   2.860   1.855
23443WAT     H170571   2.305   2.941   1.885
23443WAT     H270572   2.375   2.801   1.933
23444WAT      O70573   6.940   2.392   2.715
23444WAT     H170574   7.024   2.367   2.762
23444WAT     H270575   6.867   2.328   2.743
23445WAT      O70576   0.865   3.877   0.923
23445WAT     H170577   0.890   3.972   0.944
23445WAT     H270578   0.766   3.866   0.928
23446WAT      O70579   0.882   8.420   4.346
23446WAT     H170580   0.949   8.355   4.309
23446WAT     H270581   0.908   8.513   4.320
23447WAT      O70582   5.715   3.160   9.668
23447WAT     H170583   5.799   3.211   9.652
23447WAT     H270584   5.737   3.069   9.703
23448WAT      O70585   2.941   9.349   3.883
23448WAT     H170586   3.011   9.419   3.899
23448WAT     H270587   2.891   9.370   3.799
23449WAT      O70588   5.852   7.414   3.533
23449WAT     H170589   5.912   7.391   3.610
23449WAT     H270590   5.846   7.513   3.524
23450WAT      O70591   3.210   4.593   6.767
23450WAT     H170592   3.124   4.548   6.741
23450WAT     H270593   3.212   4.686   6.731
23451WAT      O70594   1.146   4.296   0.644
23451WAT     H170595   1.081   4.300   0.719
23451WAT     H270596   1.100   4.261   0.562
23452WAT      O70597   2.660   3.741   7.674
23452WAT     H170598   2.565   3.722   7.696
23452WAT     H270599   2.714   3.658   7.686
23453WAT      O70600   6.822   5.987   2.016
23453WAT     H170601   6.828   5.950   2.109
23453WAT     H270602   6.752   6.058   2.012
23454WAT      O70603   8.102   2.126   5.869
23454WAT     H170604   8.133   2.213   5.905
23454WAT     H270605   8.075   2.137   5.773
23455WAT      O70606   4.929   5.946   3.933
23455WAT     H170607   5.001   5.921   3.997
23455WAT     H270608   4.870   5.867   3.916
23456WAT      O70609   6.584   9.451   5.656
23456WAT     H170610   6.492   9.418   5.637
23456WAT     H270611   6.579   9.545   5.690
23457WAT      O70612   9.274   4.861   3.886
23457WAT     H170613   9.212   4.887   3.812
23457WAT     H270614   9.296   4.943   3.940
23458WAT      O70615   6.029   3.597   4.042
23458WAT     H170616   5.973   3.565   3.966
23458WAT     H270617   5.979   3.582   4.128
23459WAT      O70618   9.097   8.787   9.350
23459WAT     H170619   9.182   8.752   9.388
23459WAT     H270620   9.115   8.830   9.261
23460WAT      O70621   0.371   9.435   0.353
23460WAT     H170622   0.287   9.468   0.310
23460WAT     H270623   0.437   9.510   0.360
23461WAT      O70624   4.542   6.257   7.272
23461WAT     H170625   4.532   6.300   7.182
23461WAT     H270626   4.639   6.254   7.296
23462WAT      O70627   0.011   2.270   3.073
23462WAT     H170628  -0.019   2.207   3.002
23462WAT     H270629  -0.041   2.354   3.068
23463WAT      O70630   7.007   2.904   1.424
23463WAT     H170631   6.987   2.809   1.451
23463WAT     H270632   6.963   2.924   1.337
23464WAT      O70633   7.214   5.257   6.504
23464WAT     H170634   7.218   5.160   6.529
23464WAT     H270635   7.144   5.302   6.558
23465WAT      O70636   2.203   4.946   3.511
23465WAT     H170637   2.271   4.987   3.572
23465WAT     H270638   2.213   4.984   3.419
23466WAT      O70639   1.378   7.133   9.216
23466WAT     H170640   1.368   7.139   9.315
23466WAT     H270641   1.306   7.185   9.171
23467WAT      O70642   9.112   9.755   6.219
23467WAT     H170643   9.023   9.715   6.241
23467WAT     H270644   9.169   9.755   6.301
23468WAT      O70645   0.825   2.181   1.077
23468WAT     H170646   0.802   2.089   1.047
23468WAT     H270647   0.831   2.241   0.997
23469WAT      O70648   0.674   5.276   5.157
23469WAT     H170649   0.593   5.223   5.134
23469WAT     H270650   0.751   5.246   5.101
23470WAT      O70651   0.201   4.249   1.387
23470WAT     H170652   0.260   4.178   1.348
23470WAT     H270653   0.124   4.205   1.435
23471WAT      O70654   0.345   7.176   9.132
23471WAT     H170655   0.444   7.176   9.141
23471WAT     H270656   0.303   7.161   9.222
23472WAT      O70657   2.615   0.969   1.173
23472WAT     H170658   2.520   0.956   1.201
23472WAT     H270659   2.617   1.012   1.082
23473WAT      O70660   1.638   9.050   5.978
23473WAT     H170661   1.671   9.028   5.887
23473WAT     H270662   1.628   8.966   6.032
23474WAT      O70663   7.813   2.370   1.310
23474WAT     H170664   7.834   2.302   1.381
23474WAT     H270665   7.898   2.401   1.267
23475WAT      O70666   7.878   9.257   6.774
23475WAT     H170667   7.907   9.199   6.850
23475WAT     H270668   7.781   9.241   6.755
23476WAT      O70669   4.912   1.926   6.720
23476WAT     H170670   4.814   1.929   6.737
23476WAT     H270671   4.947   1.835   6.742
23477WAT      O70672   4.156   6.459   4.509
23477WAT     H170673   4.062   6.456   4.475
23477WAT     H270674   4.157   6.501   4.600
23478WAT      O70675   4.341   7.956   6.998
23478WAT     H170676   4.362   7.918   7.088
23478WAT     H270677   4.426   7.973   6.948
23479WAT      O70678   7.962   5.356   6.490
23479WAT     H170679   8.033   5.421   6.464
23479WAT     H270680   7.920   5.385   6.576
23480WAT      O70681   4.705   4.787   0.125
23480WAT     H170682   4.691   4.727   0.047
23480WAT     H270683   4.782   4.848   0.107
23481WAT      O70684   0.368   0.742   2.294
23481WAT     H170685   0.280   0.773   2.260
23481WAT     H270686   0.357   0.706   2.387
23482WAT      O70687   7.511   3.748   4.823
23482WAT     H170688   7.542   3.808   4.896
23482WAT     H270689   7.414   3.766   4.804
23483WAT      O70690   0.333   8.855   5.550
23483WAT     H170691   0.399   8.928   5.564
23483WAT     H270692   0.365   8.795   5.477
23484WAT      O70693   9.731   7.695   3.587
23484WAT     H170694   9.805   7.762   3.591
23484WAT     H270695   9.769   7.603   3.589
23485WAT      O70696   3.719   7.934   0.637
23485WAT     H170697   3.643   7.888   0.683
23485WAT     H270698   3.705   7.928   0.538
23486WAT      O70699   9.385   2.841   1.229
23486WAT     H170700   9.448   2.918   1.239
23486WAT     H270701   9.409   2.771   1.297
23487WAT      O70702   6.909   5.560   7.539
23487WAT     H170703   6.979   5.489   7.535
23487WAT     H270704   6.822   5.523   7.507
23488WAT      O70705   7.486   1.331   6.058
23488WAT     H170706   7.435   1.415   6.077
23488WAT     H270707   7.583   1.352   6.049
23489WAT      O70708   0.202   3.296   6.865
23489WAT     H170709   0.229   3.378   6.917
23489WAT     H270710   0.133   3.321   6.797
23490WAT      O70711   5.013   2.929   4.441
23490WAT     H170712   4.981   2.987   4.365
23490WAT     H270713   5.107   2.900   4.424
23491WAT      O70714   4.903   0.498   1.235
23491WAT     H170715   4.822   0.524   1.288
23491WAT     H270716   4.947   0.581   1.199
23492WAT      O70717   8.395   4.206   9.853
23492WAT     H170718   8.464   4.262   9.898
23492WAT     H270719   8.391   4.116   9.896
23493WAT      O70720   2.245   8.503   2.778
23493WAT     H170721   2.327   8.506   2.835
23493WAT     H270722   2.268   8.531   2.685
23494WAT      O70723   6.450   1.330   7.338
23494WAT     H170724   6.533   1.312   7.391
23494WAT     H270725   6.379   1.365   7.399
23495WAT      O70726   1.119   3.039   3.870
23495WAT     H170727   1.061   3.103   3.819
23495WAT     H270728   1.113   2.949   3.828
23496WAT      O70729   2.646   8.411   0.732
23496WAT     H170730   2.659   8.312   0.735
23496WAT     H270731   2.573   8.433   0.667
23497WAT      O70732   0.395   2.986   9.715
23497WAT     H170733   0.420   2.920   9.786
23497WAT     H270734   0.470   3.052   9.704
23498WAT      O70735   9.193   0.814   6.416
23498WAT     H170736   9.273   0.800   6.474
23498WAT     H270737   9.138   0.731   6.414
23499WAT      O70738   8.526   1.046   9.389
23499WAT     H170739   8.457   1.046   9.461
23499WAT     H270740   8.491   1.098   9.311
23500WAT      O70741   8.373   7.367   7.351
23500WAT     H170742   8.346   7.462   7.336
23500WAT     H270743   8.359   7.343   7.447
23501WAT      O70744   4.543   4.871   6.838
23501WAT     H170745   4.595   4.911   6.762
23501WAT     H270746   4.589   4.891   6.924
23502WAT      O70747   3.832   6.351   5.175
23502WAT     H170748   3.738   6.328   5.153
23502WAT     H270749   3.871   6.407   5.102
23503WAT      O70750   6.536   6.689   8.442
23503WAT     H170751   6.602   6.656   8.510
23503WAT     H270752   6.503   6.612   8.387
23504WAT      O70753   1.954   6.336   2.214
23504WAT     H170754   1.893   6.351   2.136
23504WAT     H270755   2.043   6.306   2.181
23505WAT      O70756   1.360   0.111   3.498
23505WAT     H170757   1.315   0.026   3.472
23505WAT     H270758   1.292   0.181   3.516
23506WAT      O70759   6.861   0.173   3.545
23506WAT     H170760   6.780   0.230   3.532
23506WAT     H270761   6.834   0.080   3.566
23507WAT      O70762   0.145   6.002   0.134
23507WAT     H170763   0.176   6.076   0.074
23507WAT     H270764   0.064   5.960   0.094
23508WAT      O70765   7.035   3.470   3.258
23508WAT     H170766   7.023   3.465   3.159
23508WAT     H270767   7.069   3.382   3.292
23509WAT      O70768   3.815   2.279   4.197
23509WAT     H170769   3.761   2.361   4.175
23509WAT     H270770   3.767   2.198   4.164
23510WAT      O70771   2.281   8.732   6.136
23510WAT     H170772   2.254   8.779   6.052
23510WAT     H270773   2.310   8.639   6.114
23511WAT      O70774   2.508   9.050   4.081
23511WAT     H170775   2.598   9.079   4.050
23511WAT     H270776   2.518   8.983   4.154
23512WAT      O70777   8.280   1.707   7.181
23512WAT     H170778   8.301   1.656   7.264
23512WAT     H270779   8.360   1.709   7.122
23513WAT      O70780   5.429   2.323   6.032
23513WAT     H170781   5.476   2.245   5.989
23513WAT     H270782   5.480   2.352   6.113
23514WAT      O70783   3.098   7.914   9.360
23514WAT     H170784   3.016   7.866   9.390
23514WAT     H270785   3.158   7.931   9.438
23515WAT      O70786   1.381   1.423   9.031
23515WAT     H170787   1.447   1.425   9.106
23515WAT     H270788   1.315   1.349   9.046
23516WAT      O70789   7.447   5.714   1.033
23516WAT     H170790   7.435   5.656   1.114
23516WAT     H270791   7.539   5.751   1.032
23517WAT      O70792   9.472   2.785   6.404
23517WAT     H170793   9.547   2.771   6.339
23517WAT     H270794   9.460   2.883   6.420
23518WAT      O70795   9.366   1.851   7.886
23518WAT     H170796   9.302   1.919   7.923
23518WAT     H270797   9.353   1.764   7.934
23519WAT      O70798   3.622   0.658   7.565
23519WAT     H170799   3.719   0.641   7.579
23519WAT     H270800   3.598   0.747   7.604
23520WAT      O70801   2.952   2.291   9.269
23520WAT     H170802   3.024   2.223   9.260
23520WAT     H270803   2.992   2.379   9.292
23521WAT      O70804   1.374   7.093   3.538
23521WAT     H170805   1.470   7.074   3.556
23521WAT     H270806   1.328   7.120   3.622
23522WAT      O70807   4.419   2.318   5.448
23522WAT     H170808   4.392   2.412   5.472
23522WAT     H270809   4.496   2.322   5.385
23523WAT      O70810   9.263   7.861   4.906
23523WAT     H170811   9.163   7.856   4.909
23523WAT     H270812   9.294   7.871   4.812
23524WAT      O70813   3.647   0.285   9.147
23524WAT     H170814   3.669   0.197   9.104
23524WAT     H270815   3.648   0.357   9.079
23525WAT      O70816   6.808   8.865   8.470
23525WAT     H170817   6.747   8.942   8.450
23525WAT     H270818   6.901   8.900   8.485
23526WAT      O70819   9.117   7.243   5.258
23526WAT     H170820   9.119   7.287   5.348
23526WAT     H270821   9.067   7.301   5.194
23527WAT      O70822   2.549   2.587   5.269
23527WAT     H170823   2.475   2.527   5.299
23527WAT     H270824   2.620   2.532   5.225
23528WAT      O70825   4.876   6.607   7.563
23528WAT     H170826   4.801   6.541   7.566
23528WAT     H270827   4.867   6.665   7.482
23529WAT      O70828   7.908   7.697   8.325
23529WAT     H170829   7.879   7.751   8.246
23529WAT     H270830   8.003   7.720   8.348
23530WAT      O70831   2.412   8.955   9.131
23530WAT     H170832   2.331   8.980   9.077
23530WAT     H270833   2.494   8.982   9.082
23531WAT      O70834   3.060   3.988   1.683
23531WAT     H170835   3.066   4.035   1.595
23531WAT     H270836   3.098   3.896   1.675
23532WAT      O70837   6.231   4.486   0.279
23532WAT     H170838   6.329   4.472   0.294
23532WAT     H270839   6.217   4.539   0.196
23533WAT      O70840   1.178   2.493   3.449
23533WAT     H170841   1.176   2.575   3.506
23533WAT     H270842   1.219   2.418   3.500
23534WAT      O70843   9.322   1.804   9.673
23534WAT     H170844   9.377   1.858   9.736
23534WAT     H270845   9.225   1.823   9.689
23535WAT      O70846   3.073   0.615   2.944
23535WAT     H170847   2.990   0.670   2.954
23535WAT     H270848   3.119   0.606   3.032
23536WAT      O70849   1.289   8.247   8.247
23536WAT     H170850   1.315   8.225   8.341
23536WAT     H270851   1.200   8.206   8.227
23537WAT      O70852   6.280   7.496   8.567
23537WAT     H170853   6.235   7.428   8.624
23537WAT     H270854   6.379   7.493   8.583
23538WAT      O70855   3.757   9.594   0.465
23538WAT     H170856   3.662   9.571   0.445
23538WAT     H270857   3.810   9.511   0.477
23539WAT      O70858   3.200   6.539   4.810
23539WAT     H170859   3.142   6.501   4.882
23539WAT     H270860   3.180   6.636   4.798
23540WAT      O70861   0.660   7.717   6.066
23540WAT     H170862   0.599   7.715   6.145
23540WAT     H270863   0.752   7.746   6.096
23541WAT      O70864   8.010   1.470   5.411
23541WAT     H170865   7.966   1.541   5.466
23541WAT     H270866   8.106   1.495   5.394
23542WAT      O70867   2.836   4.302   3.115
23542WAT     H170868   2.897   4.364   3.164
23542WAT     H270869   2.873   4.285   3.024
23543WAT      O70870   1.050   4.410   1.983
23543WAT     H170871   1.044   4.481   1.912
23543WAT     H270872   1.030   4.451   2.072
23544WAT      O70873   8.330   0.665   4.064
23544WAT     H170874   8.424   0.678   4.098
23544WAT     H270875   8.304   0.569   4.073
23545WAT      O70876   5.995   9.088   4.975
23545WAT     H170877   5.976   8.990   4.964
23545WAT     H270878   5.909   9.139   4.970
23546WAT      O70879   3.180   1.262   7.433
23546WAT     H170880   3.257   1.234   7.491
23546WAT     H270881   3.122   1.183   7.414
23547WAT      O70882   1.605   2.524   4.326
23547WAT     H170883   1.617   2.441   4.272
23547WAT     H270884   1.604   2.501   4.424
23548WAT      O70885   4.093   8.455   2.423
23548WAT     H170886   4.183   8.421   2.453
23548WAT     H270887   4.036   8.473   2.504
23549WAT      O70888   1.773   6.226   5.191
23549WAT     H170889   1.866   6.249   5.219
23549WAT     H270890   1.719   6.200   5.271
23550WAT      O70891   5.214   4.264   4.136
23550WAT     H170892   5.194   4.244   4.232
23550WAT     H270893   5.155   4.339   4.105
23551WAT      O70894   2.701   5.576   1.602
23551WAT     H170895   2.733   5.667   1.575
23551WAT     H270896   2.700   5.569   1.702
23552WAT      O70897   6.337   5.311   4.446
23552WAT     H170898   6.335   5.227   4.501
23552WAT     H270899   6.364   5.388   4.505
23553WAT      O70900   3.317   6.599   1.458
23553WAT     H170901   3.249   6.661   1.497
23553WAT     H270902   3.408   6.624   1.492
23554WAT      O70903   4.075   0.814   6.704
23554WAT     H170904   4.141   0.745   6.733
23554WAT     H270905   4.096   0.842   6.610
23555WAT      O70906   9.464   6.215   2.255
23555WAT     H170907   9.458   6.116   2.246
23555WAT     H270908   9.435   6.242   2.347
23556WAT      O70909   7.430   8.594   7.423
23556WAT     H170910   7.516   8.548   7.404
23556WAT     H270911   7.407   8.656   7.349
23557WAT      O70912   6.005   8.555   1.385
23557WAT     H170913   5.916   8.545   1.431
23557WAT     H270914   6.073   8.585   1.451
23558WAT      O70915   9.659   5.673   3.300
23558WAT     H170916   9.589   5.718   3.354
23558WAT     H270917   9.745   5.671   3.351
23559WAT      O70918   4.525   9.634   8.837
23559WAT     H170919   4.539   9.649   8.935
23559WAT     H270920   4.486   9.543   8.822
23560WAT      O70921   3.726   5.115   6.614
23560WAT     H170922   3.809   5.085   6.567
23560WAT     H270923   3.749   5.149   6.705
23561WAT      O70924   2.345   6.703   2.535
23561WAT     H170925   2.354   6.791   2.488
23561WAT     H270926   2.253   6.667   2.521
23562WAT      O70927   2.836   9.798   3.219
23562WAT     H170928   2.845   9.886   3.265
23562WAT     H270929   2.769   9.742   3.268
23563WAT      O70930   2.584   5.436   8.179
23563WAT     H170931   2.655   5.410   8.245
23563WAT     H270932   2.519   5.360   8.169
23564WAT      O70933   7.214   2.313   0.141
23564WAT     H170934   7.130   2.264   0.119
23564WAT     H270935   7.195   2.411   0.148
23565WAT      O70936   3.014   7.229   3.977
23565WAT     H170937   2.999   7.213   3.879
23565WAT     H270938   2.939   7.286   4.013
23566WAT      O70939   2.851   4.607   4.953
23566WAT     H170940   2.867   4.513   4.983
23566WAT     H270941   2.932   4.641   4.905
23567WAT      O70942   2.457   4.988   7.604
23567WAT     H170943   2.374   4.934   7.612
23567WAT     H270944   2.479   5.028   7.694
23568WAT      O70945   3.648   1.925   5.707
23568WAT     H170946   3.745   1.945   5.696
23568WAT     H270947   3.619   1.860   5.636
23569WAT      O70948   8.151   8.819   9.128
23569WAT     H170949   8.075   8.868   9.171
23569WAT     H270950   8.185   8.874   9.051
23570WAT      O70951   1.244   9.535   7.631
23570WAT     H170952   1.271   9.479   7.709
23570WAT     H270953   1.301   9.618   7.629
23571WAT      O70954   0.329   5.817   1.541
23571WAT     H170955   0.309   5.836   1.445
23571WAT     H270956   0.426   5.829   1.559
23572WAT      O70957   5.971   4.892   6.991
23572WAT     H170958   6.035   4.825   7.029
23572WAT     H270959   5.904   4.917   7.061
23573WAT      O70960   1.941   0.950   8.214
23573WAT     H170961   1.928   0.878   8.147
23573WAT     H270962   1.854   0.968   8.261
23574WAT      O70963   2.310   5.125   2.057
23574WAT     H170964   2.220   5.083   2.052
23574WAT     H270965   2.340   5.130   2.152
23575WAT      O70966   5.823   1.667   0.611
23575WAT     H170967   5.740   1.649   0.557
23575WAT     H270968   5.901   1.620   0.568
23576WAT      O70969   8.047   2.646   9.106
23576WAT     H170970   8.098   2.733   9.111
23576WAT     H270971   8.068   2.591   9.187
23577WAT      O70972   4.300   0.752   1.960
23577WAT     H170973   4.278   0.703   2.045
23577WAT     H270974   4.360   0.830   1.981
23578WAT      O70975   7.224   7.759   6.889
23578WAT     H170976   7.166   7.678   6.872
23578WAT     H270977   7.281   7.775   6.808
23579WAT      O70978   5.650   7.273   0.413
23579WAT     H170979   5.570   7.252   0.469
23579WAT     H270980   5.730   7.286   0.471
23580WAT      O70981   5.170   0.653   8.917
23580WAT     H170982   5.251   0.658   8.858
23580WAT     H270983   5.092   0.695   8.870
23581WAT      O70984   1.645   9.325   1.787
23581WAT     H170985   1.727   9.269   1.784
23581WAT     H270986   1.573   9.277   1.837
23582WAT      O70987   2.102   5.468   4.005
23582WAT     H170988   2.156   5.384   4.012
23582WAT     H270989   2.109   5.519   4.090
23583WAT      O70990   7.112   7.710   2.721
23583WAT     H170991   7.150   7.781   2.781
23583WAT     H270992   7.067   7.640   2.777
23584WAT      O70993   4.353   9.440   9.385
23584WAT     H170994   4.268   9.389   9.391
23584WAT     H270995   4.387   9.438   9.291
23585WAT      O70996   8.190   8.825   8.531
23585WAT     H170997   8.109   8.782   8.572
23585WAT     H270998   8.176   8.924   8.524
23586WAT      O70999   5.022   3.328   1.916
23586WAT     H171000   5.019   3.365   1.824
23586WAT     H271001   5.116   3.325   1.949
23587WAT      O71002   1.571   4.644   9.324
23587WAT     H171003   1.623   4.729   9.331
23587WAT     H271004   1.626   4.567   9.357
23588WAT      O71005   3.890   8.493   4.998
23588WAT     H171006   3.883   8.420   5.066
23588WAT     H271007   3.941   8.570   5.037
23589WAT      O71008   9.757   6.675   1.145
23589WAT     H171009   9.669   6.630   1.165
23589WAT     H271010   9.799   6.632   1.066
23590WAT      O71011   9.269   7.860   8.462
23590WAT     H171012   9.288   7.796   8.537
23590WAT     H271013   9.184   7.834   8.418
23591WAT      O71014   9.794   1.247   3.178
23591WAT     H171015   9.750   1.274   3.264
23591WAT     H271016   9.839   1.158   3.191
23592WAT      O71017   9.482   9.364   8.348
23592WAT     H171018   9.456   9.297   8.278
23592WAT     H271019   9.581   9.379   8.344
23593WAT      O71020   1.180   1.612   7.188
23593WAT     H171021   1.170   1.651   7.096
23593WAT     H271022   1.246   1.537   7.185
23594WAT      O71023   3.777   0.102   8.463
23594WAT     H171024   3.852   0.056   8.510
23594WAT     H271025   3.773   0.072   8.368
23595WAT      O71026   9.791   4.785   9.207
23595WAT     H171027   9.877   4.737   9.191
23595WAT     H271028   9.781   4.858   9.139
23596WAT      O71029   0.961   5.606   8.046
23596WAT     H171030   1.003   5.608   8.137
23596WAT     H271031   1.032   5.622   7.977
23597WAT      O71032   6.620   4.748   5.056
23597WAT     H171033   6.674   4.688   5.115
23597WAT     H271034   6.522   4.732   5.073
23598WAT      O71035   6.214   5.618   1.090
23598WAT     H171036   6.306   5.584   1.072
23598WAT     H271037   6.150   5.582   1.023
23599WAT      O71038   1.011   3.531   5.006
23599WAT     H171039   0.973   3.534   5.098
23599WAT     H271040   0.966   3.457   4.954
23600WAT      O71041   5.328   0.175   4.627
23600WAT     H171042   5.288   0.088   4.655
23600WAT     H271043   5.379   0.215   4.704
23601WAT      O71044   3.253   2.426   7.706
23601WAT     H171045   3.234   2.374   7.790
23601WAT     H271046   3.352   2.437   7.696
23602WAT      O71047   7.208   8.271   2.689
23602WAT     H171048   7.294   8.317   2.666
23602WAT     H271049   7.177   8.302   2.778
23603WAT      O71050   3.796   0.523   4.292
23603WAT     H171051   3.765   0.537   4.198
23603WAT     H271052   3.717   0.512   4.352
23604WAT      O71053   0.131   1.275   9.172
23604WAT     H171054   0.214   1.273   9.229
23604WAT     H271055   0.052   1.294   9.229
23605WAT      O71056   1.081   6.627   3.120
23605WAT     H171057   1.061   6.531   3.100
23605WAT     H271058   1.155   6.631   3.187
23606WAT      O71059   6.502   6.274   9.798
23606WAT     H171060   6.588   6.226   9.781
23606WAT     H271061   6.432   6.241   9.735
23607WAT      O71062   3.085   3.473   8.312
23607WAT     H171063   3.080   3.526   8.397
23607WAT     H271064   3.045   3.383   8.327
23608WAT      O71065   6.404   7.287   1.520
23608WAT     H171066   6.491   7.239   1.530
23608WAT     H271067   6.392   7.317   1.425
23609WAT      O71068   8.030   8.914   6.583
23609WAT     H171069   7.932   8.921   6.601
23609WAT     H271070   8.051   8.954   6.494
23610WAT      O71071   1.657   4.464   5.838
23610WAT     H171072   1.693   4.470   5.745
23610WAT     H271073   1.690   4.380   5.882
23611WAT      O71074   4.284   1.300   2.332
23611WAT     H171075   4.255   1.227   2.395
23611WAT     H271076   4.378   1.327   2.353
23612WAT      O71077   9.532   3.498   7.420
23612WAT     H171078   9.494   3.585   7.453
23612WAT     H271079   9.480   3.423   7.459
23613WAT      O71080   1.113   7.720   4.018
23613WAT     H171081   1.057   7.689   3.941
23613WAT     H271082   1.150   7.811   3.998
23614WAT      O71083   5.104   0.452   9.102
23614WAT     H171084   5.131   0.516   9.030
23614WAT     H271085   5.145   0.363   9.083
23615WAT      O71086   5.298   6.358   5.579
23615WAT     H171087   5.358   6.287   5.616
23615WAT     H271088   5.208   6.352   5.622
23616WAT      O71089   8.881   4.689   0.906
23616WAT     H171090   8.817   4.633   0.959
23616WAT     H271091   8.969   4.694   0.953
23617WAT      O71092   4.637   8.885   8.410
23617WAT     H171093   4.628   8.945   8.331
23617WAT     H271094   4.556   8.893   8.468
23618WAT      O71095   1.649   4.467   4.620
23618WAT     H171096   1.577   4.423   4.566
23618WAT     H271097   1.685   4.546   4.570
23619WAT      O71098   5.070   8.312   5.379
23619WAT     H171099   5.032   8.365   5.455
23619WAT     H271100   5.169   8.305   5.388
23620WAT      O71101   2.678   0.722   1.276
23620WAT     H171102   2.688   0.814   1.238
23620WAT     H271103   2.652   0.728   1.372
23621WAT      O71104   8.362   8.084   6.262
23621WAT     H171105   8.405   8.148   6.198
23621WAT     H271106   8.273   8.120   6.290
23622WAT      O71107   1.378   1.214   1.405
23622WAT     H171108   1.293   1.243   1.449
23622WAT     H271109   1.383   1.256   1.314
23623WAT      O71110   4.921   2.924   5.942
23623WAT     H171111   4.936   2.883   6.031
23623WAT     H271112   4.880   2.857   5.880
23624WAT      O71113   0.510   3.389   7.150
23624WAT     H171114   0.475   3.396   7.243
23624WAT     H271115   0.438   3.415   7.085
23625WAT      O71116   7.291   6.611   1.784
23625WAT     H171117   7.201   6.602   1.828
23625WAT     H271118   7.281   6.596   1.686
23626WAT      O71119   7.508   0.108   7.125
23626WAT     H171120   7.448   0.188   7.118
23626WAT     H271121   7.472   0.034   7.067
23627WAT      O71122   2.112   1.862   4.295
23627WAT     H171123   2.082   1.885   4.387
23627WAT     H271124   2.209   1.836   4.296
23628WAT      O71125   0.704   6.504   5.419
23628WAT     H171126   0.607   6.527   5.425
23628WAT     H271127   0.752   6.542   5.498
23629WAT      O71128   9.803   4.260   1.109
23629WAT     H171129   9.853   4.186   1.155
23629WAT     H271130   9.790   4.236   1.013
23630WAT      O71131   1.777   7.250   3.079
23630WAT     H171132   1.744   7.233   2.985
23630WAT     H271133   1.743   7.339   3.110
23631WAT      O71134   3.176   4.396   2.530
23631WAT     H171135   3.266   4.435   2.550
23631WAT     H271136   3.106   4.443   2.585
23632WAT      O71137   4.138   5.008   4.258
23632WAT     H171138   4.213   4.975   4.316
23632WAT     H271139   4.129   5.107   4.271
23633WAT      O71140   1.416   0.073   8.894
23633WAT     H171141   1.361   0.090   8.812
23633WAT     H271142   1.387   0.134   8.967
23634WAT      O71143   1.831   1.935   8.768
23634WAT     H171144   1.888   2.010   8.802
23634WAT     H271145   1.888   1.854   8.752
23635WAT      O71146   9.682   2.157   5.029
23635WAT     H171147   9.610   2.089   5.040
23635WAT     H271148   9.651   2.229   4.967
23636WAT      O71149   8.715   0.428   2.241
23636WAT     H171150   8.681   0.457   2.152
23636WAT     H271151   8.657   0.466   2.313
23637WAT      O71152   2.565   3.322   7.835
23637WAT     H171153   2.654   3.282   7.815
23637WAT     H271154   2.509   3.323   7.752
23638WAT      O71155   8.614   8.033   9.612
23638WAT     H171156   8.694   8.093   9.603
23638WAT     H271157   8.544   8.061   9.547
23639WAT      O71158   2.363   8.043   8.407
23639WAT     H171159   2.422   7.992   8.344
23639WAT     H271160   2.417   8.072   8.486
23640WAT      O71161   0.061   7.598   6.937
23640WAT     H171162   0.136   7.640   6.885
23640WAT     H271163   0.046   7.504   6.905
23641WAT      O71164   5.138   5.571   1.686
23641WAT     H171165   5.094   5.533   1.767
23641WAT     H271166   5.105   5.523   1.604
23642WAT      O71167   4.646   9.012   8.185
23642WAT     H171168   4.717   8.982   8.121
23642WAT     H271169   4.673   9.099   8.225
23643WAT      O71170   5.473   9.382   1.349
23643WAT     H171171   5.441   9.468   1.390
23643WAT     H271172   5.404   9.347   1.287
23644WAT      O71173   2.936   2.413   8.247
23644WAT     H171174   2.976   2.406   8.156
23644WAT     H271175   2.847   2.366   8.248
23645WAT      O71176   2.705   2.921   4.535
23645WAT     H171177   2.655   2.841   4.500
23645WAT     H271178   2.802   2.899   4.542
23646WAT      O71179   3.929   0.448   0.942
23646WAT     H171180   3.898   0.511   1.013
23646WAT     H271181   4.007   0.395   0.976
23647WAT      O71182   0.025   9.447   0.460
23647WAT     H171183   0.030   9.495   0.547
23647WAT     H271184   0.080   9.495   0.392
23648WAT      O71185   2.315   2.185   9.236
23648WAT     H171186   2.324   2.131   9.153
23648WAT     H271187   2.393   2.247   9.245
23649WAT      O71188   2.071   2.428   7.428
23649WAT     H171189   2.165   2.461   7.431
23649WAT     H271190   2.021   2.464   7.507
23650WAT      O71191   9.024   0.957   8.831
23650WAT     H171192   8.984   0.923   8.915
23650WAT     H271193   9.086   1.033   8.851
23651WAT      O71194   6.949   4.206   9.175
23651WAT     H171195   6.983   4.271   9.107
23651WAT     H271196   6.850   4.198   9.167
23652WAT      O71197   0.068   5.403   5.304
23652WAT     H171198   0.007   5.463   5.356
23652WAT     H271199   0.095   5.326   5.361
23653WAT      O71200   8.234   3.705   6.357
23653WAT     H171201   8.320   3.692   6.405
23653WAT     H271202   8.230   3.644   6.278
23654WAT      O71203   0.759   2.978   8.705
23654WAT     H171204   0.757   2.895   8.648
23654WAT     H271205   0.843   2.981   8.758
23655WAT      O71206   8.438   4.699   4.555
23655WAT     H171207   8.394   4.619   4.513
23655WAT     H271208   8.372   4.774   4.560
23656WAT      O71209   3.501   5.832   9.377
23656WAT     H171210   3.522   5.792   9.466
23656WAT     H271211   3.476   5.759   9.313
23657WAT      O71212   5.324   0.328   8.630
23657WAT     H171213   5.408   0.325   8.684
23657WAT     H271214   5.331   0.263   8.554
23658WAT      O71215   3.057   6.747   7.321
23658WAT     H171216   2.959   6.729   7.330
23658WAT     H271217   3.108   6.668   7.354
23659WAT      O71218   5.624   7.836   4.454
23659WAT     H171219   5.561   7.759   4.461
23659WAT     H271220   5.653   7.864   4.546
23660WAT      O71221   0.888   1.640   8.786
23660WAT     H171222   0.875   1.719   8.726
23660WAT     H271223   0.835   1.653   8.870
23661WAT      O71224   7.192   7.095   5.692
23661WAT     H171225   7.181   7.164   5.763
23661WAT     H271226   7.138   7.122   5.611
23662WAT      O71227   1.042   0.448   5.949
23662WAT     H171228   1.093   0.497   6.019
23662WAT     H271229   0.946   0.439   5.978
23663WAT      O71230   4.255   0.910   0.323
23663WAT     H171231   4.267   0.958   0.409
23663WAT     H271232   4.189   0.836   0.335
23664WAT      O71233   0.672   5.853   1.177
23664WAT     H171234   0.638   5.766   1.214
23664WAT     H271235   0.718   5.904   1.250
23665WAT      O71236   7.750   7.892   2.938
23665WAT     H171237   7.773   7.840   2.856
23665WAT     H271238   7.733   7.988   2.913
23666WAT      O71239   5.268   2.524   5.370
23666WAT     H171240   5.334   2.453   5.393
23666WAT     H271241   5.186   2.482   5.332
23667WAT      O71242   4.957   6.653   0.504
23667WAT     H171243   5.037   6.713   0.507
23667WAT     H271244   4.977   6.573   0.448
23668WAT      O71245   4.068   2.041   0.155
23668WAT     H171246   4.146   1.980   0.168
23668WAT     H271247   4.094   2.134   0.177
23669WAT      O71248   7.797   6.092   4.027
23669WAT     H171249   7.781   6.191   4.026
23669WAT     H271250   7.894   6.075   4.046
23670WAT      O71251   7.077   2.739   0.595
23670WAT     H171252   6.983   2.711   0.614
23670WAT     H271253   7.135   2.715   0.672
23671WAT      O71254   8.045   2.940   6.307
23671WAT     H171255   7.953   2.978   6.319
23671WAT     H271256   8.047   2.847   6.341
23672WAT      O71257   1.345   4.583   4.690
23672WAT     H171258   1.259   4.569   4.642
23672WAT     H271259   1.368   4.680   4.689
23673WAT      O71260   0.317   5.121   7.990
23673WAT     H171261   0.336   5.179   8.069
23673WAT     H271262   0.386   5.048   7.984
23674WAT      O71263   2.745   7.764   6.622
23674WAT     H171264   2.680   7.835   6.651
23674WAT     H271265   2.696   7.680   6.601
23675WAT      O71266   3.998   9.316   7.760
23675WAT     H171267   3.898   9.318   7.748
23675WAT     H271268   4.028   9.222   7.774
23676WAT      O71269   1.418   3.835   1.302
23676WAT     H171270   1.514   3.805   1.303
23676WAT     H271271   1.377   3.815   1.391
23677WAT      O71272   9.383   4.018   3.608
23677WAT     H171273   9.323   4.095   3.589
23677WAT     H271274   9.474   4.051   3.631
23678WAT      O71275   6.433   8.398   6.731
23678WAT     H171276   6.413   8.322   6.792
23678WAT     H271277   6.349   8.432   6.690
23679WAT      O71278   4.500   3.283   8.640
23679WAT     H171279   4.418   3.246   8.597
23679WAT     H271280   4.581   3.234   8.605
23680WAT      O71281   3.511   8.107   0.805
23680WAT     H171282   3.544   8.066   0.720
23680WAT     H271283   3.430   8.058   0.836
23681WAT      O71284   4.239   5.049   5.715
23681WAT     H171285   4.325   5.050   5.664
23681WAT     H271286   4.188   5.133   5.697
23682WAT      O71287   4.053   6.635   6.747
23682WAT     H171288   4.130   6.586   6.706
23682WAT     H271289   3.967   6.602   6.708
23683WAT      O71290   4.266   5.242   3.884
23683WAT     H171291   4.292   5.197   3.799
23683WAT     H271292   4.177   5.206   3.914
23684WAT      O71293   0.741   5.786   4.993
23684WAT     H171294   0.750   5.781   5.093
23684WAT     H271295   0.734   5.693   4.956
23685WAT      O71296   7.929   7.071   4.601
23685WAT     H171297   7.833   7.067   4.627
23685WAT     H271298   7.970   6.980   4.611
23686WAT      O71299   4.874   9.370   9.377
23686WAT     H171300   4.877   9.459   9.333
23686WAT     H271301   4.824   9.306   9.320
23687WAT      O71302   8.583   0.971   0.601
23687WAT     H171303   8.595   1.067   0.626
23687WAT     H271304   8.585   0.914   0.683
23688WAT      O71305   2.469   8.622   3.821
23688WAT     H171306   2.371   8.606   3.817
23688WAT     H271307   2.487   8.720   3.829
23689WAT      O71308   1.791   3.222   4.945
23689WAT     H171309   1.881   3.240   4.985
23689WAT     H271310   1.721   3.273   4.995
23690WAT      O71311   3.276   5.733   6.197
23690WAT     H171312   3.369   5.701   6.210
23690WAT     H271313   3.217   5.656   6.173
23691WAT      O71314   7.407   4.922   0.439
23691WAT     H171315   7.404   4.843   0.500
23691WAT     H271316   7.431   5.004   0.492
23692WAT      O71317   8.289   6.226   9.159
23692WAT     H171318   8.385   6.251   9.154
23692WAT     H271319   8.277   6.154   9.227
23693WAT      O71320   9.134   1.252   8.303
23693WAT     H171321   9.218   1.234   8.355
23693WAT     H271322   9.057   1.205   8.347
23694WAT      O71323   0.989   3.370   0.094
23694WAT     H171324   1.005   3.468   0.101
23694WAT     H271325   0.949   3.337   0.179
23695WAT      O71326   7.985   5.798   7.842
23695WAT     H171327   7.939   5.718   7.801
23695WAT     H271328   7.921   5.875   7.844
23696WAT      O71329   2.026   4.133   9.071
23696WAT     H171330   1.936   4.132   9.029
23696WAT     H271331   2.019   4.105   9.167
23697WAT      O71332   4.154   6.039   0.053
23697WAT     H171333   4.132   6.011   0.146
23697WAT     H271334   4.190   5.961   0.002
23698WAT      O71335   4.931   2.361   9.260
23698WAT     H171336   4.944   2.263   9.249
23698WAT     H271337   4.841   2.387   9.226
23699WAT      O71338   8.955   0.373   8.594
23699WAT     H171339   9.035   0.326   8.631
23699WAT     H271340   8.873   0.345   8.644
23700WAT      O71341   5.945   1.704   3.912
23700WAT     H171342   5.864   1.717   3.969
23700WAT     H271343   6.007   1.782   3.924
23701WAT      O71344   8.585   9.828   6.599
23701WAT     H171345   8.625   9.787   6.681
23701WAT     H271346   8.488   9.845   6.615
23702WAT      O71347   5.525   5.100   9.513
23702WAT     H171348   5.572   5.188   9.504
23702WAT     H271349   5.432   5.116   9.547
23703WAT      O71350   7.436   9.365   9.604
23703WAT     H171351   7.429   9.297   9.531
23703WAT     H271352   7.514   9.344   9.663
23704WAT      O71353   9.458   3.797   8.022
23704WAT     H171354   9.457   3.785   8.122
23704WAT     H271355   9.375   3.845   7.994
23705WAT      O71356   8.590   0.691   3.707
23705WAT     H171357   8.552   0.614   3.759
23705WAT     H271358   8.554   0.777   3.743
23706WAT      O71359   2.823   5.111   9.695
23706WAT     H171360   2.919   5.086   9.697
23706WAT     H271361   2.808   5.179   9.623
23707WAT      O71362   6.515   1.057   2.946
23707WAT     H171363   6.513   1.107   2.859
23707WAT     H271364   6.579   0.980   2.939
23708WAT      O71365   9.151   9.009   4.969
23708WAT     H171366   9.109   8.938   4.912
23708WAT     H271367   9.086   9.038   5.039
23709WAT      O71368   5.926   7.073   4.566
23709WAT     H171369   5.959   7.167   4.562
23709WAT     H271370   5.895   7.045   4.475
23710WAT      O71371   6.393   6.918   5.907
23710WAT     H171372   6.417   6.821   5.912
23710WAT     H271373   6.344   6.935   5.822
23711WAT      O71374   5.415   6.883   8.393
23711WAT     H171375   5.478   6.810   8.367
23711WAT     H271376   5.376   6.924   8.311
23712WAT      O71377   7.683   5.820   3.996
23712WAT     H171378   7.701   5.909   4.039
23712WAT     H271379   7.769   5.769   3.987
23713WAT      O71380   7.070   8.173   5.110
23713WAT     H171381   7.153   8.156   5.162
23713WAT     H271382   7.090   8.234   5.033
23714WAT      O71383   6.404   8.014   1.726
23714WAT     H171384   6.318   7.971   1.754
23714WAT     H271385   6.411   8.015   1.627
23715WAT      O71386   9.423   9.620   3.486
23715WAT     H171387   9.450   9.716   3.488
23715WAT     H271388   9.504   9.562   3.482
23716WAT      O71389   4.798   8.218   3.290
23716WAT     H171390   4.876   8.159   3.312
23716WAT     H271391   4.723   8.162   3.255
23717WAT      O71392   9.490   3.363   8.417
23717WAT     H171393   9.487   3.270   8.453
23717WAT     H271394   9.399   3.387   8.382
23718WAT      O71395   5.578   1.242   0.049
23718WAT     H171396   5.630   1.281  -0.026
23718WAT     H271397   5.629   1.250   0.134
23719WAT      O71398   5.830   3.817   7.223
23719WAT     H171399   5.875   3.902   7.197
23719WAT     H271400   5.731   3.826   7.210
23720WAT      O71401   4.941   2.518   5.662
23720WAT     H171402   4.948   2.444   5.729
23720WAT     H271403   4.940   2.479   5.570
23721WAT      O71404   6.591   7.076   8.825
23721WAT     H171405   6.595   6.976   8.821
23721WAT     H271406   6.529   7.105   8.898
23722WAT      O71407   4.896   2.681   7.414
23722WAT     H171408   4.854   2.771   7.408
23722WAT     H271409   4.994   2.691   7.430
23723WAT      O71410   9.048   9.474   7.074
23723WAT     H171411   9.141   9.501   7.096
23723WAT     H271412   9.042   9.447   6.978
23724WAT      O71413   9.776   2.646   1.439
23724WAT     H171414   9.835   2.670   1.361
23724WAT     H271415   9.700   2.710   1.443
23725WAT      O71416   5.782   7.751   3.466
23725WAT     H171417   5.813   7.763   3.371
23725WAT     H271418   5.683   7.758   3.470
23726WAT      O71419   9.024   8.712   7.874
23726WAT     H171420   8.988   8.630   7.830
23726WAT     H271421   8.996   8.793   7.822
23727WAT      O71422   8.917   6.843   4.976
23727WAT     H171423   9.002   6.872   4.934
23727WAT     H271424   8.936   6.778   5.050
23728WAT      O71425   4.174   8.777   5.489
23728WAT     H171426   4.270   8.806   5.493
23728WAT     H271427   4.116   8.850   5.526
23729WAT      O71428   6.282   8.265   0.825
23729WAT     H171429   6.321   8.234   0.738
23729WAT     H271430   6.185   8.242   0.828
23730WAT      O71431   0.941   6.106   0.376
23730WAT     H171432   0.973   6.071   0.464
23730WAT     H271433   0.997   6.185   0.349
23731WAT      O71434   5.472   4.056   5.566
23731WAT     H171435   5.447   4.149   5.592
23731WAT     H271436   5.452   3.994   5.642
23732WAT      O71437   1.800   8.518   3.037
23732WAT     H171438   1.726   8.570   3.081
23732WAT     H271439   1.787   8.420   3.056
23733WAT      O71440   1.443   2.945   4.495
23733WAT     H171441   1.424   2.852   4.463
23733WAT     H271442   1.540   2.953   4.517
23734WAT      O71443   5.620   0.400   6.349
23734WAT     H171444   5.641   0.495   6.373
23734WAT     H271445   5.521   0.391   6.333
23735WAT      O71446   3.310   5.406   7.972
23735WAT     H171447   3.292   5.484   7.912
23735WAT     H271448   3.310   5.435   8.067
23736WAT      O71449   4.970   5.891   2.344
23736WAT     H171450   4.930   5.978   2.315
23736WAT     H271451   4.898   5.821   2.346
23737WAT      O71452   1.847   0.309   7.808
23737WAT     H171453   1.837   0.296   7.907
23737WAT     H271454   1.932   0.265   7.778
23738WAT      O71455   7.256   8.359   7.259
23738WAT     H171456   7.189   8.324   7.193
23738WAT     H271457   7.238   8.320   7.349
23739WAT      O71458   9.354   4.595   4.303
23739WAT     H171459   9.336   4.681   4.254
23739WAT     H271460   9.368   4.522   4.236
23740WAT      O71461   9.320   4.871   1.123
23740WAT     H171462   9.318   4.853   1.222
23740WAT     H271463   9.411   4.852   1.087
23741WAT      O71464   7.395   3.589   5.369
23741WAT     H171465   7.308   3.543   5.387
23741WAT     H271466   7.465   3.521   5.345
23742WAT      O71467   5.969   0.499   7.388
23742WAT     H171468   5.878   0.468   7.360
23742WAT     H271469   5.961   0.562   7.464
23743WAT      O71470   5.327   6.547   7.391
23743WAT     H171471   5.333   6.458   7.436
23743WAT     H271472   5.233   6.563   7.362
23744WAT      O71473   0.696   3.607   6.378
23744WAT     H171474   0.784   3.581   6.338
23744WAT     H271475   0.691   3.575   6.472
23745WAT      O71476   8.818   3.286   9.736
23745WAT     H171477   8.878   3.286   9.816
23745WAT     H271478   8.766   3.372   9.733
23746WAT      O71479   4.417   2.062   5.920
23746WAT     H171480   4.338   2.097   5.970
23746WAT     H271481   4.499   2.074   5.976
23747WAT      O71482   4.326   2.498   2.646
23747WAT     H171483   4.242   2.534   2.606
23747WAT     H271484   4.349   2.411   2.603
23748WAT      O71485   2.085   5.521   1.807
23748WAT     H171486   2.130   5.478   1.885
23748WAT     H271487   2.120   5.482   1.722
23749WAT      O71488   7.897   7.961   2.039
23749WAT     H171489   7.965   7.889   2.027
23749WAT     H271490   7.808   7.929   2.006
23750WAT      O71491   8.840   4.021   8.075
23750WAT     H171492   8.774   3.963   8.122
23750WAT     H271493   8.900   3.965   8.019
23751WAT      O71494   5.460   8.672   7.199
23751WAT     H171495   5.444   8.682   7.101
23751WAT     H271496   5.501   8.756   7.235
23752WAT      O71497   4.239   7.020   7.732
23752WAT     H171498   4.181   7.089   7.690
23752WAT     H271499   4.316   6.999   7.672
23753WAT      O71500   2.575   2.791   7.034
23753WAT     H171501   2.533   2.798   6.944
23753WAT     H271502   2.638   2.868   7.048
23754WAT      O71503   2.621   8.215   7.707
23754WAT     H171504   2.635   8.261   7.796
23754WAT     H271505   2.567   8.275   7.648
23755WAT      O71506   4.858   0.815   8.002
23755WAT     H171507   4.771   0.788   7.961
23755WAT     H271508   4.850   0.811   8.102
23756WAT      O71509   7.722   5.901   3.460
23756WAT     H171510   7.812   5.881   3.420
23756WAT     H271511   7.673   5.816   3.476
23757WAT      O71512   0.234   4.167   5.007
23757WAT     H171513   0.206   4.195   5.099
23757WAT     H271514   0.332   4.179   4.997
23758WAT      O71515   7.553   1.154   2.902
23758WAT     H171516   7.506   1.103   2.973
23758WAT     H271517   7.649   1.168   2.928
23759WAT      O71518   1.606   3.055   6.348
23759WAT     H171519   1.614   2.956   6.359
23759WAT     H271520   1.559   3.075   6.262
23760WAT      O71521   3.239   9.034   1.896
23760WAT     H171522   3.251   9.033   1.797
23760WAT     H271523   3.325   9.061   1.940
23761WAT      O71524   1.193   4.814   7.132
23761WAT     H171525   1.146   4.872   7.065
23761WAT     H271526   1.191   4.858   7.222
23762WAT      O71527   7.874   5.567   7.736
23762WAT     H171528   7.827   5.559   7.648
23762WAT     H271529   7.841   5.495   7.797
23763WAT      O71530   2.123   6.314   5.495
23763WAT     H171531   2.077   6.365   5.568
23763WAT     H271532   2.205   6.364   5.466
23764WAT      O71533   3.444   0.474   5.531
23764WAT     H171534   3.359   0.527   5.531
23764WAT     H271535   3.471   0.453   5.437
23765WAT      O71536   4.899   3.846   1.290
23765WAT     H171537   4.972   3.782   1.313
23765WAT     H271538   4.889   3.913   1.363
23766WAT      O71539   4.319   0.319   2.494
23766WAT     H171540   4.237   0.304   2.439
23766WAT     H271541   4.365   0.232   2.510
23767WAT      O71542   8.053   3.975   8.002
23767WAT     H171543   7.957   3.962   7.979
23767WAT     H271544   8.108   3.904   7.958
23768WAT      O71545   2.637   9.256   3.819
23768WAT     H171546   2.707   9.205   3.868
23768WAT     H271547   2.680   9.320   3.755
23769WAT      O71548   1.788   1.319   4.291
23769WAT     H171549   1.778   1.413   4.260
23769WAT     H271550   1.835   1.265   4.221
23770WAT      O71551   7.753   5.470   5.163
23770WAT     H171552   7.666   5.508   5.196
23770WAT     H271553   7.734   5.385   5.112
23771WAT      O71554   7.540   8.493   2.138
23771WAT     H171555   7.563   8.399   2.162
23771WAT     H271556   7.487   8.535   2.211
23772WAT      O71557   6.209   2.239   8.380
23772WAT     H171558   6.238   2.219   8.286
23772WAT     H271559   6.289   2.260   8.436
23773WAT      O71560   2.469   7.095   9.718
23773WAT     H171561   2.419   7.011   9.696
23773WAT     H271562   2.414   7.174   9.690
23774WAT      O71563   1.137   1.899   6.968
23774WAT     H171564   1.197   1.889   7.047
23774WAT     H271565   1.166   1.836   6.896
23775WAT      O71566   7.277   4.369   9.512
23775WAT     H171567   7.349   4.387   9.446
23775WAT     H271568   7.224   4.290   9.483
23776WAT      O71569   9.046   1.402   8.083
23776WAT     H171570   9.089   1.362   8.164
23776WAT     H271571   9.014   1.328   8.023
23777WAT      O71572   4.333   3.057   7.247
23777WAT     H171573   4.234   3.046   7.240
23777WAT     H271574   4.355   3.131   7.311
23778WAT      O71575   9.354   1.353   9.733
23778WAT     H171576   9.337   1.357   9.634
23778WAT     H271577   9.375   1.259   9.759
23779WAT      O71578   7.778   2.503   2.383
23779WAT     H171579   7.752   2.407   2.392
23779WAT     H271580   7.829   2.532   2.464
23780WAT      O71581   1.061   7.249   8.118
23780WAT     H171582   0.993   7.322   8.122
23780WAT     H271583   1.146   7.280   8.161
23781WAT      O71584   1.348   8.658   3.592
23781WAT     H171585   1.407   8.591   3.638
23781WAT     H271586   1.276   8.610   3.542
23782WAT      O71587   4.765   4.547   8.401
23782WAT     H171588   4.789   4.544   8.304
23782WAT     H271589   4.779   4.457   8.442
23783WAT      O71590   1.509   0.175   2.863
23783WAT     H171591   1.541   0.185   2.958
23783WAT     H271592   1.534   0.258   2.812
23784WAT      O71593   3.252   2.498   1.070
23784WAT     H171594   3.215   2.578   1.023
23784WAT     H271595   3.235   2.506   1.168
23785WAT      O71596   1.724   8.612   1.844
23785WAT     H171597   1.759   8.568   1.927
23785WAT     H271598   1.698   8.542   1.778
23786WAT      O71599   8.578   0.455   3.513
23786WAT     H171600   8.483   0.461   3.482
23786WAT     H271601   8.612   0.546   3.535
23787WAT      O71602   0.461   2.266   4.007
23787WAT     H171603   0.559   2.286   3.995
23787WAT     H271604   0.432   2.302   4.096
23788WAT      O71605   1.636   4.944   9.839
23788WAT     H171606   1.688   4.860   9.854
23788WAT     H271607   1.538   4.923   9.842
23789WAT      O71608   2.432   2.312   8.334
23789WAT     H171609   2.409   2.291   8.429
23789WAT     H271610   2.419   2.230   8.278
23790WAT      O71611   4.232   0.689   2.734
23790WAT     H171612   4.301   0.617   2.742
23790WAT     H271613   4.198   0.712   2.825
23791WAT      O71614   6.262   1.716   2.898
23791WAT     H171615   6.270   1.782   2.823
23791WAT     H271616   6.187   1.653   2.879
23792WAT      O71617   0.702   3.825   0.242
23792WAT     H171618   0.735   3.740   0.282
23792WAT     H271619   0.778   3.873   0.199
23793WAT      O71620   5.743   1.996   3.790
23793WAT     H171621   5.710   2.050   3.713
23793WAT     H271622   5.699   1.906   3.789
23794WAT      O71623   0.214   1.778   5.351
23794WAT     H171624   0.238   1.793   5.255
23794WAT     H271625   0.296   1.785   5.408
23795WAT      O71626   6.686   2.483   1.723
23795WAT     H171627   6.668   2.552   1.653
23795WAT     H271628   6.715   2.528   1.808
23796WAT      O71629   7.023   8.648   3.530
23796WAT     H171630   7.115   8.618   3.556
23796WAT     H271631   7.016   8.747   3.543
23797WAT      O71632   1.493   1.433   0.929
23797WAT     H171633   1.502   1.430   0.830
23797WAT     H271634   1.528   1.520   0.963
23798WAT      O71635   6.585   1.468   5.480
23798WAT     H171636   6.626   1.559   5.481
23798WAT     H271637   6.548   1.447   5.571
23799WAT      O71638   9.553   2.222   2.255
23799WAT     H171639   9.488   2.272   2.197
23799WAT     H271640   9.584   2.281   2.329
23800WAT      O71641   5.789   9.212   4.155
23800WAT     H171642   5.691   9.232   4.148
23800WAT     H271643   5.831   9.224   4.065
23801WAT      O71644   5.811   9.730   6.716
23801WAT     H171645   5.728   9.677   6.699
23801WAT     H271646   5.861   9.744   6.630
23802WAT      O71647   7.294   1.415   3.231
23802WAT     H171648   7.347   1.468   3.298
23802WAT     H271649   7.222   1.473   3.192
23803WAT      O71650   1.401   8.183   8.485
23803WAT     H171651   1.319   8.129   8.505
23803WAT     H271652   1.463   8.180   8.564
23804WAT      O71653   1.247   4.744   6.413
23804WAT     H171654   1.276   4.839   6.407
23804WAT     H271655   1.198   4.730   6.499
23805WAT      O71656   3.328   3.612   9.023
23805WAT     H171657   3.299   3.550   9.096
23805WAT     H271658   3.416   3.652   9.047
23806WAT      O71659   9.417   0.550   7.658
23806WAT     H171660   9.486   0.601   7.606
23806WAT     H271661   9.329   0.598   7.651
23807WAT      O71662   0.272   1.438   2.768
23807WAT     H171663   0.262   1.340   2.781
23807WAT     H271664   0.315   1.478   2.849
23808WAT      O71665   3.612   3.332   3.844
23808WAT     H171666   3.592   3.413   3.788
23808WAT     H271667   3.700   3.293   3.816
23809WAT      O71668   0.111   8.095   2.165
23809WAT     H171669   0.144   8.054   2.081
23809WAT     H271670   0.031   8.045   2.198
23810WAT      O71671   1.393   4.906   9.595
23810WAT     H171672   1.311   4.850   9.582
23810WAT     H271673   1.451   4.901   9.513
23811WAT      O71674   8.348   5.349   0.215
23811WAT     H171675   8.330   5.411   0.291
23811WAT     H271676   8.408   5.394   0.149
23812WAT      O71677   5.520   4.554   6.564
23812WAT     H171678   5.463   4.505   6.630
23812WAT     H271679   5.463   4.617   6.511
23813WAT      O71680   6.391   0.561   7.816
23813WAT     H171681   6.297   0.559   7.851
23813WAT     H271682   6.430   0.469   7.821
23814WAT      O71683   9.035   2.784   1.726
23814WAT     H171684   8.956   2.831   1.688
23814WAT     H271685   9.089   2.848   1.781
23815WAT      O71686   2.703   6.492   7.015
23815WAT     H171687   2.781   6.471   6.956
23815WAT     H271688   2.633   6.422   7.003
23816WAT      O71689   9.647   6.981   5.557
23816WAT     H171690   9.602   6.895   5.531
23816WAT     H271691   9.714   7.006   5.487
23817WAT      O71692   7.305   4.339   1.999
23817WAT     H171693   7.257   4.395   1.932
23817WAT     H271694   7.401   4.330   1.973
23818WAT      O71695   9.367   8.247   6.467
23818WAT     H171696   9.432   8.190   6.417
23818WAT     H271697   9.416   8.302   6.536
23819WAT      O71698   7.858   2.413   5.485
23819WAT     H171699   7.828   2.508   5.497
23819WAT     H271700   7.938   2.412   5.425
23820WAT      O71701   1.547   0.891   2.145
23820WAT     H171702   1.498   0.906   2.230
23820WAT     H271703   1.628   0.948   2.142
23821WAT      O71704   0.108   5.037   8.760
23821WAT     H171705   0.109   4.956   8.819
23821WAT     H271706   0.046   5.106   8.798
23822WAT      O71707   6.687   6.943   2.004
23822WAT     H171708   6.678   6.854   2.049
23822WAT     H271709   6.685   7.016   2.073
23823WAT      O71710   9.377   8.650   4.633
23823WAT     H171711   9.345   8.558   4.654
23823WAT     H271712   9.453   8.673   4.695
23824WAT      O71713   7.925   5.479   1.044
23824WAT     H171714   7.827   5.478   1.024
23824WAT     H271715   7.977   5.468   0.959
23825WAT      O71716   7.085   5.094   9.406
23825WAT     H171717   7.001   5.040   9.396
23825WAT     H271718   7.085   5.167   9.337
23826WAT      O71719   1.922   0.381   5.183
23826WAT     H171720   2.021   0.389   5.180
23826WAT     H271721   1.897   0.291   5.220
23827WAT      O71722   6.652   2.371   1.220
23827WAT     H171723   6.704   2.447   1.260
23827WAT     H271724   6.670   2.288   1.272
23828WAT      O71725   0.585   6.950   9.665
23828WAT     H171726   0.514   6.885   9.635
23828WAT     H271727   0.591   7.025   9.600
23829WAT      O71728   0.001   0.847   6.549
23829WAT     H171729   0.083   0.825   6.602
23829WAT     H271730  -0.021   0.771   6.488
23830WAT      O71731   2.222   4.734   1.898
23830WAT     H171732   2.156   4.808   1.908
23830WAT     H271733   2.261   4.712   1.987
23831WAT      O71734   9.871   7.277   8.525
23831WAT     H171735   9.837   7.358   8.573
23831WAT     H271736   9.798   7.240   8.468
23832WAT      O71737   0.917   3.843   2.472
23832WAT     H171738   0.853   3.919   2.486
23832WAT     H271739   0.942   3.804   2.561
23833WAT      O71740   3.832   1.533   0.123
23833WAT     H171741   3.771   1.491   0.190
23833WAT     H271742   3.857   1.625   0.154
23834WAT      O71743   8.803   5.974   9.225
23834WAT     H171744   8.794   6.012   9.317
23834WAT     H271745   8.892   6.001   9.187
23835WAT      O71746   9.404   9.539   7.793
23835WAT     H171747   9.449   9.504   7.875
23835WAT     H271748   9.339   9.611   7.818
23836WAT      O71749   4.734   7.743   2.079
23836WAT     H171750   4.680   7.708   2.155
23836WAT     H271751   4.700   7.704   1.993
23837WAT      O71752   4.156   9.496   3.390
23837WAT     H171753   4.179   9.436   3.313
23837WAT     H271754   4.105   9.575   3.356
23838WAT      O71755   3.374   0.343   8.876
23838WAT     H171756   3.387   0.407   8.952
23838WAT     H271757   3.394   0.250   8.906
23839WAT      O71758   6.224   7.263   9.706
23839WAT     H171759   6.145   7.325   9.701
23839WAT     H271760   6.302   7.312   9.745
23840WAT      O71761   3.748   9.810   0.918
23840WAT     H171762   3.803   9.795   0.835
23840WAT     H271763   3.774   9.743   0.987
23841WAT      O71764   8.055   5.779   4.149
23841WAT     H171765   7.982   5.715   4.172
23841WAT     H271766   8.122   5.782   4.224
23842WAT      O71767   7.458   8.483   2.883
23842WAT     H171768   7.435   8.479   2.786
23842WAT     H271769   7.427   8.399   2.928
23843WAT      O71770   3.290   3.488   7.062
23843WAT     H171771   3.200   3.447   7.053
23843WAT     H271772   3.281   3.581   7.098
23844WAT      O71773   7.778   0.670   3.974
23844WAT     H171774   7.682   0.653   3.996
23844WAT     H271775   7.797   0.768   3.978
23845WAT      O71776   1.861   4.756   6.264
23845WAT     H171777   1.895   4.681   6.208
23845WAT     H271778   1.935   4.821   6.281
23846WAT      O71779   7.001   8.827   6.603
23846WAT     H171780   7.003   8.925   6.584
23846WAT     H271781   6.934   8.784   6.542
23847WAT      O71782   8.891   4.565   8.448
23847WAT     H171783   8.939   4.649   8.423
23847WAT     H271784   8.833   4.536   8.372
23848WAT      O71785   6.835   7.887   8.160
23848WAT     H171786   6.867   7.813   8.220
23848WAT     H271787   6.749   7.924   8.195
23849WAT      O71788   4.306   8.214   2.038
23849WAT     H171789   4.272   8.308   2.038
23849WAT     H271790   4.237   8.153   2.079
23850WAT      O71791   6.129   0.481   6.880
23850WAT     H171792   6.034   0.472   6.851
23850WAT     H271793   6.189   0.481   6.799
23851WAT      O71794   0.199   5.538   3.614
23851WAT     H171795   0.224   5.594   3.536
23851WAT     H271796   0.196   5.442   3.587
23852WAT      O71797   6.315   6.676   2.220
23852WAT     H171798   6.327   6.775   2.229
23852WAT     H271799   6.229   6.649   2.263
23853WAT      O71800   5.854   5.433   6.354
23853WAT     H171801   5.861   5.502   6.282
23853WAT     H271802   5.838   5.343   6.312
23854WAT      O71803   7.362   2.722   2.519
23854WAT     H171804   7.355   2.770   2.432
23854WAT     H271805   7.274   2.681   2.542
23855WAT      O71806   9.401   9.666   2.498
23855WAT     H171807   9.430   9.623   2.584
23855WAT     H271808   9.348   9.601   2.444
23856WAT      O71809   9.679   1.264   0.426
23856WAT     H171810   9.645   1.206   0.500
23856WAT     H271811   9.627   1.245   0.342
23857WAT      O71812   7.209   3.047   6.327
23857WAT     H171813   7.167   2.977   6.385
23857WAT     H271814   7.213   3.014   6.232
23858WAT      O71815   6.835   8.420   8.283
23858WAT     H171816   6.898   8.464   8.347
23858WAT     H271817   6.770   8.364   8.334
23859WAT      O71818   1.379   6.080   1.514
23859WAT     H171819   1.383   6.158   1.577
23859WAT     H271820   1.308   6.096   1.446
23860WAT      O71821   3.675   4.400   5.941
23860WAT     H171822   3.610   4.324   5.933
23860WAT     H271823   3.768   4.365   5.936
23861WAT      O71824   3.066   5.493   4.244
23861WAT     H171825   3.153   5.452   4.272
23861WAT     H271826   2.991   5.432   4.271
23862WAT      O71827   3.996   3.619   3.040
23862WAT     H171828   3.906   3.614   2.998
23862WAT     H271829   4.027   3.527   3.064
23863WAT      O71830   9.877   8.517   2.317
23863WAT     H171831   9.887   8.579   2.395
23863WAT     H271832   9.801   8.454   2.335
23864WAT      O71833   9.775   2.612   5.136
23864WAT     H171834   9.771   2.517   5.167
23864WAT     H271835   9.805   2.615   5.041
23865WAT      O71836   5.470   9.275   9.701
23865WAT     H171837   5.478   9.366   9.662
23865WAT     H271838   5.517   9.272   9.789
23866WAT      O71839   7.167   8.849   5.595
23866WAT     H171840   7.125   8.897   5.519
23866WAT     H271841   7.258   8.817   5.568
23867WAT      O71842   8.000   1.266   9.255
23867WAT     H171843   7.998   1.173   9.290
23867WAT     H271844   7.915   1.313   9.278
23868WAT      O71845   2.566   9.650   0.216
23868WAT     H171846   2.654   9.636   0.171
23868WAT     H271847   2.548   9.574   0.278
23869WAT      O71848   0.884   0.493   4.689
23869WAT     H171849   0.975   0.460   4.667
23869WAT     H271850   0.825   0.486   4.608
23870WAT      O71851   5.827   9.386   5.357
23870WAT     H171852   5.914   9.358   5.317
23870WAT     H271853   5.824   9.485   5.364
23871WAT      O71854   3.373   3.718   4.601
23871WAT     H171855   3.439   3.719   4.677
23871WAT     H271856   3.281   3.734   4.637
23872WAT      O71857   0.507   4.890   7.949
23872WAT     H171858   0.575   4.948   7.905
23872WAT     H271859   0.475   4.821   7.884
23873WAT      O71860   5.890   4.280   1.704
23873WAT     H171861   5.926   4.200   1.753
23873WAT     H271862   5.960   4.316   1.643
23874WAT      O71863   2.461   2.974   5.089
23874WAT     H171864   2.494   3.032   5.164
23874WAT     H271865   2.364   2.954   5.102
23875WAT      O71866   7.767   4.578   0.207
23875WAT     H171867   7.751   4.642   0.132
23875WAT     H271868   7.865   4.563   0.218
23876WAT      O71869   1.213   4.278   4.278
23876WAT     H171870   1.151   4.340   4.230
23876WAT     H271871   1.165   4.234   4.353
23877WAT      O71872   4.959   0.528   8.509
23877WAT     H171873   5.030   0.551   8.442
23877WAT     H271874   4.878   0.493   8.461
23878WAT      O71875   5.073   4.144   6.382
23878WAT     H171876   5.164   4.123   6.346
23878WAT     H271877   5.043   4.232   6.347
23879WAT      O71878   6.964   3.179   7.416
23879WAT     H171879   7.054   3.158   7.454
23879WAT     H271880   6.973   3.254   7.350
23880WAT      O71881   2.930   3.968   7.074
23880WAT     H171882   2.970   3.990   7.163
23880WAT     H271883   2.989   4.004   7.001
23881WAT      O71884   8.012   7.707   0.091
23881WAT     H171885   7.977   7.616   0.070
23881WAT     H271886   7.997   7.728   0.187
23882WAT      O71887   9.358   4.482   5.052
23882WAT     H171888   9.291   4.553   5.077
23882WAT     H271889   9.309   4.400   5.021
23883WAT      O71890   7.600   0.770   0.272
23883WAT     H171891   7.536   0.821   0.330
23883WAT     H271892   7.575   0.673   0.273
23884WAT      O71893   1.016   3.938   1.456
23884WAT     H171894   0.956   3.898   1.524
23884WAT     H271895   0.996   3.898   1.366
23885WAT      O71896   6.614   5.582   7.416
23885WAT     H171897   6.523   5.564   7.454
23885WAT     H271898   6.624   5.680   7.400
23886WAT      O71899   6.693   3.473   7.819
23886WAT     H171900   6.684   3.402   7.749
23886WAT     H271901   6.690   3.430   7.909
23887WAT      O71902   5.588   6.171   1.549
23887WAT     H171903   5.655   6.245   1.555
23887WAT     H271904   5.627   6.096   1.495
23888WAT      O71905   1.231   1.526   1.000
23888WAT     H171906   1.318   1.488   0.969
23888WAT     H271907   1.167   1.529   0.923
23889WAT      O71908   5.702   1.248   6.414
23889WAT     H171909   5.726   1.151   6.405
23889WAT     H271910   5.714   1.294   6.326
23890WAT      O71911   0.913   0.972   8.511
23890WAT     H171912   0.942   0.894   8.566
23890WAT     H271913   0.946   1.057   8.553
23891WAT      O71914   8.484   7.585   1.948
23891WAT     H171915   8.549   7.518   1.982
23891WAT     H271916   8.508   7.612   1.854
23892WAT      O71917   3.239   0.952   6.056
23892WAT     H171918   3.255   1.048   6.034
23892WAT     H271919   3.222   0.900   5.972
23893WAT      O71920   4.985   0.280   9.364
23893WAT     H171921   5.043   0.359   9.347
23893WAT     H271922   5.027   0.198   9.325
23894WAT      O71923   8.818   4.940   0.517
23894WAT     H171924   8.815   4.851   0.472
23894WAT     H271925   8.798   4.928   0.615
23895WAT      O71926   1.611   3.076   5.609
23895WAT     H171927   1.600   3.150   5.675
23895WAT     H271928   1.672   3.105   5.536
23896WAT      O71929   3.777   8.781   7.585
23896WAT     H171930   3.707   8.765   7.516
23896WAT     H271931   3.738   8.770   7.676
23897WAT      O71932   8.229   3.094   8.266
23897WAT     H171933   8.225   3.013   8.208
23897WAT     H271934   8.192   3.173   8.217
23898WAT      O71935   4.063   2.900   0.417
23898WAT     H171936   4.118   2.866   0.340
23898WAT     H271937   4.106   2.873   0.503
23899WAT      O71938   4.747   2.908   7.424
23899WAT     H171939   4.760   3.000   7.388
23899WAT     H271940   4.649   2.886   7.423
23900WAT      O71941   1.174   7.313   9.531
23900WAT     H171942   1.255   7.363   9.501
23900WAT     H271943   1.149   7.245   9.461
23901WAT      O71944   4.499   0.580   4.343
23901WAT     H171945   4.560   0.512   4.384
23901WAT     H271946   4.443   0.622   4.414
23902WAT      O71947   5.798   8.224   2.468
23902WAT     H171948   5.873   8.164   2.439
23902WAT     H271949   5.756   8.266   2.388
23903WAT      O71950   1.825   0.372   1.159
23903WAT     H171951   1.744   0.352   1.105
23903WAT     H271952   1.854   0.467   1.142
23904WAT      O71953   4.105   9.792   5.685
23904WAT     H171954   4.153   9.804   5.772
23904WAT     H271955   4.020   9.741   5.700
23905WAT      O71956   2.579   1.846   6.101
23905WAT     H171957   2.578   1.829   6.003
23905WAT     H271958   2.660   1.805   6.142
23906WAT      O71959   1.997   9.685   2.767
23906WAT     H171960   1.964   9.734   2.687
23906WAT     H271961   1.922   9.633   2.808
23907WAT      O71962   8.124   1.713   9.346
23907WAT     H171963   8.096   1.801   9.384
23907WAT     H271964   8.084   1.639   9.400
23908WAT      O71965   7.804   5.266   1.529
23908WAT     H171966   7.728   5.312   1.574
23908WAT     H271967   7.774   5.231   1.440
23909WAT      O71968   5.375   2.044   1.679
23909WAT     H171969   5.310   2.098   1.626
23909WAT     H271970   5.325   1.988   1.746
23910WAT      O71971   7.714   8.000   3.978
23910WAT     H171972   7.777   8.003   3.901
23910WAT     H271973   7.766   8.005   4.064
23911WAT      O71974   8.927   4.755   5.295
23911WAT     H171975   8.843   4.725   5.340
23911WAT     H271976   8.914   4.847   5.257
23912WAT      O71977   3.043   5.793   1.060
23912WAT     H171978   3.082   5.711   1.103
23912WAT     H271979   3.114   5.841   1.009
23913WAT      O71980   4.436   3.205   2.557
23913WAT     H171981   4.368   3.277   2.572
23913WAT     H271982   4.392   3.125   2.517
23914WAT      O71983   7.611   9.495   4.572
23914WAT     H171984   7.698   9.510   4.524
23914WAT     H271985   7.584   9.399   4.563
23915WAT      O71986   1.210   5.589   2.066
23915WAT     H171987   1.159   5.674   2.057
23915WAT     H271988   1.178   5.540   2.147
23916WAT      O71989   8.417   9.815   5.620
23916WAT     H171990   8.423   9.790   5.717
23916WAT     H271991   8.394   9.735   5.565
23917WAT      O71992   9.415   9.228   3.011
23917WAT     H171993   9.443   9.240   2.915
23917WAT     H271994   9.322   9.262   3.022
23918WAT      O71995   1.902   3.027   3.444
23918WAT     H171996   1.943   3.065   3.362
23918WAT     H271997   1.812   3.068   3.459
23919WAT      O71998   2.669   1.600   5.371
23919WAT     H171999   2.695   1.529   5.437
23919WAT     H272000   2.580   1.578   5.331
23920WAT      O72001   5.926   8.611   5.440
23920WAT     H172002   6.015   8.640   5.404
23920WAT     H272003   5.928   8.613   5.540
23921WAT      O72004   3.736   4.475   7.491
23921WAT     H172005   3.736   4.528   7.406
23921WAT     H272006   3.714   4.380   7.471
23922WAT      O72007   7.694   5.008   5.497
23922WAT     H172008   7.634   4.961   5.562
23922WAT     H272009   7.702   4.954   5.413
23923WAT      O72010   1.638   5.266   1.720
23923WAT     H172011   1.604   5.200   1.787
23923WAT     H272012   1.708   5.323   1.762
23924WAT      O72013   0.019   0.418   5.617
23924WAT     H172014   0.032   0.506   5.570
23924WAT     H272015  -0.050   0.428   5.688
23925WAT      O72016   9.247   1.489   1.111
23925WAT     H172017   9.306   1.408   1.118
23925WAT     H272018   9.304   1.571   1.107
23926WAT      O72019   1.567   8.022   0.252
23926WAT     H172020   1.522   7.934   0.262
23926WAT     H272021   1.517   8.079   0.187
23927WAT      O72022   4.828   9.015   0.420
23927WAT     H172023   4.881   9.035   0.502
23927WAT     H272024   4.766   8.938   0.438
23928WAT      O72025   3.232   7.783   9.679
23928WAT     H172026   3.185   7.724   9.613
23928WAT     H272027   3.169   7.854   9.710
23929WAT      O72028   4.361   7.653   4.601
23929WAT     H172029   4.411   7.703   4.531
23929WAT     H272030   4.372   7.554   4.585
23930WAT      O72031   8.893   4.993   2.573
23930WAT     H172032   8.971   5.037   2.527
23930WAT     H272033   8.808   5.019   2.527
23931WAT      O72034   2.891   8.046   9.555
23931WAT     H172035   2.823   8.110   9.593
23931WAT     H272036   2.844   7.970   9.510
23932WAT      O72037   0.463   3.171   4.008
23932WAT     H172038   0.541   3.133   3.958
23932WAT     H272039   0.384   3.176   3.947
23933WAT      O72040   2.049   7.797   6.312
23933WAT     H172041   2.117   7.746   6.364
23933WAT     H272042   2.094   7.847   6.238
23934WAT      O72043   2.249   8.799   2.400
23934WAT     H172044   2.192   8.779   2.320
23934WAT     H272045   2.200   8.861   2.461
23935WAT      O72046   7.209   8.280   9.676
23935WAT     H172047   7.247   8.231   9.755
23935WAT     H272048   7.154   8.217   9.621
23936WAT      O72049   2.099   2.956   2.873
23936WAT     H172050   2.190   2.973   2.912
23936WAT     H272051   2.050   2.890   2.929
23937WAT      O72052   0.725   4.716   7.795
23937WAT     H172053   0.791   4.661   7.745
23937WAT     H272054   0.634   4.702   7.757
23938WAT      O72055   1.865   2.518   1.517
23938WAT     H172056   1.940   2.583   1.507
23938WAT     H272057   1.870   2.449   1.444
23939WAT      O72058   8.394   6.401   1.272
23939WAT     H172059   8.394   6.493   1.234
23939WAT     H272060   8.313   6.352   1.238
23940WAT      O72061   8.380   9.338   9.100
23940WAT     H172062   8.446   9.284   9.153
23940WAT     H272063   8.377   9.304   9.006
23941WAT      O72064   6.518   4.976   0.958
23941WAT     H172065   6.559   5.057   1.000
23941WAT     H272066   6.420   4.992   0.944
23942WAT      O72067   1.897   9.033   7.299
23942WAT     H172068   1.981   8.989   7.267
23942WAT     H272069   1.879   9.007   7.394
23943WAT      O72070   0.310   9.097   0.864
23943WAT     H172071   0.331   9.069   0.958
23943WAT     H272072   0.395   9.107   0.813
23944WAT      O72073   8.610   9.400   2.083
23944WAT     H172074   8.677   9.451   2.029
23944WAT     H272075   8.566   9.331   2.025
23945WAT      O72076   1.285   9.062   2.598
23945WAT     H172077   1.291   8.994   2.525
23945WAT     H272078   1.190   9.070   2.628
23946WAT      O72079   9.461   8.641   5.389
23946WAT     H172080   9.412   8.557   5.414
23946WAT     H272081   9.509   8.676   5.469
23947WAT      O72082   0.209   0.255   1.789
23947WAT     H172083   0.296   0.214   1.815
23947WAT     H272084   0.140   0.233   1.858
23948WAT      O72085   3.342   8.349   9.244
23948WAT     H172086   3.308   8.442   9.255
23948WAT     H272087   3.440   8.347   9.265
23949WAT      O72088   9.197   0.338   8.378
23949WAT     H172089   9.225   0.382   8.463
23949WAT     H272090   9.221   0.397   8.300
23950WAT      O72091   7.589   9.674   3.035
23950WAT     H172092   7.553   9.708   3.122
23950WAT     H272093   7.513   9.660   2.971
23951WAT      O72094   6.819   3.720   1.755
23951WAT     H172095   6.919   3.721   1.753
23951WAT     H272096   6.785   3.812   1.737
23952WAT      O72097   2.541   0.316   0.584
23952WAT     H172098   2.562   0.328   0.681
23952WAT     H272099   2.483   0.391   0.553
23953WAT      O72100   6.120   5.478   9.325
23953WAT     H172101   6.048   5.441   9.267
23953WAT     H272102   6.185   5.529   9.268
23954WAT      O72103   3.935   7.664   1.913
23954WAT     H172104   3.906   7.569   1.898
23954WAT     H272105   4.004   7.688   1.845
23955WAT      O72106   2.561   6.536   1.640
23955WAT     H172107   2.552   6.528   1.739
23955WAT     H272108   2.633   6.474   1.608
23956WAT      O72109   3.572   9.160   1.110
23956WAT     H172110   3.579   9.255   1.139
23956WAT     H272111   3.589   9.154   1.011
23957WAT      O72112   5.362   1.675   5.014
23957WAT     H172113   5.452   1.700   4.977
23957WAT     H272114   5.319   1.755   5.055
23958WAT      O72115   0.469   3.169   8.431
23958WAT     H172116   0.498   3.223   8.352
23958WAT     H272117   0.413   3.227   8.491
23959WAT      O72118   6.421   2.837   6.601
23959WAT     H172119   6.372   2.803   6.521
23959WAT     H272120   6.505   2.783   6.614
23960WAT      O72121   5.466   1.586   0.220
23960WAT     H172122   5.449   1.490   0.202
23960WAT     H272123   5.382   1.630   0.251
23961WAT      O72124   6.108   7.175   7.779
23961WAT     H172125   6.160   7.254   7.809
23961WAT     H272126   6.018   7.175   7.824
23962WAT      O72127   0.388   5.221   7.092
23962WAT     H172128   0.331   5.300   7.071
23962WAT     H272129   0.465   5.218   7.030
23963WAT      O72130   9.002   6.009   5.314
23963WAT     H172131   8.964   5.955   5.239
23963WAT     H272132   8.994   6.106   5.293
23964WAT      O72133   4.800   5.494   7.037
23964WAT     H172134   4.784   5.583   6.994
23964WAT     H272135   4.718   5.438   7.029
23965WAT      O72136   7.756   0.049   7.224
23965WAT     H172137   7.666   0.082   7.198
23965WAT     H272138   7.813   0.126   7.254
23966WAT      O72139   3.788   2.466   0.536
23966WAT     H172140   3.719   2.400   0.567
23966WAT     H272141   3.755   2.512   0.454
23967WAT      O72142   0.883   9.356   1.172
23967WAT     H172143   0.931   9.279   1.131
23967WAT     H272144   0.830   9.404   1.101
23968WAT      O72145   9.712   2.379   0.447
23968WAT     H172146   9.805   2.388   0.411
23968WAT     H272147   9.710   2.409   0.542
23969WAT      O72148   1.445   2.788   1.419
23969WAT     H172149   1.429   2.873   1.470
23969WAT     H272150   1.519   2.737   1.463
23970WAT      O72151   3.537   1.113   5.362
23970WAT     H172152   3.616   1.170   5.339
23970WAT     H272153   3.519   1.048   5.288
23971WAT      O72154   0.374   2.124   4.496
23971WAT     H172155   0.344   2.173   4.415
23971WAT     H272156   0.298   2.071   4.533
23972WAT      O72157   2.829   8.998   8.330
23972WAT     H172158   2.795   8.904   8.330
23972WAT     H272159   2.766   9.057   8.379
23973WAT      O72160   6.640   1.182   4.909
23973WAT     H172161   6.601   1.188   4.818
23973WAT     H272162   6.674   1.272   4.937
23974WAT      O72163   4.002   0.782   2.421
23974WAT     H172164   3.941   0.782   2.500
23974WAT     H272165   4.072   0.712   2.433
23975WAT      O72166   6.085   1.869   2.186
23975WAT     H172167   5.987   1.875   2.167
23975WAT     H272168   6.131   1.820   2.112
23976WAT      O72169   2.166   3.737   8.189
23976WAT     H172170   2.154   3.805   8.261
23976WAT     H272171   2.076   3.705   8.159
23977WAT      O72172   5.362   6.829   6.578
23977WAT     H172173   5.400   6.762   6.642
23977WAT     H272174   5.435   6.863   6.518
23978WAT      O72175   6.648   5.482   1.397
23978WAT     H172176   6.666   5.496   1.300
23978WAT     H272177   6.556   5.516   1.419
23979WAT      O72178   5.687   2.389   2.546
23979WAT     H172179   5.602   2.362   2.502
23979WAT     H272180   5.756   2.317   2.534
23980WAT      O72181   6.145   0.345   7.493
23980WAT     H172182   6.069   0.380   7.439
23980WAT     H272183   6.227   0.339   7.435
23981WAT      O72184   0.727   4.740   3.576
23981WAT     H172185   0.787   4.791   3.514
23981WAT     H272186   0.632   4.750   3.545
23982WAT      O72187   6.555   8.079   4.477
23982WAT     H172188   6.642   8.093   4.430
23982WAT     H272189   6.481   8.074   4.410
23983WAT      O72190   3.032   0.714   2.398
23983WAT     H172191   3.127   0.713   2.430
23983WAT     H272192   3.016   0.796   2.343
23984WAT      O72193   6.752   5.119   4.029
23984WAT     H172194   6.715   5.152   3.942
23984WAT     H272195   6.848   5.146   4.037
23985WAT      O72196   8.289   3.499   9.539
23985WAT     H172197   8.335   3.410   9.543
23985WAT     H272198   8.345   3.568   9.586
23986WAT      O72199   3.450   5.403   9.202
23986WAT     H172200   3.399   5.332   9.153
23986WAT     H272201   3.507   5.454   9.137
23987WAT      O72202   5.333   8.779   0.911
23987WAT     H172203   5.403   8.845   0.883
23987WAT     H272204   5.268   8.766   0.837
23988WAT      O72205   6.808   8.795   4.241
23988WAT     H172206   6.720   8.758   4.210
23988WAT     H272207   6.801   8.894   4.249
23989WAT      O72208   8.509   8.093   8.947
23989WAT     H172209   8.560   8.102   8.862
23989WAT     H272210   8.411   8.107   8.930
23990WAT      O72211   6.369   2.014   7.414
23990WAT     H172212   6.415   2.058   7.337
23990WAT     H272213   6.275   1.990   7.388
23991WAT      O72214   5.224   6.607   7.670
23991WAT     H172215   5.227   6.525   7.727
23991WAT     H272216   5.257   6.585   7.578
23992WAT      O72217   3.072   4.121   7.833
23992WAT     H172218   3.081   4.022   7.841
23992WAT     H272219   2.975   4.145   7.825
23993WAT      O72220   0.918   8.422   8.602
23993WAT     H172221   0.985   8.483   8.644
23993WAT     H272222   0.863   8.474   8.537
23994WAT      O72223   0.218   6.250   4.903
23994WAT     H172224   0.251   6.180   4.966
23994WAT     H272225   0.296   6.289   4.854
23995WAT      O72226   2.384   3.189   5.648
23995WAT     H172227   2.399   3.116   5.582
23995WAT     H272228   2.469   3.239   5.663
23996WAT      O72229   0.911   1.218   5.638
23996WAT     H172230   0.871   1.309   5.644
23996WAT     H272231   0.948   1.191   5.727
23997WAT      O72232   1.245   4.826   2.685
23997WAT     H172233   1.299   4.752   2.645
23997WAT     H272234   1.188   4.868   2.614
23998WAT      O72235   2.692   9.652   3.398
23998WAT     H172236   2.744   9.567   3.393
23998WAT     H272237   2.643   9.655   3.486
23999WAT      O72238   6.781   7.875   0.893
23999WAT     H172239   6.733   7.787   0.892
23999WAT     H272240   6.779   7.913   0.985
24000WAT      O72241   4.650   9.657   1.131
24000WAT     H172242   4.632   9.725   1.202
24000WAT     H272243   4.624   9.566   1.164
24001WAT      O72244   7.101   5.575   6.899
24001WAT     H172245   7.032   5.646   6.915
24001WAT     H272246   7.078   5.494   6.954
24002WAT      O72247   4.580   8.153   0.795
24002WAT     H172248   4.615   8.068   0.834
24002WAT     H272249   4.645   8.187   0.727
24003WAT      O72250   5.898   0.654   1.724
24003WAT     H172251   5.823   0.610   1.773
24003WAT     H272252   5.929   0.734   1.775
24004WAT      O72253   2.586   0.685   9.762
24004WAT     H172254   2.615   0.777   9.786
24004WAT     H272255   2.650   0.618   9.801
24005WAT      O72256   2.856   3.565   7.657
24005WAT     H172257   2.924   3.587   7.726
24005WAT     H272258   2.901   3.531   7.574
24006WAT      O72259   3.401   5.448   1.577
24006WAT     H172260   3.423   5.515   1.647
24006WAT     H272261   3.304   5.424   1.582
24007WAT      O72262   7.811   2.527   9.637
24007WAT     H172263   7.801   2.455   9.569
24007WAT     H272264   7.779   2.614   9.600
24008WAT      O72265   0.074   3.102   0.074
24008WAT     H172266   0.061   3.201   0.084
24008WAT     H272267   0.165   3.077   0.107
24009WAT      O72268   1.937   6.557   7.820
24009WAT     H172269   1.891   6.528   7.737
24009WAT     H272270   1.869   6.586   7.888
24010WAT      O72271   9.432   3.232   9.326
24010WAT     H172272   9.347   3.204   9.372
24010WAT     H272273   9.509   3.181   9.364
24011WAT      O72274   3.770   8.398   2.958
24011WAT     H172275   3.688   8.355   2.920
24011WAT     H272276   3.831   8.328   2.994
24012WAT      O72277   7.501   4.507   4.779
24012WAT     H172278   7.420   4.565   4.781
24012WAT     H272279   7.560   4.535   4.703
24013WAT      O72280   6.046   4.359   1.510
24013WAT     H172281   6.072   4.428   1.577
24013WAT     H272282   6.092   4.378   1.423
24014WAT      O72283   3.314   0.624   2.495
24014WAT     H172284   3.383   0.695   2.482
24014WAT     H272285   3.347   0.538   2.456
24015WAT      O72286   9.327   6.741   7.928
24015WAT     H172287   9.371   6.724   7.840
24015WAT     H272288   9.295   6.835   7.932
24016WAT      O72289   1.974   1.434   6.446
24016WAT     H172290   2.033   1.503   6.489
24016WAT     H272291   2.027   1.382   6.379
24017WAT      O72292   8.987   5.332   9.002
24017WAT     H172293   8.937   5.246   9.012
24017WAT     H272294   9.058   5.337   9.072
24018WAT      O72295   3.251   1.131   3.804
24018WAT     H172296   3.173   1.074   3.831
24018WAT     H272297   3.324   1.072   3.769
24019WAT      O72298   6.416   5.529   9.620
24019WAT     H172299   6.408   5.605   9.684
24019WAT     H272300   6.379   5.446   9.663
24020WAT      O72301   5.596   4.533   3.623
24020WAT     H172302   5.623   4.492   3.710
24020WAT     H272303   5.496   4.542   3.621
24021WAT      O72304   2.304   1.863   8.320
24021WAT     H172305   2.256   1.835   8.404
24021WAT     H272306   2.259   1.823   8.241
24022WAT      O72307   4.934   5.415   3.318
24022WAT     H172308   4.909   5.323   3.347
24022WAT     H272309   4.873   5.482   3.361
24023WAT      O72310   1.786   1.143   5.451
24023WAT     H172311   1.721   1.162   5.525
24023WAT     H272312   1.735   1.113   5.370
24024WAT      O72313   1.880   9.544   4.600
24024WAT     H172314   1.954   9.482   4.626
24024WAT     H272315   1.852   9.598   4.679
24025WAT      O72316   0.417   0.630   2.539
24025WAT     H172317   0.410   0.704   2.606
24025WAT     H272318   0.393   0.543   2.582
24026WAT      O72319   8.623   5.786   5.828
24026WAT     H172320   8.596   5.690   5.839
24026WAT     H272321   8.663   5.819   5.914
24027WAT      O72322   6.645   4.006   1.995
24027WAT     H172323   6.725   4.029   2.051
24027WAT     H272324   6.674   3.993   1.900
24028WAT      O72325   5.930   9.452   4.859
24028WAT     H172326   6.023   9.414   4.858
24028WAT     H272327   5.897   9.462   4.765
24029WAT      O72328   3.123   7.240   1.241
24029WAT     H172329   3.044   7.181   1.254
24029WAT     H272330   3.114   7.289   1.154
24030WAT      O72331   3.821   4.184   3.607
24030WAT     H172332   3.861   4.093   3.617
24030WAT     H272333   3.742   4.192   3.667
24031WAT      O72334   2.465   7.271   4.402
24031WAT     H172335   2.376   7.285   4.446
24031WAT     H272336   2.476   7.337   4.327
24032WAT      O72337   8.998   7.355   2.663
24032WAT     H172338   8.993   7.279   2.728
24032WAT     H272339   9.081   7.407   2.679
24033WAT      O72340   5.461   5.047   2.679
24033WAT     H172341   5.491   4.989   2.754
24033WAT     H272342   5.363   5.032   2.662
24034WAT      O72343   4.069   9.084   1.717
24034WAT     H172344   4.108   9.044   1.800
24034WAT     H272345   4.101   9.033   1.637
24035WAT      O72346   7.817   2.803   1.177
24035WAT     H172347   7.733   2.853   1.157
24035WAT     H272348   7.893   2.867   1.184
24036WAT      O72349   4.762   3.299   0.307
24036WAT     H172350   4.680   3.354   0.287
24036WAT     H272351   4.743   3.239   0.384
24037WAT      O72352   7.495   5.000   6.918
24037WAT     H172353   7.490   4.930   6.847
24037WAT     H272354   7.408   5.048   6.924
24038WAT      O72355   1.953   5.577   0.286
24038WAT     H172356   2.023   5.510   0.311
24038WAT     H272357   1.914   5.617   0.369
24039WAT      O72358   1.100   0.233   5.487
24039WAT     H172359   1.042   0.309   5.459
24039WAT     H272360   1.112   0.235   5.587
24040WAT      O72361   8.920   8.595   9.838
24040WAT     H172362   9.006   8.644   9.823
24040WAT     H272363   8.866   8.642   9.908
24041WAT      O72364   9.225   3.594   7.745
24041WAT     H172365   9.322   3.572   7.750
24041WAT     H272366   9.212   3.692   7.753
24042WAT      O72367   6.980   2.775   3.936
24042WAT     H172368   6.908   2.801   3.871
24042WAT     H272369   7.046   2.850   3.943
24043WAT      O72370   7.471   3.271   8.577
24043WAT     H172371   7.533   3.343   8.610
24043WAT     H272372   7.377   3.305   8.578
24044WAT      O72373   0.818   5.889   9.332
24044WAT     H172374   0.855   5.891   9.425
24044WAT     H272375   0.882   5.935   9.270
24045WAT      O72376   9.226   3.143   9.477
24045WAT     H172377   9.142   3.196   9.492
24045WAT     H272378   9.258   3.107   9.565
24046WAT      O72379   2.770   7.036   9.693
24046WAT     H172380   2.672   7.055   9.696
24046WAT     H272381   2.803   7.015   9.785
24047WAT      O72382   8.392   3.051   0.966
24047WAT     H172383   8.318   3.028   0.903
24047WAT     H272384   8.357   3.110   1.038
24048WAT      O72385   2.941   2.436   7.139
24048WAT     H172386   2.976   2.460   7.048
24048WAT     H272387   2.863   2.495   7.161
24049WAT      O72388   6.797   7.399   8.661
24049WAT     H172389   6.794   7.303   8.688
24049WAT     H272390   6.880   7.417   8.609
24050WAT      O72391   8.868   9.020   2.606
24050WAT     H172392   8.843   9.099   2.550
24050WAT     H272393   8.795   8.952   2.603
24051WAT      O72394   5.460   2.138   3.600
24051WAT     H172395   5.427   2.137   3.505
24051WAT     H272396   5.437   2.226   3.642
24052WAT      O72397   5.741   9.280   5.608
24052WAT     H172398   5.832   9.254   5.642
24052WAT     H272399   5.751   9.332   5.523
24053WAT      O72400   9.573   0.923   7.041
24053WAT     H172401   9.478   0.917   7.070
24053WAT     H272402   9.594   1.018   7.016
24054WAT      O72403   5.806   1.584   2.184
24054WAT     H172404   5.885   1.569   2.243
24054WAT     H272405   5.824   1.546   2.093
24055WAT      O72406   8.686   5.347   7.932
24055WAT     H172407   8.783   5.343   7.908
24055WAT     H272408   8.674   5.399   8.017
24056WAT      O72409   2.552   5.869   7.176
24056WAT     H172410   2.458   5.881   7.210
24056WAT     H272411   2.606   5.820   7.245
24057WAT      O72412   6.116   4.952   4.270
24057WAT     H172413   6.135   5.044   4.236
24057WAT     H272414   6.201   4.912   4.307
24058WAT      O72415   0.325   4.224   4.221
24058WAT     H172416   0.366   4.171   4.294
24058WAT     H272417   0.354   4.186   4.132
24059WAT      O72418   7.060   6.715   5.147
24059WAT     H172419   6.962   6.709   5.167
24059WAT     H272420   7.110   6.730   5.231
24060WAT      O72421   9.009   4.104   1.348
24060WAT     H172422   9.015   4.038   1.272
24060WAT     H272423   8.950   4.066   1.420
24061WAT      O72424   7.437   5.782   8.297
24061WAT     H172425   7.519   5.728   8.277
24061WAT     H272426   7.445   5.871   8.252
24062WAT      O72427   6.395   7.588   7.843
24062WAT     H172428   6.365   7.669   7.894
24062WAT     H272429   6.447   7.618   7.762
24063WAT      O72430   3.056   1.099   3.158
24063WAT     H172431   3.073   1.193   3.188
24063WAT     H272432   3.099   1.035   3.223
24064WAT      O72433   6.055   5.771   8.882
24064WAT     H172434   6.067   5.841   8.811
24064WAT     H272435   6.041   5.815   8.971
24065WAT      O72436   5.457   3.755   2.306
24065WAT     H172437   5.509   3.718   2.229
24065WAT     H272438   5.477   3.852   2.316
24066WAT      O72439   1.382   2.891   3.370
24066WAT     H172440   1.379   2.991   3.364
24066WAT     H272441   1.471   2.863   3.408
24067WAT      O72442   1.173   1.004   5.611
24067WAT     H172443   1.198   1.100   5.627
24067WAT     H272444   1.137   0.994   5.519
24068WAT      O72445   2.492   1.364   2.853
24068WAT     H172446   2.392   1.365   2.857
24068WAT     H272447   2.529   1.438   2.909
24069WAT      O72448   7.448   3.899   6.486
24069WAT     H172449   7.430   3.805   6.458
24069WAT     H272450   7.546   3.914   6.494
24070WAT      O72451   1.745   2.568   0.213
24070WAT     H172452   1.712   2.662   0.220
24070WAT     H272453   1.817   2.552   0.281
24071WAT      O72454   2.594   4.040   5.506
24071WAT     H172455   2.561   3.949   5.532
24071WAT     H272456   2.683   4.057   5.550
24072WAT      O72457   3.884   2.679   4.335
24072WAT     H172458   3.945   2.600   4.336
24072WAT     H272459   3.803   2.658   4.280
24073WAT      O72460   5.626   1.139   9.088
24073WAT     H172461   5.567   1.071   9.046
24073WAT     H272462   5.632   1.123   9.186
24074WAT      O72463   1.119   4.676   5.764
24074WAT     H172464   1.190   4.745   5.752
24074WAT     H272465   1.083   4.681   5.858
24075WAT      O72466   8.379   6.412   5.542
24075WAT     H172467   8.370   6.369   5.632
24075WAT     H272468   8.313   6.372   5.479
24076WAT      O72469   3.993   6.246   5.365
24076WAT     H172470   3.930   6.287   5.300
24076WAT     H272471   3.972   6.277   5.458
24077WAT      O72472   7.746   1.710   4.705
24077WAT     H172473   7.745   1.629   4.646
24077WAT     H272474   7.680   1.697   4.780
24078WAT      O72475   7.689   6.477   2.712
24078WAT     H172476   7.667   6.466   2.809
24078WAT     H272477   7.617   6.436   2.656
24079WAT      O72478   0.206   0.894   6.125
24079WAT     H172479   0.244   0.952   6.053
24079WAT     H272480   0.228   0.934   6.214
24080WAT      O72481   8.038   6.837   0.671
24080WAT     H172482   8.070   6.745   0.651
24080WAT     H272483   8.117   6.899   0.675
24081WAT      O72484   8.735   0.296   8.753
24081WAT     H172485   8.736   0.196   8.746
24081WAT     H272486   8.789   0.325   8.832
24082WAT      O72487   2.731   2.756   0.754
24082WAT     H172488   2.750   2.719   0.845
24082WAT     H272489   2.791   2.833   0.735
24083WAT      O72490   2.074   7.198   2.646
24083WAT     H172491   2.034   7.116   2.605
24083WAT     H272492   2.054   7.200   2.744
24084WAT      O72493   4.834   1.004   4.621
24084WAT     H172494   4.880   1.056   4.693
24084WAT     H272495   4.861   1.040   4.532
24085WAT      O72496   7.925   8.628   7.900
24085WAT     H172497   7.880   8.554   7.950
24085WAT     H272498   8.021   8.603   7.883
24086WAT      O72499   6.349   8.154   6.389
24086WAT     H172500   6.350   8.114   6.298
24086WAT     H272501   6.416   8.108   6.447
24087WAT      O72502   4.760   8.285   9.431
24087WAT     H172503   4.668   8.323   9.419
24087WAT     H272504   4.827   8.348   9.391
24088WAT      O72505   1.561   8.885   2.707
24088WAT     H172506   1.528   8.795   2.737
24088WAT     H272507   1.555   8.949   2.783
24089WAT      O72508   5.008   4.306   4.747
24089WAT     H172509   5.090   4.351   4.783
24089WAT     H272510   4.989   4.339   4.654
24090WAT      O72511   2.412   3.635   3.148
24090WAT     H172512   2.358   3.550   3.152
24090WAT     H272513   2.499   3.616   3.103
24091WAT      O72514   0.704   6.391   4.765
24091WAT     H172515   0.711   6.486   4.734
24091WAT     H272516   0.637   6.342   4.709
24092WAT      O72517   2.893   7.195   4.722
24092WAT     H172518   2.939   7.144   4.795
24092WAT     H272519   2.928   7.164   4.634
24093WAT      O72520   2.494   9.020   8.499
24093WAT     H172521   2.561   9.095   8.491
24093WAT     H272522   2.507   8.956   8.423
24094WAT      O72523   2.103   1.088   6.793
24094WAT     H172524   2.200   1.110   6.783
24094WAT     H272525   2.074   1.028   6.719
24095WAT      O72526   6.082   9.683   1.962
24095WAT     H172527   6.041   9.758   2.014
24095WAT     H272528   6.108   9.609   2.024
24096WAT      O72529   3.994   9.380   0.550
24096WAT     H172530   3.946   9.292   0.544
24096WAT     H272531   4.091   9.364   0.569
24097WAT      O72532   1.039   8.477   6.910
24097WAT     H172533   1.076   8.447   6.998
24097WAT     H272534   0.960   8.537   6.926
24098WAT      O72535   6.441   4.231   0.721
24098WAT     H172536   6.541   4.227   0.717
24098WAT     H272537   6.411   4.322   0.690
24099WAT      O72538   7.939   6.578   4.423
24099WAT     H172539   8.032   6.554   4.451
24099WAT     H272540   7.879   6.499   4.436
24100WAT      O72541   5.901   0.786   7.810
24100WAT     H172542   5.961   0.806   7.888
24100WAT     H272543   5.832   0.719   7.838
24101WAT      O72544   5.292   3.962   6.552
24101WAT     H172545   5.279   3.867   6.581
24101WAT     H272546   5.209   4.014   6.569
24102WAT      O72547   4.797   3.119   4.912
24102WAT     H172548   4.765   3.129   4.817
24102WAT     H272549   4.822   3.024   4.928
24103WAT      O72550   7.279   8.510   5.540
24103WAT     H172551   7.302   8.508   5.637
24103WAT     H272552   7.363   8.506   5.486
24104WAT      O72553   6.859   7.088   6.390
24104WAT     H172554   6.956   7.082   6.411
24104WAT     H272555   6.809   7.020   6.443
24105WAT      O72556   2.892   1.800   7.671
24105WAT     H172557   2.991   1.791   7.680
24105WAT     H272558   2.847   1.757   7.749
24106WAT      O72559   7.739   0.942   7.507
24106WAT     H172560   7.801   0.947   7.429
24106WAT     H272561   7.693   0.853   7.508
24107WAT      O72562   7.914   6.944   0.433
24107WAT     H172563   7.925   6.881   0.510
24107WAT     H272564   7.877   6.896   0.354
24108WAT      O72565   0.324   9.622   9.685
24108WAT     H172566   0.282   9.685   9.750
24108WAT     H272567   0.269   9.619   9.602
24109WAT      O72568   5.523   9.451   3.552
24109WAT     H172569   5.534   9.503   3.637
24109WAT     H272570   5.577   9.494   3.480
24110WAT      O72571   2.695   5.409   4.057
24110WAT     H172572   2.704   5.338   4.126
24110WAT     H272573   2.598   5.429   4.041
24111WAT      O72574   5.465   4.503   2.892
24111WAT     H172575   5.373   4.505   2.932
24111WAT     H272576   5.502   4.411   2.897
24112WAT      O72577   9.651   0.687   7.158
24112WAT     H172578   9.622   0.767   7.105
24112WAT     H272579   9.748   0.695   7.181
24113WAT      O72580   3.015   4.750   3.399
24113WAT     H172581   2.939   4.788   3.452
24113WAT     H272582   3.048   4.667   3.443
24114WAT      O72583   1.672   6.542   4.268
24114WAT     H172584   1.738   6.487   4.319
24114WAT     H272585   1.604   6.481   4.227
24115WAT      O72586   0.882   5.521   8.467
24115WAT     H172587   0.982   5.524   8.465
24115WAT     H272588   0.851   5.521   8.562
24116WAT      O72589   2.922   3.203   9.688
24116WAT     H172590   2.945   3.180   9.593
24116WAT     H272591   2.863   3.133   9.726
24117WAT      O72592   2.972   3.152   0.154
24117WAT     H172593   2.969   3.166   0.055
24117WAT     H272594   2.977   3.241   0.200
24118WAT      O72595   7.127   1.527   2.408
24118WAT     H172596   7.142   1.535   2.310
24118WAT     H272597   7.092   1.435   2.429
24119WAT      O72598   3.834   5.553   9.252
24119WAT     H172599   3.894   5.491   9.201
24119WAT     H272600   3.780   5.500   9.318
24120WAT      O72601   0.659   8.640   0.130
24120WAT     H172602   0.729   8.661   0.062
24120WAT     H272603   0.612   8.724   0.157
24121WAT      O72604   5.956   8.362   8.896
24121WAT     H172605   5.986   8.380   8.803
24121WAT     H272606   5.942   8.264   8.909
24122WAT      O72607   7.523   0.882   9.508
24122WAT     H172608   7.539   0.894   9.410
24122WAT     H272609   7.607   0.901   9.558
24123WAT      O72610   0.466   4.440   7.390
24123WAT     H172611   0.527   4.393   7.454
24123WAT     H272612   0.451   4.534   7.421
24124WAT      O72613   0.755   7.635   8.683
24124WAT     H172614   0.677   7.693   8.705
24124WAT     H272615   0.723   7.545   8.656
24125WAT      O72616   6.818   2.854   0.972
24125WAT     H172617   6.823   2.884   0.877
24125WAT     H272618   6.882   2.907   1.027
24126WAT      O72619   2.693   2.134   2.671
24126WAT     H172620   2.788   2.164   2.658
24126WAT     H272621   2.683   2.093   2.762
24127WAT      O72622   8.697   6.964   0.044
24127WAT     H172623   8.779   6.905   0.046
24127WAT     H272624   8.628   6.927   0.106
24128WAT      O72625   2.853   4.130   0.982
24128WAT     H172626   2.933   4.186   0.960
24128WAT     H272627   2.871   4.035   0.956
24129WAT      O72628   3.331   5.535   7.243
24129WAT     H172629   3.416   5.495   7.209
24129WAT     H272630   3.270   5.555   7.166
24130WAT      O72631   9.652   5.256   6.968
24130WAT     H172632   9.716   5.218   6.901
24130WAT     H272633   9.616   5.182   7.025
24131WAT      O72634   5.158   5.233   7.444
24131WAT     H172635   5.068   5.205   7.477
24131WAT     H272636   5.148   5.317   7.391
24132WAT      O72637   4.018   2.386   6.103
24132WAT     H172638   4.059   2.365   6.015
24132WAT     H272639   4.090   2.411   6.168
24133WAT      O72640   0.936   1.456   0.113
24133WAT     H172641   0.905   1.501   0.029
24133WAT     H272642   0.920   1.357   0.105
24134WAT      O72643   0.667   2.708   0.784
24134WAT     H172644   0.713   2.646   0.848
24134WAT     H272645   0.570   2.683   0.778
24135WAT      O72646   0.952   8.698   3.506
24135WAT     H172647   0.924   8.607   3.478
24135WAT     H272648   0.977   8.752   3.426
24136WAT      O72649   9.040   2.376   7.114
24136WAT     H172650   9.001   2.394   7.204
24136WAT     H272651   9.012   2.447   7.050
24137WAT      O72652   5.756   9.743   7.216
24137WAT     H172653   5.726   9.674   7.281
24137WAT     H272654   5.746   9.708   7.123
24138WAT      O72655   4.404   0.218   8.347
24138WAT     H172656   4.462   0.157   8.401
24138WAT     H272657   4.387   0.177   8.257
24139WAT      O72658   5.314   0.686   7.465
24139WAT     H172659   5.270   0.776   7.465
24139WAT     H272660   5.325   0.655   7.370
24140WAT      O72661   4.779   3.218   8.934
24140WAT     H172662   4.843   3.233   8.859
24140WAT     H272663   4.756   3.306   8.977
24141WAT      O72664   2.536   3.287   6.340
24141WAT     H172665   2.573   3.281   6.247
24141WAT     H272666   2.519   3.383   6.363
24142WAT      O72667   6.292   9.726   3.123
24142WAT     H172668   6.284   9.627   3.112
24142WAT     H272669   6.217   9.760   3.180
24143WAT      O72670   1.833   8.979   0.670
24143WAT     H172671   1.901   8.932   0.726
24143WAT     H272672   1.826   9.075   0.699
24144WAT      O72673   3.053   0.168   4.958
24144WAT     H172674   3.102   0.188   5.043
24144WAT     H272675   3.109   0.196   4.880
24145WAT      O72676   2.596   1.679   4.351
24145WAT     H172677   2.683   1.636   4.325
24145WAT     H272678   2.595   1.773   4.317
24146WAT      O72679   4.516   1.532   1.200
24146WAT     H172680   4.473   1.617   1.171
24146WAT     H272681   4.503   1.462   1.130
24147WAT      O72682   3.613   6.110   2.821
24147WAT     H172683   3.687   6.088   2.886
24147WAT     H272684   3.525   6.106   2.868
24148WAT      O72685   3.170   5.742   9.767
24148WAT     H172686   3.155   5.645   9.746
24148WAT     H272687   3.083   5.790   9.767
24149WAT      O72688   0.662   6.479   3.762
24149WAT     H172689   0.652   6.532   3.846
24149WAT     H272690   0.577   6.483   3.709
24150WAT      O72691   9.267   2.513   4.787
24150WAT     H172692   9.174   2.485   4.762
24150WAT     H272693   9.304   2.450   4.854
24151WAT      O72694   1.749   6.318   9.186
24151WAT     H172695   1.774   6.319   9.283
24151WAT     H272696   1.701   6.234   9.164
24152WAT      O72697   5.148   7.378   9.095
24152WAT     H172698   5.054   7.398   9.070
24152WAT     H272699   5.157   7.377   9.195
24153WAT      O72700   1.144   9.076   8.505
24153WAT     H172701   1.143   9.005   8.575
24153WAT     H272702   1.183   9.160   8.544
24154WAT      O72703   3.405   2.861   0.818
24154WAT     H172704   3.322   2.846   0.765
24154WAT     H272705   3.412   2.958   0.842
24155WAT      O72706   0.829   5.853   6.042
24155WAT     H172707   0.889   5.835   6.121
24155WAT     H272708   0.781   5.940   6.056
24156WAT      O72709   3.811   9.623   2.515
24156WAT     H172710   3.843   9.542   2.565
24156WAT     H272711   3.812   9.702   2.576
24157WAT      O72712   1.087   4.318   4.943
24157WAT     H172713   1.184   4.315   4.965
24157WAT     H272714   1.056   4.228   4.913
24158WAT      O72715   0.834   0.957   3.852
24158WAT     H172716   0.739   0.929   3.846
24158WAT     H272717   0.892   0.876   3.862
24159WAT      O72718   8.867   0.405   1.327
24159WAT     H172719   8.796   0.415   1.397
24159WAT     H272720   8.866   0.312   1.291
24160WAT      O72721   1.493   1.366   8.743
24160WAT     H172722   1.453   1.357   8.652
24160WAT     H272723   1.421   1.383   8.810
24161WAT      O72724   1.573   1.316   6.216
24161WAT     H172725   1.513   1.387   6.181
24161WAT     H272726   1.623   1.350   6.296
24162WAT      O72727   3.348   4.169   4.638
24162WAT     H172728   3.425   4.214   4.592
24162WAT     H272729   3.312   4.097   4.579
24163WAT      O72730   1.002   3.021   1.043
24163WAT     H172731   1.036   3.076   0.966
24163WAT     H272732   1.069   2.950   1.065
24164WAT      O72733   3.603   8.768   9.402
24164WAT     H172734   3.668   8.693   9.413
24164WAT     H272735   3.512   8.732   9.385
24165WAT      O72736   5.260   3.575   8.299
24165WAT     H172737   5.228   3.496   8.247
24165WAT     H272738   5.343   3.611   8.256
24166WAT      O72739   7.318   0.309   7.204
24166WAT     H172740   7.375   0.288   7.284
24166WAT     H272741   7.343   0.398   7.168
24167WAT      O72742   1.011   7.143   7.323
24167WAT     H172743   0.978   7.053   7.293
24167WAT     H272744   1.042   7.137   7.418
24168WAT      O72745   7.235   7.778   4.107
24168WAT     H172746   7.149   7.796   4.155
24168WAT     H272747   7.266   7.685   4.129
24169WAT      O72748   3.688   5.867   8.581
24169WAT     H172749   3.642   5.896   8.664
24169WAT     H272750   3.755   5.937   8.554
24170WAT      O72751   8.762   2.130   4.222
24170WAT     H172752   8.818   2.054   4.255
24170WAT     H272753   8.681   2.139   4.280
24171WAT      O72754   4.099   9.419   2.173
24171WAT     H172755   4.138   9.499   2.219
24171WAT     H272756   4.166   9.382   2.109
24172WAT      O72757   0.933   9.575   2.501
24172WAT     H172758   0.877   9.503   2.462
24172WAT     H272759   0.890   9.664   2.484
24173WAT      O72760   5.025   4.214   1.854
24173WAT     H172761   4.947   4.158   1.826
24173WAT     H272762   5.091   4.219   1.779
24174WAT      O72763   2.616   7.876   1.763
24174WAT     H172764   2.708   7.884   1.724
24174WAT     H272765   2.582   7.967   1.786
24175WAT      O72766   1.049   2.595   6.561
24175WAT     H172767   1.118   2.603   6.633
24175WAT     H272768   1.080   2.530   6.492
24176WAT      O72769   1.812   3.420   7.981
24176WAT     H172770   1.849   3.338   7.936
24176WAT     H272771   1.756   3.392   8.059
24177WAT      O72772   1.139   4.906   2.930
24177WAT     H172773   1.131   5.006   2.928
24177WAT     H272774   1.183   4.875   2.846
24178WAT      O72775   5.182   0.708   0.173
24178WAT     H172776   5.272   0.734   0.209
24178WAT     H272777   5.111   0.738   0.237
24179WAT      O72778   3.196   8.236   9.435
24179WAT     H172779   3.253   8.281   9.367
24179WAT     H272780   3.237   8.148   9.460
24180WAT      O72781   5.755   0.219   4.853
24180WAT     H172782   5.776   0.199   4.949
24180WAT     H272783   5.656   0.225   4.841
24181WAT      O72784   9.234   4.943   2.412
24181WAT     H172785   9.208   4.865   2.469
24181WAT     H272786   9.179   4.943   2.329
24182WAT      O72787   9.469   4.610   5.617
24182WAT     H172788   9.474   4.709   5.629
24182WAT     H272789   9.435   4.590   5.525
24183WAT      O72790   4.105   6.000   1.484
24183WAT     H172791   4.038   6.038   1.420
24183WAT     H272792   4.197   6.008   1.446
24184WAT      O72793   3.827   6.108   8.129
24184WAT     H172794   3.857   6.035   8.190
24184WAT     H272795   3.835   6.078   8.034
24185WAT      O72796   2.258   4.989   8.014
24185WAT     H172797   2.194   5.039   7.956
24185WAT     H272798   2.346   4.979   7.967
24186WAT      O72799   7.499   9.419   6.823
24186WAT     H172800   7.475   9.415   6.920
24186WAT     H272801   7.420   9.392   6.768
24187WAT      O72802   7.391   4.649   7.416
24187WAT     H172803   7.405   4.669   7.513
24187WAT     H272804   7.476   4.615   7.376
24188WAT      O72805   2.699   8.069   4.832
24188WAT     H172806   2.638   8.148   4.844
24188WAT     H272807   2.659   8.005   4.767
24189WAT      O72808   4.671   0.920   0.598
24189WAT     H172809   4.626   0.874   0.522
24189WAT     H272810   4.734   0.990   0.563
24190WAT      O72811   8.508   8.213   3.989
24190WAT     H172812   8.439   8.142   4.002
24190WAT     H272813   8.581   8.178   3.931
24191WAT      O72814   2.463   7.412   4.136
24191WAT     H172815   2.370   7.382   4.119
24191WAT     H272816   2.499   7.458   4.055
24192WAT      O72817   8.306   7.577   1.111
24192WAT     H172818   8.289   7.484   1.144
24192WAT     H272819   8.403   7.586   1.087
24193WAT      O72820   6.497   4.930   4.463
24193WAT     H172821   6.422   4.993   4.477
24193WAT     H272822   6.537   4.904   4.551
24194WAT      O72823   7.300   9.706   1.002
24194WAT     H172824   7.273   9.661   1.088
24194WAT     H272825   7.300   9.805   1.015
24195WAT      O72826   2.045   4.034   8.260
24195WAT     H172827   2.065   4.040   8.162
24195WAT     H272828   1.948   4.054   8.275
24196WAT      O72829   3.189   8.941   1.209
24196WAT     H172830   3.289   8.940   1.204
24196WAT     H272831   3.161   8.962   1.302
24197WAT      O72832   5.206   1.775   7.801
24197WAT     H172833   5.136   1.808   7.738
24197WAT     H272834   5.254   1.852   7.842
24198WAT      O72835   4.433   9.169   0.770
24198WAT     H172836   4.447   9.176   0.868
24198WAT     H272837   4.522   9.167   0.724
24199WAT      O72838   2.905   2.617   3.682
24199WAT     H172839   2.818   2.594   3.727
24199WAT     H272840   2.921   2.715   3.688
24200WAT      O72841   9.391   0.707   3.778
24200WAT     H172842   9.404   0.804   3.801
24200WAT     H272843   9.339   0.662   3.850
24201WAT      O72844   9.663   4.997   0.025
24201WAT     H172845   9.582   5.029   0.074
24201WAT     H272846   9.707   4.924   0.078
24202WAT      O72847   3.698   1.345   2.411
24202WAT     H172848   3.634   1.282   2.454
24202WAT     H272849   3.788   1.302   2.404
24203WAT      O72850   2.358   9.627   5.322
24203WAT     H172851   2.282   9.591   5.268
24203WAT     H272852   2.392   9.556   5.383
24204WAT      O72853   1.965   2.025   8.006
24204WAT     H172854   1.946   1.951   8.070
24204WAT     H272855   2.055   2.064   8.027
24205WAT      O72856   7.996   6.538   4.159
24205WAT     H172857   7.967   6.556   4.253
24205WAT     H272858   7.951   6.454   4.126
24206WAT      O72859   9.323   3.427   4.398
24206WAT     H172860   9.284   3.430   4.306
24206WAT     H272861   9.254   3.393   4.462
24207WAT      O72862   7.434   2.541   8.293
24207WAT     H172863   7.393   2.576   8.377
24207WAT     H272864   7.365   2.492   8.240
24208WAT      O72865   0.119   0.439   7.828
24208WAT     H172866   0.019   0.445   7.822
24208WAT     H272867   0.144   0.362   7.887
24209WAT      O72868   4.392   0.033   9.456
24209WAT     H172869   4.386   0.113   9.516
24209WAT     H272870   4.307  -0.019   9.463
24210WAT      O72871   0.668   6.589   4.052
24210WAT     H172872   0.741   6.534   4.092
24210WAT     H272873   0.649   6.667   4.111
24211WAT      O72874   9.732   5.792   4.363
24211WAT     H172875   9.669   5.869   4.347
24211WAT     H272876   9.743   5.741   4.278
24212WAT      O72877   5.411   0.111   8.450
24212WAT     H172878   5.510   0.105   8.437
24212WAT     H272879   5.366   0.040   8.395
24213WAT      O72880   7.492   0.978   6.795
24213WAT     H172881   7.416   0.922   6.761
24213WAT     H272882   7.566   0.918   6.826
24214WAT      O72883   9.727   7.593   7.516
24214WAT     H172884   9.675   7.679   7.510
24214WAT     H272885   9.684   7.533   7.583
24215WAT      O72886   3.916   0.711   8.037
24215WAT     H172887   3.827   0.666   8.030
24215WAT     H272888   3.918   0.768   8.120
24216WAT      O72889   5.340   7.661   0.329
24216WAT     H172890   5.436   7.665   0.302
24216WAT     H272891   5.287   7.727   0.276
24217WAT      O72892   8.829   2.008   8.033
24217WAT     H172893   8.886   1.946   8.086
24217WAT     H272894   8.884   2.084   7.999
24218WAT      O72895   2.128   4.966   5.836
24218WAT     H172896   2.196   5.040   5.840
24218WAT     H272897   2.037   5.004   5.851
24219WAT      O72898   9.750   0.990   8.385
24219WAT     H172899   9.735   0.891   8.388
24219WAT     H272900   9.821   1.011   8.318
24220WAT      O72901   6.299   3.862   2.887
24220WAT     H172902   6.276   3.950   2.927
24220WAT     H272903   6.316   3.873   2.789
24221WAT      O72904   0.058   0.334   8.880
24221WAT     H172905   0.030   0.240   8.897
24221WAT     H272906   0.117   0.336   8.799
24222WAT      O72907   7.657   5.262   2.921
24222WAT     H172908   7.661   5.348   2.870
24222WAT     H272909   7.724   5.264   2.995
24223WAT      O72910   8.665   2.092   3.589
24223WAT     H172911   8.699   2.000   3.571
24223WAT     H272912   8.596   2.088   3.662
24224WAT      O72913   8.605   3.414   1.063
24224WAT     H172914   8.700   3.444   1.055
24224WAT     H272915   8.551   3.487   1.104
24225WAT      O72916   9.649   8.390   8.520
24225WAT     H172917   9.640   8.391   8.421
24225WAT     H272918   9.558   8.400   8.562
24226WAT      O72919   1.741   6.130   3.590
24226WAT     H172920   1.663   6.123   3.527
24226WAT     H272921   1.739   6.220   3.635
24227WAT      O72922   1.120   8.793   9.390
24227WAT     H172923   1.109   8.866   9.457
24227WAT     H272924   1.035   8.781   9.339
24228WAT      O72925   9.753   7.165   7.559
24228WAT     H172926   9.669   7.111   7.560
24228WAT     H272927   9.736   7.254   7.602
24229WAT      O72928   0.712   0.352   8.688
24229WAT     H172929   0.777   0.390   8.754
24229WAT     H272930   0.628   0.325   8.736
24230WAT      O72931   6.268   7.878   5.178
24230WAT     H172932   6.251   7.799   5.119
24230WAT     H272933   6.289   7.846   5.271
24231WAT      O72934   8.760   7.368   4.009
24231WAT     H172935   8.778   7.423   3.928
24231WAT     H272936   8.844   7.321   4.037
24232WAT      O72937   5.103   9.341   5.805
24232WAT     H172938   5.034   9.377   5.868
24232WAT     H272939   5.063   9.330   5.714
24233WAT      O72940   5.147   4.032   7.692
24233WAT     H172941   5.110   4.087   7.767
24233WAT     H272942   5.245   4.049   7.683
24234WAT      O72943   0.121   2.253   4.088
24234WAT     H172944   0.109   2.157   4.061
24234WAT     H272945   0.132   2.309   4.006
24235WAT      O72946   0.721   9.488   5.846
24235WAT     H172947   0.635   9.462   5.801
24235WAT     H272948   0.714   9.468   5.944
24236WAT      O72949   6.750   3.790   7.310
24236WAT     H172950   6.745   3.845   7.394
24236WAT     H272951   6.836   3.809   7.263
24237WAT      O72952   9.141   1.577   9.548
24237WAT     H172953   9.209   1.649   9.535
24237WAT     H272954   9.109   1.578   9.643
24238WAT      O72955   1.152   2.133   9.514
24238WAT     H172956   1.189   2.185   9.591
24238WAT     H272957   1.193   2.165   9.429
24239WAT      O72958   9.239   1.372   5.906
24239WAT     H172959   9.209   1.466   5.887
24239WAT     H272960   9.333   1.360   5.876
24240WAT      O72961   3.556   4.928   6.460
24240WAT     H172962   3.625   4.972   6.518
24240WAT     H272963   3.487   4.995   6.434
24241WAT      O72964   7.245   5.710   7.309
24241WAT     H172965   7.241   5.701   7.409
24241WAT     H272966   7.263   5.620   7.269
24242WAT      O72967   0.088   4.160   5.723
24242WAT     H172968   0.111   4.217   5.801
24242WAT     H272969   0.146   4.078   5.723
24243WAT      O72970   3.974   5.423   7.766
24243WAT     H172971   3.891   5.367   7.777
24243WAT     H272972   3.949   5.520   7.764
24244WAT      O72973   3.781   7.591   8.098
24244WAT     H172974   3.879   7.606   8.100
24244WAT     H272975   3.754   7.536   8.177
24245WAT      O72976   4.065   6.237   7.680
24245WAT     H172977   4.096   6.244   7.585
24245WAT     H272978   4.103   6.312   7.733
24246WAT      O72979   6.209   8.529   0.164
24246WAT     H172980   6.145   8.461   0.201
24246WAT     H272981   6.242   8.499   0.074
24247WAT      O72982   0.622   9.336   6.638
24247WAT     H172983   0.524   9.355   6.642
24247WAT     H272984   0.640   9.266   6.569
24248WAT      O72985   6.382   5.440   2.473
24248WAT     H172986   6.301   5.439   2.532
24248WAT     H272987   6.464   5.452   2.529
24249WAT      O72988   8.360   9.060   2.316
24249WAT     H172989   8.295   9.132   2.293
24249WAT     H272990   8.318   8.971   2.300
24250WAT      O72991   1.961   8.225   5.081
24250WAT     H172992   1.868   8.243   5.049
24250WAT     H272993   1.975   8.270   5.169
24251WAT      O72994   6.496   1.634   4.920
24251WAT     H172995   6.477   1.579   4.838
24251WAT     H272996   6.567   1.589   4.975
24252WAT      O72997   5.721   2.489   3.961
24252WAT     H172998   5.658   2.556   3.920
24252WAT     H272999   5.721   2.500   4.060
24253WAT      O73000   7.142   3.185   1.826
24253WAT     H173001   7.112   3.197   1.731
24253WAT     H273002   7.240   3.164   1.827
24254WAT      O73003   7.021   7.145   4.934
24254WAT     H173004   7.084   7.078   4.895
24254WAT     H273005   7.004   7.218   4.868
24255WAT      O73006   4.818   0.298   1.942
24255WAT     H173007   4.763   0.258   2.016
24255WAT     H273008   4.777   0.275   1.854
24256WAT      O73009   2.323   3.280   8.383
24256WAT     H173010   2.423   3.287   8.387
24256WAT     H273011   2.283   3.372   8.380
24257WAT      O73012   7.982   7.183   9.334
24257WAT     H173013   7.944   7.123   9.264
24257WAT     H273014   7.935   7.166   9.421
24258WAT      O73015   4.722   4.211   4.407
24258WAT     H173016   4.756   4.167   4.325
24258WAT     H273017   4.699   4.142   4.476
24259WAT      O73018   5.432   8.899   3.092
24259WAT     H173019   5.519   8.944   3.111
24259WAT     H273020   5.374   8.960   3.038
24260WAT      O73021   4.047   6.651   3.450
24260WAT     H173022   4.077   6.577   3.390
24260WAT     H273023   4.127   6.692   3.494
24261WAT      O73024   1.846   9.056   8.916
24261WAT     H173025   1.758   9.085   8.878
24261WAT     H273026   1.878   9.124   8.982
24262WAT      O73027   6.622   8.814   0.597
24262WAT     H173028   6.640   8.803   0.694
24262WAT     H273029   6.679   8.888   0.561
24263WAT      O73030   2.273   4.660   0.562
24263WAT     H173031   2.345   4.623   0.503
24263WAT     H273032   2.245   4.590   0.628
24264WAT      O73033   5.141   2.398   7.820
24264WAT     H173034   5.165   2.318   7.765
24264WAT     H273035   5.090   2.369   7.901
24265WAT      O73036   6.046   7.970   6.021
24265WAT     H173037   5.957   7.958   5.977
24265WAT     H273038   6.072   7.884   6.066
24266WAT      O73039   0.323   9.824   4.796
24266WAT     H173040   0.277   9.832   4.707
24266WAT     H273041   0.276   9.756   4.852
24267WAT      O73042   7.884   9.094   4.526
24267WAT     H173043   7.969   9.146   4.514
24267WAT     H273044   7.806   9.150   4.500
24268WAT      O73045   8.377   8.174   8.518
24268WAT     H173046   8.308   8.160   8.447
24268WAT     H273047   8.337   8.156   8.608
24269WAT      O73048   3.109   5.359   1.664
24269WAT     H173049   3.086   5.272   1.619
24269WAT     H273050   3.138   5.341   1.758
24270WAT      O73051   8.329   5.982   8.683
24270WAT     H173052   8.273   5.902   8.705
24270WAT     H273053   8.269   6.060   8.663
24271WAT      O73054   2.279   6.803   7.977
24271WAT     H173055   2.185   6.832   7.960
24271WAT     H273056   2.326   6.872   8.032
24272WAT      O73057   4.391   4.585   8.901
24272WAT     H173058   4.410   4.593   8.803
24272WAT     H273059   4.471   4.548   8.948
24273WAT      O73060   1.181   6.820   8.771
24273WAT     H173061   1.096   6.859   8.807
24273WAT     H273062   1.221   6.759   8.840
24274WAT      O73063   4.953   4.343   3.543
24274WAT     H173064   4.912   4.364   3.455
24274WAT     H273065   4.888   4.364   3.616
24275WAT      O73066   8.279   4.039   4.347
24275WAT     H173067   8.230   3.953   4.331
24275WAT     H273068   8.295   4.049   4.446
24276WAT      O73069   2.977   5.653   3.522
24276WAT     H173070   3.033   5.678   3.443
24276WAT     H273071   2.914   5.727   3.544
24277WAT      O73072   7.591   8.595   1.304
24277WAT     H173073   7.530   8.669   1.334
24277WAT     H273074   7.645   8.627   1.226
24278WAT      O73075   3.619   4.129   8.802
24278WAT     H173076   3.652   4.121   8.896
24278WAT     H273077   3.528   4.170   8.801
24279WAT      O73078   1.087   3.905   3.453
24279WAT     H173079   1.071   3.810   3.425
24279WAT     H273080   1.067   3.966   3.377
24280WAT      O73081   2.364   4.376   9.624
24280WAT     H173082   2.315   4.300   9.581
24280WAT     H273083   2.444   4.340   9.672
24281WAT      O73084   1.877   4.329   0.782
24281WAT     H173085   1.800   4.338   0.718
24281WAT     H273086   1.915   4.419   0.801
24282WAT      O73087   3.815   2.559   5.999
24282WAT     H173088   3.895   2.517   6.042
24282WAT     H273089   3.828   2.559   5.900
24283WAT      O73090   4.070   4.522   5.855
24283WAT     H173091   4.152   4.578   5.856
24283WAT     H273092   4.079   4.450   5.786
24284WAT      O73093   6.870   2.699   8.200
24284WAT     H173094   6.878   2.787   8.154
24284WAT     H273095   6.918   2.629   8.146
24285WAT      O73096   9.208   3.847   9.104
24285WAT     H173097   9.208   3.747   9.111
24285WAT     H273098   9.146   3.885   9.172
24286WAT      O73099   2.330   8.697   9.869
24286WAT     H173100   2.337   8.734   9.961
24286WAT     H273101   2.381   8.612   9.863
24287WAT      O73102   3.349   8.272   0.175
24287WAT     H173103   3.382   8.196   0.119
24287WAT     H273104   3.368   8.254   0.271
24288WAT      O73105   2.633   6.119   6.655
24288WAT     H173106   2.675   6.040   6.610
24288WAT     H273107   2.534   6.116   6.641
24289WAT      O73108   1.281   6.840   0.626
24289WAT     H173109   1.235   6.925   0.603
24289WAT     H273110   1.298   6.787   0.542
24290WAT      O73111   1.905   0.523   4.061
24290WAT     H173112   1.820   0.542   4.109
24290WAT     H273113   1.981   0.569   4.108
24291WAT      O73114   7.839   7.087   7.362
24291WAT     H173115   7.901   7.116   7.435
24291WAT     H273116   7.873   7.121   7.274
24292WAT      O73117   9.376   2.242   5.010
24292WAT     H173118   9.378   2.322   5.071
24292WAT     H273119   9.440   2.255   4.935
24293WAT      O73120   6.564   4.281   4.009
24293WAT     H173121   6.471   4.269   3.975
24293WAT     H273122   6.617   4.197   3.994
24294WAT      O73123   9.638   6.906   8.958
24294WAT     H173124   9.695   6.977   8.916
24294WAT     H273125   9.620   6.834   8.891
24295WAT      O73126   0.727   9.631   1.109
24295WAT     H173127   0.653   9.567   1.134
24295WAT     H273128   0.744   9.693   1.185
24296WAT      O73129   2.633   0.777   3.763
24296WAT     H173130   2.608   0.826   3.679
24296WAT     H273131   2.553   0.729   3.799
24297WAT      O73132   1.800   1.877   1.559
24297WAT     H173133   1.876   1.812   1.572
24297WAT     H273134   1.831   1.969   1.583
24298WAT      O73135   0.170   7.545   5.025
24298WAT     H173136   0.264   7.532   4.994
24298WAT     H273137   0.168   7.560   5.124
24299WAT      O73138   2.188   3.095   8.684
24299WAT     H173139   2.189   3.022   8.752
24299WAT     H273140   2.266   3.156   8.699
24300WAT      O73141   5.960   4.452   4.931
24300WAT     H173142   6.001   4.375   4.979
24300WAT     H273143   6.005   4.537   4.960
24301WAT      O73144   3.112   6.894   0.680
24301WAT     H173145   3.194   6.854   0.639
24301WAT     H273146   3.136   6.975   0.732
24302WAT      O73147   2.478   4.690   8.939
24302WAT     H173148   2.517   4.701   9.031
24302WAT     H273149   2.549   4.705   8.871
24303WAT      O73150   5.096   9.734   6.241
24303WAT     H173151   5.134   9.665   6.180
24303WAT     H273152   5.168   9.798   6.269
24304WAT      O73153   7.433   9.626   9.326
24304WAT     H173154   7.393   9.640   9.236
24304WAT     H273155   7.532   9.629   9.320
24305WAT      O73156   5.960   7.871   3.934
24305WAT     H173157   5.889   7.837   3.873
24305WAT     H273158   5.955   7.823   4.022
24306WAT      O73159   0.766   1.174   2.796
24306WAT     H173160   0.813   1.201   2.712
24306WAT     H273161   0.764   1.251   2.860
24307WAT      O73162   6.192   5.053   7.756
24307WAT     H173163   6.184   4.979   7.823
24307WAT     H273164   6.169   5.140   7.799
24308WAT      O73165   3.478   2.357   9.559
24308WAT     H173166   3.520   2.266   9.555
24308WAT     H273167   3.503   2.409   9.477
24309WAT      O73168   7.805   2.513   2.696
24309WAT     H173169   7.708   2.522   2.717
24309WAT     H273170   7.855   2.589   2.738
24310WAT      O73171   2.747   4.557   2.175
24310WAT     H173172   2.709   4.498   2.103
24310WAT     H273173   2.736   4.511   2.263
24311WAT      O73174   9.666   4.685   6.357
24311WAT     H173175   9.752   4.640   6.380
24311WAT     H273176   9.676   4.784   6.371
24312WAT      O73177   4.562   9.569   6.883
24312WAT     H173178   4.473   9.551   6.842
24312WAT     H273179   4.561   9.544   6.980
24313WAT      O73180   0.871   8.824   9.296
24313WAT     H173181   0.824   8.828   9.208
24313WAT     H273182   0.820   8.879   9.363
24314WAT      O73183   2.804   7.167   2.427
24314WAT     H173184   2.839   7.244   2.480
24314WAT     H273185   2.873   7.138   2.360
24315WAT      O73186   4.518   4.318   4.173
24315WAT     H173187   4.463   4.299   4.092
24315WAT     H273188   4.564   4.234   4.203
24316WAT      O73189   5.764   9.243   8.981
24316WAT     H173190   5.807   9.237   9.072
24316WAT     H273191   5.668   9.217   8.988
24317WAT      O73192   5.555   2.175   1.851
24317WAT     H173193   5.513   2.262   1.878
24317WAT     H273194   5.509   2.139   1.771
24318WAT      O73195   0.364   4.110   7.759
24318WAT     H173196   0.299   4.034   7.750
24318WAT     H273197   0.400   4.112   7.852
24319WAT      O73198   4.146   1.403   0.887
24319WAT     H173199   4.095   1.320   0.864
24319WAT     H273200   4.087   1.482   0.876
24320WAT      O73201   3.136   1.949   4.998
24320WAT     H173202   3.060   1.893   4.968
24320WAT     H273203   3.111   2.046   4.991
24321WAT      O73204   1.623   2.810   2.987
24321WAT     H173205   1.608   2.715   3.015
24321WAT     H273206   1.569   2.830   2.905
24322WAT      O73207   3.802   1.341   0.918
24322WAT     H173208   3.742   1.419   0.896
24322WAT     H273209   3.801   1.325   1.016
24323WAT      O73210   0.102   0.732   7.831
24323WAT     H173211   0.139   0.639   7.833
24323WAT     H273212   0.172   0.795   7.799
24324WAT      O73213   0.051   8.591   0.042
24324WAT     H173214   0.118   8.555  -0.022
24324WAT     H273215   0.018   8.680   0.011
24325WAT      O73216   9.053   4.023   6.877
24325WAT     H173217   8.964   3.999   6.916
24325WAT     H273218   9.067   4.122   6.884
24326WAT      O73219   7.170   6.467   9.616
24326WAT     H173220   7.146   6.558   9.649
24326WAT     H273221   7.180   6.469   9.516
24327WAT      O73222   2.801   1.361   7.111
24327WAT     H173223   2.784   1.460   7.115
24327WAT     H273224   2.893   1.344   7.075
24328WAT      O73225   4.456   6.347   1.261
24328WAT     H173226   4.465   6.264   1.206
24328WAT     H273227   4.405   6.415   1.209
24329WAT      O73228   6.968   6.391   2.857
24329WAT     H173229   7.060   6.389   2.896
24329WAT     H273230   6.908   6.332   2.912
24330WAT      O73231   4.778   5.720   3.884
24330WAT     H173232   4.741   5.636   3.845
24330WAT     H273233   4.765   5.719   3.983
24331WAT      O73234   3.848   6.087   4.973
24331WAT     H173235   3.779   6.148   4.934
24331WAT     H273236   3.861   6.108   5.070
24332WAT      O73237   9.539   8.082   7.667
24332WAT     H173238   9.576   8.161   7.715
24332WAT     H273239   9.467   8.112   7.604
24333WAT      O73240   3.932   6.577   4.346
24333WAT     H173241   3.851   6.622   4.385
24333WAT     H273242   4.006   6.643   4.337
24334WAT      O73243   4.593   5.489   0.442
24334WAT     H173244   4.533   5.557   0.484
24334WAT     H273245   4.639   5.529   0.364
24335WAT      O73246   3.651   7.961   0.379
24335WAT     H173247   3.620   7.885   0.323
24335WAT     H273248   3.577   8.027   0.391
24336WAT      O73249   3.590   6.192   3.967
24336WAT     H173250   3.507   6.246   3.983
24336WAT     H273251   3.575   6.098   3.996
24337WAT      O73252   0.194   3.349   8.135
24337WAT     H173253   0.100   3.372   8.108
24337WAT     H273254   0.214   3.254   8.109
24338WAT      O73255   2.401   1.067   1.778
24338WAT     H173256   2.304   1.048   1.759
24338WAT     H273257   2.458   1.011   1.718
24339WAT      O73258   8.181   7.085   8.293
24339WAT     H173259   8.127   7.022   8.238
24339WAT     H273260   8.269   7.043   8.315
24340WAT      O73261   4.064   6.668   2.706
24340WAT     H173262   4.139   6.710   2.757
24340WAT     H273263   4.033   6.585   2.752
24341WAT      O73264   5.397   7.525   1.557
24341WAT     H173265   5.339   7.606   1.560
24341WAT     H273266   5.474   7.541   1.495
24342WAT      O73267   0.569   6.424   4.370
24342WAT     H173268   0.540   6.519   4.368
24342WAT     H273269   0.667   6.418   4.351
24343WAT      O73270   5.975   3.706   9.707
24343WAT     H173271   5.897   3.769   9.712
24343WAT     H273272   6.050   3.743   9.763
24344WAT      O73273   1.020   5.476   0.762
24344WAT     H173274   1.104   5.443   0.718
24344WAT     H273275   0.983   5.405   0.822
24345WAT      O73276   9.494   1.162   3.692
24345WAT     H173277   9.509   1.163   3.593
24345WAT     H273278   9.427   1.233   3.716
24346WAT      O73279   8.135   2.897   2.559
24346WAT     H173280   8.118   2.904   2.461
24346WAT     H273281   8.190   2.975   2.589
24347WAT      O73282   5.150   9.509   5.271
24347WAT     H173283   5.165   9.576   5.198
24347WAT     H273284   5.218   9.522   5.343
24348WAT      O73285   3.429   4.687   4.805
24348WAT     H173286   3.382   4.651   4.886
24348WAT     H273287   3.423   4.620   4.731
24349WAT      O73288   6.921   9.688   2.821
24349WAT     H173289   6.854   9.616   2.835
24349WAT     H273290   6.939   9.734   2.908
24350WAT      O73291   2.687   1.198   7.312
24350WAT     H173292   2.751   1.243   7.250
24350WAT     H273293   2.722   1.203   7.405
24351WAT      O73294   8.516   7.365   1.281
24351WAT     H173295   8.545   7.455   1.249
24351WAT     H273296   8.416   7.358   1.273
24352WAT      O73297   3.033   7.328   5.051
24352WAT     H173298   3.009   7.244   5.003
24352WAT     H273299   3.065   7.396   4.985
24353WAT      O73300   1.906   0.846   9.121
24353WAT     H173301   1.982   0.910   9.108
24353WAT     H273302   1.836   0.862   9.052
24354WAT      O73303   8.721   3.976   2.162
24354WAT     H173304   8.681   4.065   2.142
24354WAT     H273305   8.745   3.972   2.259
24355WAT      O73306   6.009   3.954   9.113
24355WAT     H173307   5.916   3.948   9.076
24355WAT     H273308   6.007   4.003   9.200
24356WAT      O73309   4.911   0.717   7.324
24356WAT     H173310   4.856   0.713   7.240
24356WAT     H273311   4.986   0.652   7.318
24357WAT      O73312   4.011   5.138   5.296
24357WAT     H173313   4.081   5.069   5.278
24357WAT     H273314   4.055   5.223   5.324
24358WAT      O73315   2.801   8.567   7.439
24358WAT     H173316   2.787   8.469   7.423
24358WAT     H273317   2.840   8.609   7.357
24359WAT      O73318   2.521   9.807   8.372
24359WAT     H173319   2.439   9.844   8.415
24359WAT     H273320   2.520   9.707   8.379
24360WAT      O73321   1.330   6.508   0.078
24360WAT     H173322   1.288   6.597   0.059
24360WAT     H273323   1.416   6.521   0.127
24361WAT      O73324   2.363   3.222   3.811
24361WAT     H173325   2.393   3.239   3.717
24361WAT     H273326   2.285   3.280   3.832
24362WAT      O73327   1.888   1.336   5.627
24362WAT     H173328   1.882   1.322   5.528
24362WAT     H273329   1.815   1.397   5.657
24363WAT      O73330   2.347   4.410   3.384
24363WAT     H173331   2.441   4.442   3.372
24363WAT     H273332   2.283   4.483   3.356
24364WAT      O73333   3.288   7.948   1.913
24364WAT     H173334   3.363   8.004   1.878
24364WAT     H273335   3.271   7.872   1.851
24365WAT      O73336   4.203   8.465   2.062
24365WAT     H173337   4.199   8.535   1.990
24365WAT     H273338   4.282   8.483   2.121
24366WAT      O73339   8.151   0.335   1.292
24366WAT     H173340   8.082   0.293   1.351
24366WAT     H273341   8.226   0.270   1.276
24367WAT      O73342   1.694   3.044   5.319
24367WAT     H173343   1.610   3.041   5.266
24367WAT     H273344   1.742   3.130   5.302
24368WAT      O73345   1.073   0.651   5.003
24368WAT     H173346   1.068   0.566   5.056
24368WAT     H273347   0.985   0.668   4.959
24369WAT      O73348   5.512   3.690   6.691
24369WAT     H173349   5.419   3.661   6.714
24369WAT     H273350   5.526   3.682   6.592
24370WAT      O73351   0.703   7.122   3.280
24370WAT     H173352   0.673   7.216   3.267
24370WAT     H273353   0.715   7.079   3.190
24371WAT      O73354   8.913   9.468   4.569
24371WAT     H173355   8.907   9.457   4.669
24371WAT     H273356   8.884   9.383   4.525
24372WAT      O73357   0.188   7.470   7.180
24372WAT     H173358   0.121   7.456   7.254
24372WAT     H273359   0.143   7.517   7.104
24373WAT      O73360   4.619   8.068   0.093
24373WAT     H173361   4.532   8.094   0.052
24373WAT     H273362   4.604   8.036   0.187
24374WAT      O73363   9.278   8.770   6.366
24374WAT     H173364   9.263   8.678   6.401
24374WAT     H273365   9.358   8.771   6.306
24375WAT      O73366   8.376   0.647   5.224
24375WAT     H173367   8.279   0.662   5.245
24375WAT     H273368   8.418   0.595   5.299
24376WAT      O73369   8.749   5.481   2.826
24376WAT     H173370   8.841   5.504   2.857
24376WAT     H273371   8.682   5.522   2.888
24377WAT      O73372   4.935   0.864   2.650
24377WAT     H173373   4.852   0.914   2.673
24377WAT     H273374   4.934   0.775   2.696
24378WAT      O73375   2.241   7.848   3.819
24378WAT     H173376   2.282   7.933   3.852
24378WAT     H273377   2.227   7.855   3.720
24379WAT      O73378   6.177   3.807   4.098
24379WAT     H173379   6.107   3.738   4.081
24379WAT     H273380   6.190   3.819   4.196
24380WAT      O73381   7.118   3.709   4.381
24380WAT     H173382   7.053   3.676   4.313
24380WAT     H273383   7.207   3.722   4.339
24381WAT      O73384   4.764   5.442   0.097
24381WAT     H173385   4.806   5.358   0.130
24381WAT     H273386   4.769   5.512   0.168
24382WAT      O73387   2.958   6.717   8.703
24382WAT     H173388   2.996   6.805   8.734
24382WAT     H273389   3.008   6.687   8.622
24383WAT      O73390   4.507   5.501   3.299
24383WAT     H173391   4.501   5.405   3.272
24383WAT     H273392   4.453   5.516   3.382
24384WAT      O73393   4.136   5.030   7.684
24384WAT     H173394   4.150   5.015   7.782
24384WAT     H273395   4.062   4.972   7.652
24385WAT      O73396   6.627   7.744   4.385
24385WAT     H173397   6.527   7.745   4.393
24385WAT     H273398   6.653   7.755   4.289
24386WAT      O73399   1.328   4.518   1.132
24386WAT     H173400   1.384   4.439   1.110
24386WAT     H273401   1.384   4.601   1.126
24387WAT      O73402   7.132   7.826   1.634
24387WAT     H173403   7.168   7.919   1.622
24387WAT     H273404   7.189   7.761   1.583
24388WAT      O73405   3.356   3.297   7.240
24388WAT     H173406   3.340   3.364   7.168
24388WAT     H273407   3.320   3.208   7.212
24389WAT      O73408   5.374   5.889   9.064
24389WAT     H173409   5.301   5.836   9.020
24389WAT     H273410   5.378   5.865   9.161
24390WAT      O73411   6.844   4.956   9.419
24390WAT     H173412   6.873   4.937   9.513
24390WAT     H273413   6.791   4.878   9.385
24391WAT      O73414   0.300   3.311   0.189
24391WAT     H173415   0.355   3.393   0.205
24391WAT     H273416   0.204   3.337   0.181
24392WAT      O73417   5.237   9.197   5.992
24392WAT     H173418   5.306   9.240   6.050
24392WAT     H273419   5.205   9.262   5.924
24393WAT      O73420   0.683   1.695   5.591
24393WAT     H173421   0.749   1.760   5.553
24393WAT     H273422   0.671   1.714   5.689
24394WAT      O73423   1.222   7.682   4.846
24394WAT     H173424   1.294   7.613   4.840
24394WAT     H273425   1.253   7.758   4.903
24395WAT      O73426   4.903   6.716   2.563
24395WAT     H173427   4.824   6.775   2.582
24395WAT     H273428   4.934   6.732   2.469
24396WAT      O73429   1.627   1.357   3.031
24396WAT     H173430   1.551   1.328   2.974
24396WAT     H273431   1.593   1.387   3.120
24397WAT      O73432   1.397   8.318   4.663
24397WAT     H173433   1.440   8.288   4.748
24397WAT     H273434   1.459   8.299   4.586
24398WAT      O73435   7.696   9.636   5.452
24398WAT     H173436   7.673   9.724   5.492
24398WAT     H273437   7.613   9.590   5.421
24399WAT      O73438   3.197   4.109   5.462
24399WAT     H173439   3.105   4.085   5.493
24399WAT     H273440   3.223   4.051   5.385
24400WAT      O73441   2.435   1.289   0.442
24400WAT     H173442   2.464   1.234   0.363
24400WAT     H273443   2.353   1.341   0.418
24401WAT      O73444   6.067   1.983   7.437
24401WAT     H173445   6.067   1.897   7.385
24401WAT     H273446   5.973   2.008   7.460
24402WAT      O73447   0.490   2.400   1.100
24402WAT     H173448   0.468   2.411   1.197
24402WAT     H273449   0.467   2.307   1.071
24403WAT      O73450   8.315   9.493   4.841
24403WAT     H173451   8.290   9.481   4.937
24403WAT     H273452   8.253   9.559   4.798
24404WAT      O73453   9.261   7.616   8.611
24404WAT     H173454   9.262   7.589   8.707
24404WAT     H273455   9.278   7.536   8.554
24405WAT      O73456   6.585   8.268   1.742
24405WAT     H173457   6.527   8.194   1.708
24405WAT     H273458   6.680   8.237   1.743
24406WAT      O73459   6.963   2.858   2.349
24406WAT     H173460   6.899   2.836   2.423
24406WAT     H273461   6.935   2.943   2.304
24407WAT      O73462   9.362   7.821   2.374
24407WAT     H173463   9.445   7.784   2.333
24407WAT     H273464   9.282   7.768   2.343
24408WAT      O73465   5.420   8.338   2.564
24408WAT     H173466   5.399   8.269   2.496
24408WAT     H273467   5.336   8.385   2.592
24409WAT      O73468   3.528   8.038   4.718
24409WAT     H173469   3.432   8.066   4.708
24409WAT     H273470   3.533   7.962   4.783
24410WAT      O73471   2.279   3.302   3.531
24410WAT     H173472   2.195   3.296   3.585
24410WAT     H273473   2.327   3.386   3.553
24411WAT      O73474   3.053   0.978   2.308
24411WAT     H173475   3.100   0.966   2.396
24411WAT     H273476   3.038   1.075   2.290
24412WAT      O73477   0.226   3.068   8.077
24412WAT     H173478   0.294   3.012   8.028
24412WAT     H273479   0.209   3.028   8.167
24413WAT      O73480   6.455   4.842   7.728
24413WAT     H173481   6.530   4.905   7.746
24413WAT     H273482   6.398   4.833   7.810
24414WAT      O73483   5.525   2.181   4.608
24414WAT     H173484   5.499   2.272   4.578
24414WAT     H273485   5.486   2.162   4.698
24415WAT      O73486   8.595   5.110   6.434
24415WAT     H173487   8.683   5.065   6.416
24415WAT     H273488   8.563   5.155   6.351
24416WAT      O73489   0.842   0.668   2.921
24416WAT     H173490   0.831   0.766   2.935
24416WAT     H273491   0.778   0.619   2.981
24417WAT      O73492   8.093   1.011   3.980
24417WAT     H173493   8.069   1.052   3.892
24417WAT     H273494   8.187   0.977   3.976
24418WAT      O73495   0.433   3.945   2.134
24418WAT     H173496   0.502   4.008   2.098
24418WAT     H273497   0.425   3.866   2.073
24419WAT      O73498   7.483   3.736   6.075
24419WAT     H173499   7.538   3.781   6.005
24419WAT     H273500   7.530   3.653   6.105
24420WAT      O73501   8.372   4.444   4.454
24420WAT     H173502   8.378   4.395   4.367
24420WAT     H273503   8.394   4.381   4.529
24421WAT      O73504   0.888   3.400   1.725
24421WAT     H173505   0.945   3.480   1.706
24421WAT     H273506   0.926   3.321   1.677
24422WAT      O73507   8.945   6.058   1.224
24422WAT     H173508   9.015   6.012   1.169
24422WAT     H273509   8.966   6.156   1.229
24423WAT      O73510   9.286   4.420   0.725
24423WAT     H173511   9.382   4.449   0.734
24423WAT     H273512   9.229   4.501   0.709
24424WAT      O73513   1.194   7.998   3.922
24424WAT     H173514   1.126   8.014   3.850
24424WAT     H273515   1.228   8.086   3.956
24425WAT      O73516   3.773   3.064   0.587
24425WAT     H173517   3.696   3.128   0.589
24425WAT     H273518   3.804   3.050   0.493
24426WAT      O73519   0.224   5.282   3.525
24426WAT     H173520   0.324   5.287   3.521
24426WAT     H273521   0.195   5.186   3.523
24427WAT      O73522   9.526   2.908   4.571
24427WAT     H173523   9.506   2.999   4.534
24427WAT     H273524   9.521   2.841   4.498
24428WAT      O73525   5.442   8.582   3.423
24428WAT     H173526   5.385   8.652   3.379
24428WAT     H273527   5.426   8.585   3.522
24429WAT      O73528   1.169   5.675   3.640
24429WAT     H173529   1.218   5.758   3.667
24429WAT     H273530   1.230   5.596   3.647
24430WAT      O73531   6.710   3.907   7.831
24430WAT     H173532   6.615   3.907   7.798
24430WAT     H273533   6.736   4.000   7.858
24431WAT      O73534   7.490   6.790   0.813
24431WAT     H173535   7.472   6.872   0.867
24431WAT     H273536   7.431   6.715   0.845
24432WAT      O73537   1.586   4.512   8.532
24432WAT     H173538   1.577   4.457   8.615
24432WAT     H273539   1.610   4.453   8.455
24433WAT      O73540   8.606   0.918   4.434
24433WAT     H173541   8.672   0.920   4.359
24433WAT     H273542   8.553   1.003   4.433
24434WAT      O73543   6.102   1.920   3.930
24434WAT     H173544   6.148   1.953   4.013
24434WAT     H273545   6.165   1.926   3.852
24435WAT      O73546   5.983   4.377   0.092
24435WAT     H173547   6.068   4.371   0.038
24435WAT     H273548   5.913   4.321   0.048
24436WAT      O73549   9.332   9.331   0.776
24436WAT     H173550   9.236   9.336   0.747
24436WAT     H273551   9.362   9.421   0.808
24437WAT      O73552   4.126   5.598   6.723
24437WAT     H173553   4.042   5.596   6.670
24437WAT     H273554   4.147   5.692   6.750
24438WAT      O73555   7.990   1.276   6.619
24438WAT     H173556   7.975   1.202   6.554
24438WAT     H273557   8.015   1.238   6.708
24439WAT      O73558   0.915   3.774   1.655
24439WAT     H173559   1.001   3.734   1.623
24439WAT     H273560   0.840   3.745   1.595
24440WAT      O73561   2.898   1.578   3.362
24440WAT     H173562   2.942   1.512   3.301
24440WAT     H273563   2.909   1.549   3.457
24441WAT      O73564   4.575   0.920   4.723
24441WAT     H173565   4.657   0.959   4.680
24441WAT     H273566   4.496   0.937   4.664
24442WAT      O73567   9.287   2.117   7.684
24442WAT     H173568   9.242   2.201   7.656
24442WAT     H273569   9.339   2.079   7.607
24443WAT      O73570   8.263   1.349   7.509
24443WAT     H173571   8.354   1.362   7.470
24443WAT     H273572   8.219   1.269   7.467
24444WAT      O73573   6.959   0.989   4.702
24444WAT     H173574   6.996   0.990   4.795
24444WAT     H273575   6.947   1.083   4.670
24445WAT      O73576   6.269   7.056   2.105
24445WAT     H173577   6.219   7.140   2.126
24445WAT     H273578   6.269   6.997   2.186
24446WAT      O73579   7.436   7.240   1.282
24446WAT     H173580   7.423   7.145   1.312
24446WAT     H273581   7.498   7.241   1.203
24447WAT      O73582   3.018   3.613   3.826
24447WAT     H173583   3.070   3.548   3.881
24447WAT     H273584   3.010   3.579   3.732
24448WAT      O73585   3.378   2.419   0.496
24448WAT     H173586   3.337   2.496   0.447
24448WAT     H273587   3.388   2.341   0.433
24449WAT      O73588   8.307   0.213   6.992
24449WAT     H173589   8.306   0.262   6.905
24449WAT     H273590   8.212   0.201   7.024
24450WAT      O73591   6.482   1.635   0.066
24450WAT     H173592   6.437   1.720   0.037
24450WAT     H273593   6.541   1.602  -0.007
24451WAT      O73594   2.837   3.758   2.103
24451WAT     H173595   2.751   3.773   2.054
24451WAT     H273596   2.908   3.819   2.066
24452WAT      O73597   2.180   8.355   1.975
24452WAT     H173598   2.271   8.342   2.015
24452WAT     H273599   2.114   8.297   2.023
24453WAT      O73600   8.117   6.092   0.002
24453WAT     H173601   8.134   6.113   0.099
24453WAT     H273602   8.191   6.130  -0.053
24454WAT      O73603   5.173   2.118   2.726
24454WAT     H173604   5.233   2.195   2.749
24454WAT     H273605   5.228   2.035   2.716
24455WAT      O73606   2.483   8.275   4.472
24455WAT     H173607   2.474   8.189   4.522
24455WAT     H273608   2.443   8.350   4.526
24456WAT      O73609   3.840   7.346   6.200
24456WAT     H173610   3.796   7.276   6.258
24456WAT     H273611   3.769   7.406   6.162
24457WAT      O73612   2.299   3.042   3.480
24457WAT     H173613   2.226   3.005   3.538
24457WAT     H273614   2.303   3.141   3.491
24458WAT      O73615   4.776   7.737   3.016
24458WAT     H173616   4.738   7.810   2.958
24458WAT     H273617   4.815   7.666   2.957
24459WAT      O73618   9.753   2.324   3.706
24459WAT     H173619   9.696   2.250   3.669
24459WAT     H273620   9.694   2.401   3.732
24460WAT      O73621   9.043   6.447   3.160
24460WAT     H173622   9.057   6.354   3.192
24460WAT     H273623   8.970   6.449   3.092
24461WAT      O73624   6.298   1.937   2.331
24461WAT     H173625   6.325   1.851   2.373
24461WAT     H273626   6.222   1.921   2.268
24462WAT      O73627   7.395   8.386   7.614
24462WAT     H173628   7.424   8.422   7.703
24462WAT     H273629   7.416   8.453   7.543
24463WAT      O73630   3.644   0.310   0.462
24463WAT     H173631   3.691   0.342   0.380
24463WAT     H273632   3.701   0.242   0.508
24464WAT      O73633   1.400   6.529   6.830
24464WAT     H173634   1.372   6.433   6.837
24464WAT     H273635   1.319   6.585   6.809
24465WAT      O73636   5.574   0.772   7.788
24465WAT     H173637   5.486   0.819   7.787
24465WAT     H273638   5.574   0.701   7.718
24466WAT      O73639   4.012   0.165   6.585
24466WAT     H173640   4.056   0.250   6.616
24466WAT     H273641   3.982   0.113   6.665
24467WAT      O73642   8.837   5.196   0.799
24467WAT     H173643   8.879   5.107   0.786
24467WAT     H273644   8.743   5.185   0.832
24468WAT      O73645   8.493   2.906   7.019
24468WAT     H173646   8.399   2.879   6.998
24468WAT     H273647   8.548   2.903   6.936
24469WAT      O73648   0.267   1.029   4.713
24469WAT     H173649   0.204   0.962   4.753
24469WAT     H273650   0.240   1.121   4.741
24470WAT      O73651   1.032   6.334   4.699
24470WAT     H173652   1.111   6.274   4.708
24470WAT     H273653   0.991   6.350   4.789
24471WAT      O73654   7.538   1.529   1.007
24471WAT     H173655   7.458   1.550   1.064
24471WAT     H273656   7.513   1.539   0.910
24472WAT      O73657   5.620   6.154   7.438
24472WAT     H173658   5.551   6.091   7.474
24472WAT     H273659   5.669   6.197   7.514
24473WAT      O73660   2.995   1.187   6.608
24473WAT     H173661   3.074   1.139   6.648
24473WAT     H273662   2.996   1.174   6.509
24474WAT      O73663   9.730   2.601   2.306
24474WAT     H173664   9.825   2.630   2.299
24474WAT     H273665   9.705   2.590   2.403
24475WAT      O73666   3.280   0.970   1.927
24475WAT     H173667   3.286   1.034   2.004
24475WAT     H273668   3.195   0.986   1.877
24476WAT      O73669   5.525   4.056   0.531
24476WAT     H173670   5.537   4.046   0.433
24476WAT     H273671   5.607   4.021   0.578
24477WAT      O73672   1.363   8.851   5.364
24477WAT     H173673   1.443   8.793   5.348
24477WAT     H273674   1.303   8.806   5.430
24478WAT      O73675   1.978   8.185   3.969
24478WAT     H173676   2.043   8.197   3.893
24478WAT     H273677   2.028   8.177   4.055
24479WAT      O73678   2.415   9.270   2.113
24479WAT     H173679   2.445   9.365   2.115
24479WAT     H273680   2.456   9.220   2.189
24480WAT      O73681   6.417   4.978   9.867
24480WAT     H173682   6.428   4.992   9.768
24480WAT     H273683   6.498   4.930   9.902
24481WAT      O73684   0.563   7.724   9.502
24481WAT     H173685   0.483   7.783   9.494
24481WAT     H273686   0.587   7.688   9.412
24482WAT      O73687   7.780   6.435   5.600
24482WAT     H173688   7.818   6.424   5.692
24482WAT     H273689   7.784   6.348   5.552
24483WAT      O73690   0.088   5.547   2.990
24483WAT     H173691   0.109   5.466   3.045
24483WAT     H273692   0.062   5.519   2.898
24484WAT      O73693   0.979   5.489   2.778
24484WAT     H173694   1.073   5.472   2.807
24484WAT     H273695   0.935   5.552   2.842
24485WAT      O73696   9.594   2.456   5.658
24485WAT     H173697   9.693   2.459   5.646
24485WAT     H273698   9.572   2.452   5.755
24486WAT      O73699   1.023   2.810   2.222
24486WAT     H173700   0.945   2.807   2.285
24486WAT     H273701   1.040   2.905   2.194
24487WAT      O73702   0.102   3.412   5.593
24487WAT     H173703   0.199   3.427   5.577
24487WAT     H273704   0.065   3.489   5.646
24488WAT      O73705   0.521   4.855   6.875
24488WAT     H173706   0.478   4.781   6.823
24488WAT     H273707   0.450   4.917   6.909
24489WAT      O73708   6.701   3.881   1.408
24489WAT     H173709   6.791   3.922   1.419
24489WAT     H273710   6.690   3.805   1.472
24490WAT      O73711   0.214   8.430   3.265
24490WAT     H173712   0.213   8.436   3.365
24490WAT     H273713   0.159   8.505   3.226
24491WAT      O73714   0.467   2.144   6.265
24491WAT     H173715   0.427   2.074   6.324
24491WAT     H273716   0.527   2.202   6.319
24492WAT      O73717   3.296   5.145   9.888
24492WAT     H173718   3.379   5.148   9.833
24492WAT     H273719   3.312   5.189   9.976
24493WAT      O73720   5.939   9.238   4.391
24493WAT     H173721   5.875   9.215   4.317
24493WAT     H273722   6.024   9.186   4.379
24494WAT      O73723   1.204   4.506   7.128
24494WAT     H173724   1.192   4.464   7.038
24494WAT     H273725   1.197   4.606   7.119
24495WAT      O73726   2.990   9.783   0.007
24495WAT     H173727   2.994   9.771  -0.092
24495WAT     H273728   3.036   9.869   0.032
24496WAT      O73729   5.487   7.836   4.851
24496WAT     H173730   5.486   7.884   4.938
24496WAT     H273731   5.419   7.877   4.790
24497WAT      O73732   3.950   5.073   3.094
24497WAT     H173733   3.951   5.133   3.174
24497WAT     H273734   3.989   4.984   3.118
24498WAT      O73735   7.036   5.600   8.459
24498WAT     H173736   7.017   5.611   8.362
24498WAT     H273737   7.133   5.613   8.476
24499WAT      O73738   0.324   2.042   1.508
24499WAT     H173739   0.326   1.967   1.575
24499WAT     H273740   0.337   2.129   1.555
24500WAT      O73741   6.039   7.620   5.287
24500WAT     H173742   6.064   7.651   5.196
24500WAT     H273743   6.122   7.609   5.342
24501WAT      O73744   2.309   2.319   1.724
24501WAT     H173745   2.341   2.399   1.674
24501WAT     H273746   2.370   2.303   1.802
24502WAT      O73747   3.736   4.846   6.253
24502WAT     H173748   3.661   4.868   6.315
24502WAT     H273749   3.704   4.783   6.183
24503WAT      O73750   4.575   9.467   7.459
24503WAT     H173751   4.565   9.371   7.432
24503WAT     H273752   4.534   9.482   7.549
24504WAT      O73753   3.104   1.252   0.257
24504WAT     H173754   3.122   1.235   0.160
24504WAT     H273755   3.069   1.345   0.268
24505WAT      O73756   7.404   6.133   8.741
24505WAT     H173757   7.450   6.186   8.669
24505WAT     H273758   7.441   6.158   8.830
24506WAT      O73759   3.975   5.152   8.283
24506WAT     H173760   4.021   5.183   8.366
24506WAT     H273761   3.877   5.165   8.293
24507WAT      O73762   6.694   3.437   7.178
24507WAT     H173763   6.701   3.340   7.200
24507WAT     H273764   6.674   3.489   7.261
24508WAT      O73765   8.952   4.830   8.636
24508WAT     H173766   8.997   4.881   8.562
24508WAT     H273767   8.874   4.882   8.670
24509WAT      O73768   4.794   7.462   9.265
24509WAT     H173769   4.783   7.511   9.352
24509WAT     H273770   4.740   7.377   9.268
24510WAT      O73771   1.215   4.196   5.319
24510WAT     H173772   1.241   4.158   5.409
24510WAT     H273773   1.118   4.178   5.302
24511WAT      O73774   4.024   7.793   9.035
24511WAT     H173775   3.974   7.741   9.105
24511WAT     H273776   3.986   7.773   8.945
24512WAT      O73777   8.340   7.399   0.216
24512WAT     H173778   8.374   7.320   0.266
24512WAT     H273779   8.291   7.368   0.135
24513WAT      O73780   8.300   0.509   5.654
24513WAT     H173781   8.299   0.478   5.559
24513WAT     H273782   8.222   0.470   5.702
24514WAT      O73783   8.083   0.339   6.672
24514WAT     H173784   8.016   0.408   6.644
24514WAT     H273785   8.043   0.279   6.741
24515WAT      O73786   0.677   0.764   6.127
24515WAT     H173787   0.717   0.673   6.141
24515WAT     H273788   0.592   0.756   6.076
24516WAT      O73789   9.322   8.297   2.825
24516WAT     H173790   9.239   8.317   2.878
24516WAT     H273791   9.298   8.241   2.746
24517WAT      O73792   6.141   6.936   1.168
24517WAT     H173793   6.175   6.917   1.076
24517WAT     H273794   6.074   7.011   1.164
24518WAT      O73795   6.849   3.127   4.823
24518WAT     H173796   6.776   3.083   4.770
24518WAT     H273797   6.812   3.160   4.910
24519WAT      O73798   0.171   8.047   5.524
24519WAT     H173799   0.125   7.995   5.452
24519WAT     H273800   0.236   7.988   5.571
24520WAT      O73801   9.461   5.453   7.567
24520WAT     H173802   9.447   5.400   7.483
24520WAT     H273803   9.558   5.453   7.591
24521WAT      O73804   7.801   8.248   6.441
24521WAT     H173805   7.725   8.241   6.376
24521WAT     H273806   7.875   8.301   6.400
24522WAT      O73807   7.272   2.150   7.011
24522WAT     H173808   7.226   2.208   6.944
24522WAT     H273809   7.259   2.188   7.103
24523WAT      O73810   6.999   4.973   2.292
24523WAT     H173811   7.026   4.997   2.385
24523WAT     H273812   6.935   5.042   2.257
24524WAT      O73813   3.141   5.120   5.328
24524WAT     H173814   3.181   5.059   5.397
24524WAT     H273815   3.042   5.112   5.330
24525WAT      O73816   8.351   2.667   9.174
24525WAT     H173817   8.432   2.642   9.121
24525WAT     H273818   8.317   2.756   9.143
24526WAT      O73819   7.418   9.492   2.006
24526WAT     H173820   7.421   9.589   1.981
24526WAT     H273821   7.478   9.440   1.946
24527WAT      O73822   4.637   4.989   4.882
24527WAT     H173823   4.709   4.930   4.846
24527WAT     H273824   4.654   5.083   4.854
24528WAT      O73825   2.944   9.673   0.689
24528WAT     H173826   2.846   9.685   0.675
24528WAT     H273827   2.994   9.735   0.629
24529WAT      O73828   0.547   7.046   3.918
24529WAT     H173829   0.457   7.052   3.875
24529WAT     H273830   0.581   6.952   3.910
24530WAT      O73831   3.901   2.188   3.169
24530WAT     H173832   3.994   2.224   3.172
24530WAT     H273833   3.836   2.264   3.167
24531WAT      O73834   2.885   3.174   4.299
24531WAT     H173835   2.956   3.106   4.278
24531WAT     H273836   2.909   3.261   4.255
24532WAT      O73837   5.924   8.473   0.902
24532WAT     H173838   6.021   8.499   0.899
24532WAT     H273839   5.885   8.500   0.989
24533WAT      O73840   2.986   2.785   8.611
24533WAT     H173841   2.970   2.809   8.706
24533WAT     H273842   3.004   2.687   8.603
24534WAT      O73843   0.302   2.500   5.570
24534WAT     H173844   0.226   2.483   5.507
24534WAT     H273845   0.317   2.598   5.578
24535WAT      O73846   1.275   8.690   6.542
24535WAT     H173847   1.287   8.665   6.638
24535WAT     H273848   1.189   8.651   6.509
24536WAT      O73849   2.950   0.181   4.463
24536WAT     H173850   3.024   0.240   4.430
24536WAT     H273851   2.989   0.101   4.508
24537WAT      O73852   6.423   0.146   3.414
24537WAT     H173853   6.496   0.210   3.438
24537WAT     H273854   6.458   0.078   3.350
24538WAT      O73855   1.138   3.358   0.445
24538WAT     H173856   1.237   3.354   0.436
24538WAT     H273857   1.113   3.420   0.519
24539WAT      O73858   6.801   6.341   0.017
24539WAT     H173859   6.791   6.405  -0.059
24539WAT     H273860   6.773   6.386   0.102
24540WAT      O73861   8.772   5.872   9.684
24540WAT     H173862   8.843   5.847   9.618
24540WAT     H273863   8.815   5.907   9.767
24541WAT      O73864   4.899   2.920   5.549
24541WAT     H173865   4.945   2.869   5.476
24541WAT     H273866   4.824   2.973   5.511
24542WAT      O73867   3.501   8.047   4.228
24542WAT     H173868   3.421   8.098   4.259
24542WAT     H273869   3.577   8.063   4.292
24543WAT      O73870   7.240   6.365   7.586
24543WAT     H173871   7.151   6.341   7.547
24543WAT     H273872   7.296   6.408   7.516
24544WAT      O73873   1.460   6.616   5.327
24544WAT     H173874   1.362   6.612   5.350
24544WAT     H273875   1.470   6.631   5.229
24545WAT      O73876   2.261   4.035   6.249
24545WAT     H173877   2.162   4.047   6.241
24545WAT     H273878   2.289   4.050   6.343
24546WAT      O73879   4.681   4.945   8.731
24546WAT     H173880   4.708   4.918   8.638
24546WAT     H273881   4.646   5.038   8.730
24547WAT      O73882   4.974   4.256   0.151
24547WAT     H173883   4.881   4.226   0.131
24547WAT     H273884   5.036   4.224   0.080
24548WAT      O73885   6.905   1.274   4.955
24548WAT     H173886   6.937   1.180   4.952
24548WAT     H273887   6.904   1.312   4.862
24549WAT      O73888   7.453   0.880   5.067
24549WAT     H173889   7.457   0.856   5.164
24549WAT     H273890   7.545   0.903   5.035
24550WAT      O73891   0.990   1.781   9.745
24550WAT     H173892   0.930   1.775   9.825
24550WAT     H273893   0.938   1.759   9.663
24551WAT      O73894   8.075   2.737   1.844
24551WAT     H173895   8.155   2.688   1.880
24551WAT     H273896   8.056   2.704   1.751
24552WAT      O73897   6.446   3.937   6.763
24552WAT     H173898   6.418   3.847   6.795
24552WAT     H273899   6.398   4.008   6.815
24553WAT      O73900   6.994   7.021   2.615
24553WAT     H173901   7.086   7.030   2.653
24553WAT     H273902   6.983   6.930   2.574
24554WAT      O73903   6.374   3.894   0.437
24554WAT     H173904   6.350   3.991   0.441
24554WAT     H273905   6.459   3.883   0.386
24555WAT      O73906   4.559   8.621   9.594
24555WAT     H173907   4.575   8.577   9.682
24555WAT     H273908   4.619   8.700   9.584
24556WAT      O73909   7.018   7.089   7.848
24556WAT     H173910   7.095   7.059   7.791
24556WAT     H273911   6.988   7.014   7.906
24557WAT      O73912   6.001   8.828   4.857
24557WAT     H173913   6.042   8.740   4.880
24557WAT     H273914   6.048   8.867   4.778
24558WAT      O73915   5.005   8.099   2.547
24558WAT     H173916   4.936   8.098   2.619
24558WAT     H273917   5.069   8.023   2.562
24559WAT      O73918   7.460   4.000   8.908
24559WAT     H173919   7.543   4.038   8.868
24559WAT     H273920   7.442   4.043   8.996
24560WAT      O73921   4.812   7.945   3.564
24560WAT     H173922   4.851   7.916   3.651
24560WAT     H273923   4.883   7.942   3.493
24561WAT      O73924   7.282   7.122   7.003
24561WAT     H173925   7.377   7.098   6.982
24561WAT     H273926   7.267   7.113   7.102
24562WAT      O73927   1.495   3.465   1.464
24562WAT     H173928   1.458   3.375   1.487
24562WAT     H273929   1.491   3.524   1.545
24563WAT      O73930   2.599   4.542   5.853
24563WAT     H173931   2.572   4.500   5.767
24563WAT     H273932   2.518   4.578   5.900
24564WAT      O73933   4.683   0.906   1.619
24564WAT     H173934   4.603   0.934   1.674
24564WAT     H273935   4.704   0.810   1.637
24565WAT      O73936   5.974   3.605   9.454
24565WAT     H173937   5.960   3.654   9.540
24565WAT     H273938   5.901   3.537   9.442
24566WAT      O73939   7.865   2.247   2.778
24566WAT     H173940   7.792   2.186   2.746
24566WAT     H273941   7.852   2.338   2.738
24567WAT      O73942   2.846   3.425   5.494
24567WAT     H173943   2.875   3.427   5.589
24567WAT     H273944   2.832   3.518   5.461
24568WAT      O73945   3.214   3.868   8.414
24568WAT     H173946   3.157   3.920   8.478
24568WAT     H273947   3.279   3.812   8.465
24569WAT      O73948   8.036   3.373   6.264
24569WAT     H173949   8.078   3.455   6.223
24569WAT     H273950   8.102   3.298   6.262
24570WAT      O73951   7.694   9.486   2.708
24570WAT     H173952   7.729   9.396   2.682
24570WAT     H273953   7.611   9.506   2.655
24571WAT      O73954   9.591   9.030   6.883
24571WAT     H173955   9.635   9.064   6.800
24571WAT     H273956   9.519   8.964   6.858
24572WAT      O73957   8.107   1.904   7.240
24572WAT     H173958   8.125   1.999   7.215
24572WAT     H273959   8.189   1.849   7.222
24573WAT      O73960   7.816   7.672   6.566
24573WAT     H173961   7.806   7.754   6.622
24573WAT     H273962   7.912   7.663   6.538
24574WAT      O73963   1.235   6.934   2.629
24574WAT     H173964   1.255   7.016   2.683
24574WAT     H273965   1.158   6.885   2.670
24575WAT      O73966   7.440   1.169   1.279
24575WAT     H173967   7.491   1.240   1.328
24575WAT     H273968   7.412   1.098   1.343
24576WAT      O73969   4.304   7.845   9.436
24576WAT     H173970   4.343   7.764   9.391
24576WAT     H273971   4.237   7.887   9.375
24577WAT      O73972   5.385   6.897   6.291
24577WAT     H173973   5.299   6.913   6.338
24577WAT     H273974   5.396   6.964   6.218
24578WAT      O73975   4.113   5.588   5.204
24578WAT     H173976   4.071   5.661   5.150
24578WAT     H273977   4.162   5.526   5.143
24579WAT      O73978   8.052   5.263   3.964
24579WAT     H173979   7.973   5.268   4.025
24579WAT     H273980   8.102   5.178   3.981
24580WAT      O73981   0.393   1.417   0.669
24580WAT     H173982   0.475   1.459   0.631
24580WAT     H273983   0.319   1.420   0.601
24581WAT      O73984   3.996   9.819   8.612
24581WAT     H173985   4.085   9.799   8.652
24581WAT     H273986   3.956   9.735   8.574
24582WAT      O73987   3.302   4.240   9.578
24582WAT     H173988   3.380   4.199   9.625
24582WAT     H273989   3.241   4.283   9.645
24583WAT      O73990   6.174   9.155   0.304
24583WAT     H173991   6.101   9.161   0.236
24583WAT     H273992   6.167   9.232   0.368
24584WAT      O73993   4.929   3.997   4.971
24584WAT     H173994   4.997   4.064   5.000
24584WAT     H273995   4.837   4.034   4.981
24585WAT      O73996   7.646   4.292   8.015
24585WAT     H173997   7.586   4.358   8.060
24585WAT     H273998   7.673   4.327   7.925
24586WAT      O73999   2.143   9.757   9.455
24586WAT     H174000   2.059   9.781   9.406
24586WAT     H274001   2.177   9.837   9.504
24587WAT      O74002   1.763   4.246   8.555
24587WAT     H174003   1.715   4.219   8.639
24587WAT     H274004   1.821   4.171   8.525
24588WAT      O74005   7.180   2.614   5.290
24588WAT     H174006   7.212   2.554   5.363
24588WAT     H274007   7.088   2.586   5.262
24589WAT      O74008   7.253   7.317   9.802
24589WAT     H174009   7.334   7.339   9.747
24589WAT     H274010   7.238   7.389   9.869
24590WAT      O74011   0.252   9.085   9.451
24590WAT     H174012   0.278   9.172   9.493
24590WAT     H274013   0.285   9.009   9.507
24591WAT      O74014   9.568   5.666   4.078
24591WAT     H174015   9.483   5.627   4.114
24591WAT     H274016   9.551   5.758   4.045
24592WAT      O74017   0.205   5.239   0.882
24592WAT     H174018   0.271   5.271   0.950
24592WAT     H274019   0.113   5.266   0.910
24593WAT      O74020   7.935   3.818   6.223
24593WAT     H174021   7.874   3.744   6.251
24593WAT     H274022   8.019   3.814   6.276
24594WAT      O74023   5.173   0.037   8.928
24594WAT     H174024   5.272   0.032   8.924
24594WAT     H274025   5.137   0.055   8.836
24595WAT      O74026   4.373   9.137   6.968
24595WAT     H174027   4.361   9.158   6.871
24595WAT     H274028   4.377   9.222   7.020
24596WAT      O74029   8.696   1.695   5.272
24596WAT     H174030   8.687   1.762   5.197
24596WAT     H274031   8.770   1.632   5.251
24597WAT      O74032   7.449   6.387   0.719
24597WAT     H174033   7.530   6.430   0.678
24597WAT     H274034   7.421   6.441   0.799
24598WAT      O74035   6.209   9.603   6.220
24598WAT     H174036   6.289   9.661   6.203
24598WAT     H274037   6.234   9.507   6.208
24599WAT      O74038   6.202   6.529   2.972
24599WAT     H174039   6.273   6.581   2.925
24599WAT     H274040   6.194   6.561   3.066
24600WAT      O74041   8.452   4.521   9.340
24600WAT     H174042   8.425   4.503   9.434
24600WAT     H274043   8.467   4.619   9.328
24601WAT      O74044   9.674   4.371   9.103
24601WAT     H174045   9.742   4.437   9.073
24601WAT     H274046   9.658   4.304   9.030
24602WAT      O74047   7.803   8.423   1.178
24602WAT     H174048   7.900   8.417   1.156
24602WAT     H274049   7.789   8.493   1.248
24603WAT      O74050   8.020   3.663   7.156
24603WAT     H174051   8.110   3.696   7.128
24603WAT     H274052   8.006   3.684   7.253
24604WAT      O74053   2.021   2.575   8.306
24604WAT     H174054   1.977   2.634   8.238
24604WAT     H274055   2.008   2.479   8.280
24605WAT      O74056   9.051   6.913   0.249
24605WAT     H174057   9.068   6.987   0.184
24605WAT     H274058   8.967   6.932   0.300
24606WAT      O74059   3.220   2.214   8.905
24606WAT     H174060   3.305   2.260   8.930
24606WAT     H274061   3.151   2.283   8.884
24607WAT      O74062   9.248   7.596   6.677
24607WAT     H174063   9.177   7.543   6.631
24607WAT     H274064   9.219   7.691   6.685
24608WAT      O74065   6.177   5.035   1.914
24608WAT     H174066   6.241   4.970   1.873
24608WAT     H274067   6.103   5.053   1.849
24609WAT      O74068   8.027   3.438   2.559
24609WAT     H174069   7.980   3.445   2.646
24609WAT     H274070   8.008   3.349   2.517
24610WAT      O74071   7.149   1.856   4.129
24610WAT     H174072   7.075   1.833   4.193
24610WAT     H274073   7.113   1.858   4.036
24611WAT      O74074   4.138   9.145   5.234
24611WAT     H174075   4.081   9.222   5.204
24611WAT     H274076   4.228   9.150   5.190
24612WAT      O74077   8.799   0.150   3.219
24612WAT     H174078   8.814   0.114   3.127
24612WAT     H274079   8.802   0.250   3.217
24613WAT      O74080   7.814   6.004   7.869
24613WAT     H174081   7.783   5.941   7.941
24613WAT     H274082   7.741   6.016   7.801
24614WAT      O74083   4.316   8.747   0.048
24614WAT     H174084   4.225   8.753   0.089
24614WAT     H274085   4.323   8.812  -0.027
24615WAT      O74086   8.625   1.488   7.139
24615WAT     H174087   8.700   1.451   7.084
24615WAT     H274088   8.589   1.570   7.096
24616WAT      O74089   4.525   4.791   9.636
24616WAT     H174090   4.611   4.838   9.617
24616WAT     H274091   4.541   4.693   9.641
24617WAT      O74092   1.118   4.145   0.331
24617WAT     H174093   1.024   4.170   0.356
24617WAT     H274094   1.163   4.223   0.289
24618WAT      O74095   5.628   2.993   1.676
24618WAT     H174096   5.628   2.902   1.718
24618WAT     H274097   5.534   3.022   1.660
24619WAT      O74098   3.798   0.035   2.647
24619WAT     H174099   3.894   0.060   2.634
24619WAT     H274100   3.740   0.098   2.596
24620WAT      O74101   3.705   5.141   8.318
24620WAT     H174102   3.638   5.072   8.289
24620WAT     H274103   3.674   5.231   8.287
24621WAT      O74104   5.629   5.317   3.022
24621WAT     H174105   5.588   5.406   3.045
24621WAT     H274106   5.613   5.296   2.926
24622WAT      O74107   4.407   2.006   3.545
24622WAT     H174108   4.477   2.052   3.491
24622WAT     H274109   4.423   2.022   3.642
24623WAT      O74110   5.304   0.039   6.281
24623WAT     H174111   5.275   0.097   6.357
24623WAT     H274112   5.404   0.038   6.276
24624WAT      O74113   0.114   7.798   0.609
24624WAT     H174114   0.180   7.766   0.541
24624WAT     H274115   0.080   7.721   0.662
24625WAT      O74116   7.985   3.742   8.913
24625WAT     H174117   7.955   3.681   8.987
24625WAT     H274118   8.036   3.689   8.846
24626WAT      O74119   0.896   5.303   9.504
24626WAT     H174120   0.925   5.208   9.513
24626WAT     H274121   0.840   5.329   9.583
24627WAT      O74122   2.685   5.217   1.726
24627WAT     H174123   2.599   5.211   1.777
24627WAT     H274124   2.755   5.162   1.772
24628WAT      O74125   7.053   0.807   2.902
24628WAT     H174126   6.999   0.780   2.823
24628WAT     H274127   7.126   0.869   2.873
24629WAT      O74128   9.296   7.972   3.018
24629WAT     H174129   9.324   7.953   2.924
24629WAT     H274130   9.349   8.049   3.053
24630WAT      O74131   3.662   3.031   8.909
24630WAT     H174132   3.689   2.955   8.968
24630WAT     H274133   3.721   3.110   8.928
24631WAT      O74134   2.736   1.866   7.026
24631WAT     H174135   2.717   1.877   6.929
24631WAT     H274136   2.832   1.838   7.038
24632WAT      O74137   5.638   7.303   2.965
24632WAT     H174138   5.701   7.270   2.894
24632WAT     H274139   5.634   7.403   2.963
24633WAT      O74140   1.537   4.502   0.826
24633WAT     H174141   1.531   4.583   0.885
24633WAT     H274142   1.593   4.523   0.746
24634WAT      O74143   4.808   7.177   2.030
24634WAT     H174144   4.849   7.115   2.096
24634WAT     H274145   4.747   7.125   1.970
24635WAT      O74146   7.841   9.712   2.038
24635WAT     H174147   7.817   9.677   2.129
24635WAT     H274148   7.856   9.636   1.976
24636WAT      O74149   0.019   1.946   9.104
24636WAT     H174150  -0.072   1.921   9.068
24636WAT     H274151   0.030   1.908   9.196
24637WAT      O74152   7.338   1.469   5.121
24637WAT     H174153   7.256   1.517   5.088
24637WAT     H274154   7.386   1.527   5.186
24638WAT      O74155   2.378   1.282   6.571
24638WAT     H174156   2.473   1.260   6.548
24638WAT     H274157   2.323   1.283   6.488
24639WAT      O74158   2.213   9.307   4.440
24639WAT     H174159   2.231   9.369   4.363
24639WAT     H274160   2.183   9.359   4.519
24640WAT      O74161   0.721   1.575   2.712
24640WAT     H174162   0.702   1.524   2.628
24640WAT     H274163   0.713   1.514   2.791
24641WAT      O74164   8.213   5.487   9.382
24641WAT     H174165   8.149   5.547   9.429
24641WAT     H274166   8.294   5.539   9.354
24642WAT      O74167   0.650   2.171   0.630
24642WAT     H174168   0.615   2.126   0.712
24642WAT     H274169   0.597   2.254   0.612
24643WAT      O74170   1.426   6.522   4.667
24643WAT     H174171   1.524   6.508   4.658
24643WAT     H274172   1.385   6.530   4.576
24644WAT      O74173   3.906   0.680   7.319
24644WAT     H174174   3.825   0.624   7.337
24644WAT     H274175   3.900   0.715   7.225
24645WAT      O74176   8.819   9.792   0.510
24645WAT     H174177   8.808   9.769   0.607
24645WAT     H274178   8.796   9.713   0.453
24646WAT      O74179   8.768   6.220   5.592
24646WAT     H174180   8.718   6.276   5.526
24646WAT     H274181   8.738   6.125   5.584
24647WAT      O74182   2.331   2.733   0.736
24647WAT     H174183   2.353   2.826   0.767
24647WAT     H274184   2.297   2.680   0.814
24648WAT      O74185   0.228   0.139   1.551
24648WAT     H174186   0.229   0.207   1.625
24648WAT     H274187   0.299   0.071   1.567
24649WAT      O74188   3.104   0.039   9.199
24649WAT     H174189   3.186   0.096   9.208
24649WAT     H274190   3.023   0.094   9.220
24650WAT      O74191   4.882   4.695   9.768
24650WAT     H174192   4.977   4.665   9.765
24650WAT     H274193   4.832   4.642   9.837
24651WAT      O74194   7.403   8.370   1.417
24651WAT     H174195   7.442   8.460   1.398
24651WAT     H274196   7.323   8.379   1.475
24652WAT      O74197   0.128   8.330   5.187
24652WAT     H174198   0.089   8.371   5.104
24652WAT     H274199   0.227   8.327   5.180
24653WAT      O74200   5.747   8.803   1.014
24653WAT     H174201   5.836   8.815   1.057
24653WAT     H274202   5.757   8.751   0.930
24654WAT      O74203   0.700   3.342   5.288
24654WAT     H174204   0.650   3.327   5.374
24654WAT     H274205   0.686   3.263   5.228
24655WAT      O74206   6.282   6.148   9.583
24655WAT     H174207   6.213   6.172   9.651
24655WAT     H274208   6.248   6.171   9.492
24656WAT      O74209   9.375   8.856   6.832
24656WAT     H174210   9.281   8.881   6.808
24656WAT     H274211   9.390   8.759   6.812
24657WAT      O74212   8.218   1.944   5.682
24657WAT     H174213   8.174   1.970   5.768
24657WAT     H274214   8.246   1.848   5.688
24658WAT      O74215   3.577   8.447   5.085
24658WAT     H174216   3.625   8.366   5.053
24658WAT     H274217   3.618   8.479   5.171
24659WAT      O74218   6.894   1.840   8.660
24659WAT     H174219   6.859   1.934   8.663
24659WAT     H274220   6.950   1.828   8.578
24660WAT      O74221   0.823   1.878   1.031
24660WAT     H174222   0.767   1.796   1.032
24660WAT     H274223   0.894   1.869   0.961
24661WAT      O74224   2.908   7.200   3.717
24661WAT     H174225   2.992   7.163   3.676
24661WAT     H274226   2.856   7.126   3.760
24662WAT      O74227   4.648   3.639   1.598
24662WAT     H174228   4.689   3.724   1.629
24662WAT     H274229   4.606   3.592   1.676
24663WAT      O74230   3.673   0.808   4.945
24663WAT     H174231   3.611   0.874   4.903
24663WAT     H274232   3.749   0.856   4.988
24664WAT      O74233   5.150   2.951   8.631
24664WAT     H174234   5.145   2.859   8.668
24664WAT     H274235   5.182   3.014   8.701
24665WAT      O74236   4.927   5.634   9.409
24665WAT     H174237   4.841   5.684   9.415
24665WAT     H274238   4.917   5.546   9.454
24666WAT      O74239   8.946   0.658   2.527
24666WAT     H174240   9.012   0.728   2.500
24666WAT     H274241   8.934   0.661   2.626
24667WAT      O74242   3.313   0.410   8.600
24667WAT     H174243   3.342   0.369   8.686
24667WAT     H274244   3.338   0.507   8.598
24668WAT      O74245   5.148   8.313   3.440
24668WAT     H174246   5.115   8.374   3.368
24668WAT     H274247   5.136   8.358   3.529
24669WAT      O74248   2.053   8.619   3.313
24669WAT     H174249   1.976   8.670   3.350
24669WAT     H274250   2.127   8.616   3.380
24670WAT      O74251   1.608   4.323   8.335
24670WAT     H174252   1.616   4.269   8.252
24670WAT     H274253   1.670   4.287   8.405
24671WAT      O74254   8.948   8.019   7.542
24671WAT     H174255   8.992   8.088   7.485
24671WAT     H274256   8.859   8.052   7.572
24672WAT      O74257   4.648   5.808   0.609
24672WAT     H174258   4.593   5.885   0.576
24672WAT     H274259   4.726   5.795   0.548
24673WAT      O74260   3.166   0.999   2.549
24673WAT     H174261   3.182   0.940   2.629
24673WAT     H274262   3.196   1.092   2.570
24674WAT      O74263   8.051   5.987   8.918
24674WAT     H174264   8.094   6.075   8.939
24674WAT     H274265   8.047   5.931   9.001
24675WAT      O74266   2.502   9.266   9.043
24675WAT     H174267   2.528   9.198   8.973
24675WAT     H274268   2.538   9.355   9.017
24676WAT      O74269   0.146   5.412   8.590
24676WAT     H174270   0.112   5.478   8.656
24676WAT     H274271   0.074   5.345   8.569
24677WAT      O74272   3.377   3.097   6.877
24677WAT     H174273   3.314   3.096   6.800
24677WAT     H274274   3.428   3.011   6.879
24678WAT      O74275   6.981   9.239   0.372
24678WAT     H174276   6.949   9.332   0.390
24678WAT     H274277   7.002   9.228   0.275
24679WAT      O74278   7.962   5.154   7.668
24679WAT     H174279   8.038   5.093   7.646
24679WAT     H274280   7.908   5.171   7.586
24680WAT      O74281   8.229   3.981   2.189
24680WAT     H174282   8.181   4.063   2.156
24680WAT     H274283   8.166   3.903   2.189
24681WAT      O74284   0.636   8.603   8.790
24681WAT     H174285   0.559   8.575   8.733
24681WAT     H274286   0.666   8.694   8.763
24682WAT      O74287   6.345   0.666   6.177
24682WAT     H174288   6.263   0.665   6.233
24682WAT     H274289   6.333   0.606   6.098
24683WAT      O74290   0.129   9.433   7.295
24683WAT     H174291   0.160   9.488   7.372
24683WAT     H274292   0.143   9.484   7.210
24684WAT      O74293   5.373   2.274   9.557
24684WAT     H174294   5.305   2.240   9.622
24684WAT     H274295   5.327   2.325   9.484
24685WAT      O74296   6.452   3.984   6.257
24685WAT     H174297   6.551   3.972   6.266
24685WAT     H274298   6.408   3.894   6.254
24686WAT      O74299   4.919   8.361   0.608
24686WAT     H174300   4.858   8.429   0.648
24686WAT     H274301   4.865   8.289   0.565
24687WAT      O74302   1.097   4.240   6.002
24687WAT     H174303   1.027   4.304   5.971
24687WAT     H274304   1.155   4.285   6.070
24688WAT      O74305   8.389   5.773   4.113
24688WAT     H174306   8.335   5.712   4.056
24688WAT     H274307   8.332   5.808   4.187
24689WAT      O74308   2.800   3.946   0.455
24689WAT     H174309   2.832   3.852   0.444
24689WAT     H274310   2.702   3.950   0.437
24690WAT      O74311   5.927   1.034   7.508
24690WAT     H174312   5.959   1.009   7.599
24690WAT     H274313   5.983   0.989   7.439
24691WAT      O74314   7.031   9.504   4.155
24691WAT     H174315   6.936   9.473   4.158
24691WAT     H274316   7.090   9.436   4.198
24692WAT      O74317   8.855   9.022   8.756
24692WAT     H174318   8.843   9.066   8.845
24692WAT     H274319   8.905   9.084   8.695
24693WAT      O74320   3.985   8.443   7.751
24693WAT     H174321   4.029   8.533   7.741
24693WAT     H274322   3.919   8.430   7.678
24694WAT      O74323   0.185   5.801   8.002
24694WAT     H174324   0.245   5.869   8.044
24694WAT     H274325   0.181   5.816   7.904
24695WAT      O74326   5.207   2.847   7.813
24695WAT     H174327   5.218   2.928   7.756
24695WAT     H274328   5.187   2.875   7.908
24696WAT      O74329   2.306   2.038   2.644
24696WAT     H174330   2.330   2.016   2.738
24696WAT     H274331   2.387   2.070   2.595
24697WAT      O74332   9.533   9.290   4.470
24697WAT     H174333   9.475   9.304   4.550
24697WAT     H274334   9.488   9.228   4.406
24698WAT      O74335   8.663   9.538   5.937
24698WAT     H174336   8.645   9.626   5.982
24698WAT     H274337   8.598   9.470   5.969
24699WAT      O74338   6.855   8.399   1.712
24699WAT     H174339   6.823   8.476   1.657
24699WAT     H274340   6.920   8.432   1.780
24700WAT      O74341   5.359   8.260   5.945
24700WAT     H174342   5.450   8.230   5.917
24700WAT     H274343   5.342   8.235   6.040
24701WAT      O74344   5.616   5.136   1.586
24701WAT     H174345   5.716   5.140   1.580
24701WAT     H274346   5.577   5.206   1.526
24702WAT      O74347   5.244   3.844   7.930
24702WAT     H174348   5.323   3.793   7.965
24702WAT     H274349   5.205   3.795   7.851
24703WAT      O74350   2.408   2.616   8.833
24703WAT     H174351   2.371   2.653   8.918
24703WAT     H274352   2.482   2.676   8.801
24704WAT      O74353   1.346   0.639   7.981
24704WAT     H174354   1.345   0.680   7.889
24704WAT     H274355   1.329   0.710   8.049
24705WAT      O74356   7.563   9.537   8.882
24705WAT     H174357   7.589   9.542   8.978
24705WAT     H274358   7.492   9.604   8.863
24706WAT      O74359   7.204   5.004   3.236
24706WAT     H174360   7.124   4.944   3.238
24706WAT     H274361   7.288   4.949   3.238
24707WAT      O74362   9.615   2.711   9.436
24707WAT     H174363   9.534   2.764   9.412
24707WAT     H274364   9.627   2.712   9.535
24708WAT      O74365   2.077   5.254   2.979
24708WAT     H174366   2.156   5.198   3.004
24708WAT     H274367   2.010   5.197   2.931
24709WAT      O74368   4.300   4.576   1.190
24709WAT     H174369   4.373   4.620   1.136
24709WAT     H274370   4.224   4.552   1.130
24710WAT      O74371   4.923   3.984   7.959
24710WAT     H174372   4.887   3.903   8.006
24710WAT     H274373   4.980   3.955   7.882
24711WAT      O74374   1.370   3.839   8.415
24711WAT     H174375   1.335   3.896   8.340
24711WAT     H274376   1.376   3.744   8.385
24712WAT      O74377   9.316   7.310   9.677
24712WAT     H174378   9.295   7.307   9.579
24712WAT     H274379   9.313   7.405   9.708
24713WAT      O74380   6.668   9.598   8.039
24713WAT     H174381   6.684   9.684   8.088
24713WAT     H274382   6.700   9.522   8.095
24714WAT      O74383   5.423   8.457   6.842
24714WAT     H174384   5.364   8.392   6.795
24714WAT     H274385   5.464   8.414   6.921
24715WAT      O74386   8.625   3.238   0.626
24715WAT     H174387   8.568   3.250   0.707
24715WAT     H274388   8.594   3.157   0.575
24716WAT      O74389   1.110   5.465   3.142
24716WAT     H174390   1.025   5.461   3.088
24716WAT     H274391   1.100   5.532   3.215
24717WAT      O74392   1.821   8.825   6.482
24717WAT     H174393   1.820   8.880   6.565
24717WAT     H274394   1.728   8.798   6.458
24718WAT      O74395   8.293   0.744   1.944
24718WAT     H174396   8.225   0.814   1.966
24718WAT     H274397   8.287   0.671   2.012
24719WAT      O74398   9.147   6.006   0.067
24719WAT     H174399   9.184   6.093   0.098
24719WAT     H274400   9.169   5.992  -0.030
24720WAT      O74401   7.793   7.829   8.088
24720WAT     H174402   7.821   7.830   7.992
24720WAT     H274403   7.705   7.783   8.097
24721WAT      O74404   4.796   6.622   6.643
24721WAT     H174405   4.879   6.650   6.594
24721WAT     H274406   4.789   6.674   6.728
24722WAT      O74407   1.402   0.329   4.032
24722WAT     H174408   1.340   0.382   4.091
24722WAT     H274409   1.483   0.302   4.085
24723WAT      O74410   5.753   6.823   5.827
24723WAT     H174411   5.767   6.840   5.924
24723WAT     H274412   5.658   6.841   5.802
24724WAT      O74413   9.036   7.866   9.873
24724WAT     H174414   9.040   7.913   9.961
24724WAT     H274415   9.073   7.773   9.883
24725WAT      O74416   2.329   1.460   1.276
24725WAT     H174417   2.329   1.379   1.335
24725WAT     H274418   2.235   1.481   1.250
24726WAT      O74419   3.915   1.472   2.767
24726WAT     H174420   3.872   1.544   2.821
24726WAT     H274421   4.011   1.464   2.792
24727WAT      O74422   0.205   8.956   3.735
24727WAT     H174423   0.151   9.015   3.675
24727WAT     H274424   0.190   8.983   3.831
24728WAT      O74425   1.124   2.432   3.838
24728WAT     H174426   1.223   2.419   3.845
24728WAT     H274427   1.089   2.466   3.926
24729WAT      O74428   7.092   3.692   1.018
24729WAT     H174429   7.083   3.603   0.973
24729WAT     H274430   7.007   3.743   1.006
24730WAT      O74431   6.332   8.134   8.482
24730WAT     H174432   6.235   8.159   8.478
24730WAT     H274433   6.387   8.215   8.502
24731WAT      O74434   0.421   8.652   3.803
24731WAT     H174435   0.464   8.740   3.818
24731WAT     H274436   0.328   8.666   3.768
24732WAT      O74437   7.100   8.554   6.048
24732WAT     H174438   7.103   8.612   5.966
24732WAT     H274439   7.023   8.582   6.106
24733WAT      O74440   8.639   2.509   3.532
24733WAT     H174441   8.678   2.595   3.499
24733WAT     H274442   8.642   2.506   3.632
24734WAT      O74443   0.427   6.529   7.637
24734WAT     H174444   0.359   6.591   7.598
24734WAT     H274445   0.420   6.530   7.737
24735WAT      O74446   7.881   6.554   7.113
24735WAT     H174447   7.799   6.535   7.168
24735WAT     H274448   7.878   6.499   7.030
24736WAT      O74449   2.550   8.896   0.882
24736WAT     H174450   2.452   8.893   0.905
24736WAT     H274451   2.591   8.977   0.925
24737WAT      O74452   6.722   8.404   6.841
24737WAT     H174453   6.626   8.378   6.828
24737WAT     H274454   6.733   8.445   6.932
24738WAT      O74455   4.508   8.183   8.627
24738WAT     H174456   4.416   8.144   8.642
24738WAT     H274457   4.533   8.238   8.706
24739WAT      O74458   0.084   1.114   8.175
24739WAT     H174459   0.006   1.172   8.152
24739WAT     H274460   0.165   1.171   8.185
24740WAT      O74461   9.252   6.151   5.685
24740WAT     H174462   9.333   6.116   5.732
24740WAT     H274463   9.246   6.250   5.698
24741WAT      O74464   4.625   5.721   1.297
24741WAT     H174465   4.658   5.814   1.314
24741WAT     H274466   4.582   5.685   1.379
24742WAT      O74467   3.094   8.563   9.216
24742WAT     H174468   3.065   8.557   9.121
24742WAT     H274469   3.014   8.575   9.275
24743WAT      O74470   1.276   8.865   3.139
24743WAT     H174471   1.315   8.784   3.095
24743WAT     H274472   1.347   8.912   3.193
24744WAT      O74473   3.752   3.250   9.480
24744WAT     H174474   3.751   3.338   9.526
24744WAT     H274475   3.741   3.177   9.548
24745WAT      O74476   6.255   6.526   9.592
24745WAT     H174477   6.303   6.597   9.541
24745WAT     H274478   6.231   6.451   9.531
24746WAT      O74479   7.289   9.489   4.933
24746WAT     H174480   7.277   9.395   4.962
24746WAT     H274481   7.295   9.493   4.833
24747WAT      O74482   8.229   3.365   2.756
24747WAT     H174483   8.306   3.429   2.756
24747WAT     H274484   8.160   3.396   2.690
24748WAT      O74485   2.728   7.667   3.671
24748WAT     H174486   2.774   7.740   3.620
24748WAT     H274487   2.797   7.611   3.719
24749WAT      O74488   5.576   5.314   4.602
24749WAT     H174489   5.655   5.365   4.567
24749WAT     H274490   5.555   5.347   4.695
24750WAT      O74491   4.831   2.280   9.655
24750WAT     H174492   4.875   2.258   9.742
24750WAT     H274493   4.889   2.343   9.604
24751WAT      O74494   4.364   3.374   3.941
24751WAT     H174495   4.345   3.388   4.038
24751WAT     H274496   4.301   3.306   3.904
24752WAT      O74497   1.028   3.923   9.482
24752WAT     H174498   1.027   3.917   9.581
24752WAT     H274499   0.959   3.862   9.444
24753WAT      O74500   7.713   1.198   9.036
24753WAT     H174501   7.775   1.146   9.094
24753WAT     H274502   7.765   1.243   8.963
24754WAT      O74503   8.302   8.968   6.641
24754WAT     H174504   8.216   8.954   6.592
24754WAT     H274505   8.360   9.032   6.590
24755WAT      O74506   5.237   8.378   1.868
24755WAT     H174507   5.151   8.356   1.821
24755WAT     H274508   5.218   8.400   1.964
24756WAT      O74509   3.368   1.972   1.573
24756WAT     H174510   3.386   2.070   1.583
24756WAT     H274511   3.425   1.935   1.499
24757WAT      O74512   3.364   2.391   9.174
24757WAT     H174513   3.445   2.337   9.153
24757WAT     H274514   3.374   2.482   9.133
24758WAT      O74515   5.736   4.637   9.675
24758WAT     H174516   5.778   4.726   9.693
24758WAT     H274517   5.709   4.594   9.762
24759WAT      O74518   2.223   1.547   3.984
24759WAT     H174519   2.311   1.592   4.000
24759WAT     H274520   2.161   1.611   3.939
24760WAT      O74521   6.156   9.335   0.897
24760WAT     H174522   6.137   9.390   0.816
24760WAT     H274523   6.129   9.386   0.979
24761WAT      O74524   7.399   1.678   0.767
24761WAT     H174525   7.308   1.684   0.727
24761WAT     H274526   7.450   1.762   0.748
24762WAT      O74527   7.268   9.399   8.313
24762WAT     H174528   7.343   9.412   8.378
24762WAT     H274529   7.195   9.464   8.333
24763WAT      O74530   4.656   7.911   2.831
24763WAT     H174531   4.635   7.838   2.766
24763WAT     H274532   4.576   7.928   2.889
24764WAT      O74533   5.310   3.884   3.978
24764WAT     H174534   5.355   3.917   4.061
24764WAT     H274535   5.377   3.838   3.919
24765WAT      O74536   4.875   9.120   7.587
24765WAT     H174537   4.863   9.135   7.489
24765WAT     H274538   4.968   9.088   7.604
24766WAT      O74539   1.513   5.842   5.197
24766WAT     H174540   1.444   5.771   5.207
24766WAT     H274541   1.541   5.848   5.101
24767WAT      O74542   7.987   1.685   2.707
24767WAT     H174543   8.050   1.646   2.640
24767WAT     H274544   7.928   1.752   2.662
24768WAT      O74545   5.245   8.335   0.946
24768WAT     H174546   5.201   8.245   0.937
24768WAT     H274547   5.200   8.386   1.019
24769WAT      O74548   7.348   2.230   3.961
24769WAT     H174549   7.250   2.243   3.978
24769WAT     H274550   7.363   2.215   3.864
24770WAT      O74551   0.268   0.941   4.278
24770WAT     H174552   0.219   0.897   4.204
24770WAT     H274553   0.325   1.014   4.242
24771WAT      O74554   5.429   5.832   3.152
24771WAT     H174555   5.347   5.835   3.210
24771WAT     H274556   5.404   5.854   3.058
24772WAT      O74557   0.718   9.136   0.526
24772WAT     H174558   0.649   9.157   0.457
24772WAT     H274559   0.708   9.040   0.554
24773WAT      O74560   6.838   9.620   3.809
24773WAT     H174561   6.930   9.586   3.826
24773WAT     H274562   6.819   9.699   3.867
24774WAT      O74563   1.354   7.798   1.587
24774WAT     H174564   1.332   7.702   1.606
24774WAT     H274565   1.453   7.811   1.594
24775WAT      O74566   9.826   0.878   3.925
24775WAT     H174567   9.788   0.821   3.852
24775WAT     H274568   9.770   0.960   3.936
24776WAT      O74569   0.372   9.139   2.525
24776WAT     H174570   0.279   9.103   2.528
24776WAT     H274571   0.415   9.114   2.438
24777WAT      O74572   5.124   2.254   8.051
24777WAT     H174573   5.193   2.210   7.994
24777WAT     H274574   5.107   2.197   8.132
24778WAT      O74575   0.138   9.832   1.347
24778WAT     H174576   0.136   9.748   1.399
24778WAT     H274577   0.160   9.909   1.407
24779WAT      O74578   3.069   4.879   4.557
24779WAT     H174579   2.982   4.885   4.508
24779WAT     H274580   3.074   4.952   4.625
24780WAT      O74581   3.517   1.108   7.201
24780WAT     H174582   3.462   1.190   7.185
24780WAT     H274583   3.522   1.091   7.299
24781WAT      O74584   3.329   3.203   2.718
24781WAT     H174585   3.428   3.200   2.705
24781WAT     H274586   3.288   3.120   2.679
24782WAT      O74587   4.287   0.106   2.988
24782WAT     H174588   4.355   0.076   2.921
24782WAT     H274589   4.196   0.078   2.958
24783WAT      O74590   9.407   9.288   2.736
24783WAT     H174591   9.339   9.260   2.668
24783WAT     H274592   9.448   9.375   2.707
24784WAT      O74593   1.436   4.963   2.831
24784WAT     H174594   1.495   4.991   2.755
24784WAT     H274595   1.345   4.942   2.796
24785WAT      O74596   4.271   1.152   1.848
24785WAT     H174597   4.239   1.117   1.935
24785WAT     H274598   4.194   1.165   1.786
24786WAT      O74599   6.253   6.448   4.007
24786WAT     H174600   6.169   6.403   3.979
24786WAT     H274601   6.332   6.398   3.972
24787WAT      O74602   3.063   9.364   4.787
24787WAT     H174603   2.965   9.352   4.776
24787WAT     H274604   3.106   9.274   4.798
24788WAT      O74605   9.670   1.190   2.924
24788WAT     H174606   9.669   1.260   2.853
24788WAT     H274607   9.707   1.228   3.008
24789WAT      O74608   4.776   4.049   2.270
24789WAT     H174609   4.876   4.055   2.270
24789WAT     H274610   4.745   4.006   2.355
24790WAT      O74611   8.339   0.106   6.205
24790WAT     H174612   8.386   0.024   6.238
24790WAT     H274613   8.256   0.120   6.260
24791WAT      O74614   0.023   2.565   6.006
24791WAT     H174615  -0.016   2.508   6.077
24791WAT     H274616   0.063   2.647   6.047
24792WAT      O74617   0.631   2.614   7.814
24792WAT     H174618   0.622   2.544   7.885
24792WAT     H274619   0.652   2.702   7.858
24793WAT      O74620   4.898   6.604   4.337
24793WAT     H174621   4.920   6.685   4.283
24793WAT     H274622   4.971   6.536   4.325
24794WAT      O74623   6.685   7.320   3.742
24794WAT     H174624   6.778   7.302   3.775
24794WAT     H274625   6.663   7.416   3.756
24795WAT      O74626   5.561   0.704   7.119
24795WAT     H174627   5.638   0.651   7.083
24795WAT     H274628   5.500   0.644   7.171
24796WAT      O74629   8.407   5.073   7.173
24796WAT     H174630   8.375   5.166   7.190
24796WAT     H274631   8.453   5.068   7.084
24797WAT      O74632   5.168   5.469   7.294
24797WAT     H174633   5.119   5.456   7.207
24797WAT     H274634   5.131   5.550   7.341
24798WAT      O74635   7.758   3.125   3.605
24798WAT     H174636   7.807   3.045   3.569
24798WAT     H274637   7.712   3.101   3.690
24799WAT      O74638   6.278   5.505   7.709
24799WAT     H174639   6.228   5.439   7.653
24799WAT     H274640   6.233   5.513   7.798
24800WAT      O74641   8.519   3.929   2.831
24800WAT     H174642   8.547   3.924   2.927
24800WAT     H274643   8.491   3.839   2.799
24801WAT      O74644   4.766   4.813   5.857
24801WAT     H174645   4.829   4.833   5.782
24801WAT     H274646   4.672   4.826   5.826
24802WAT      O74647   4.804   3.324   3.494
24802WAT     H174648   4.773   3.418   3.506
24802WAT     H274649   4.744   3.263   3.546
24803WAT      O74650   8.134   2.242   2.393
24803WAT     H174651   8.094   2.171   2.451
24803WAT     H274652   8.062   2.284   2.338
24804WAT      O74653   7.120   5.397   3.862
24804WAT     H174654   7.113   5.495   3.842
24804WAT     H274655   7.124   5.346   3.776
24805WAT      O74656   4.482   4.571   4.263
24805WAT     H174657   4.564   4.612   4.302
24805WAT     H274658   4.503   4.481   4.226
24806WAT      O74659   3.842   5.792   0.305
24806WAT     H174660   3.861   5.714   0.364
24806WAT     H274661   3.842   5.763   0.210
24807WAT      O74662   2.378   6.234   1.930
24807WAT     H174663   2.346   6.167   1.863
24807WAT     H274664   2.463   6.201   1.972
24808WAT      O74665   5.938   6.692   3.127
24808WAT     H174666   6.029   6.698   3.168
24808WAT     H274667   5.944   6.712   3.029
24809WAT      O74668   1.714   2.745   6.864
24809WAT     H174669   1.693   2.817   6.797
24809WAT     H274670   1.631   2.721   6.914
24810WAT      O74671   0.530   9.392   2.474
24810WAT     H174672   0.452   9.333   2.453
24810WAT     H274673   0.504   9.487   2.458
24811WAT      O74674   9.860   9.629   8.553
24811WAT     H174675   9.922   9.696   8.512
24811WAT     H274676   9.869   9.542   8.505
24812WAT      O74677   0.385   1.611   1.402
24812WAT     H174678   0.406   1.682   1.335
24812WAT     H274679   0.438   1.529   1.382
24813WAT      O74680   5.367   8.756   7.838
24813WAT     H174681   5.428   8.794   7.768
24813WAT     H274682   5.282   8.726   7.796
24814WAT      O74683   9.472   5.446   5.634
24814WAT     H174684   9.537   5.521   5.646
24814WAT     H274685   9.402   5.473   5.567
24815WAT      O74686   4.439   5.071   5.549
24815WAT     H174687   4.403   5.038   5.462
24815WAT     H274688   4.539   5.080   5.543
24816WAT      O74689   2.869   6.345   9.865
24816WAT     H174690   2.836   6.339   9.959
24816WAT     H274691   2.845   6.262   9.815
24817WAT      O74692   9.876   2.896   5.145
24817WAT     H174693   9.820   2.925   5.222
24817WAT     H274694   9.841   2.809   5.109
24818WAT      O74695   2.490   7.743   9.763
24818WAT     H174696   2.426   7.780   9.696
24818WAT     H274697   2.581   7.782   9.749
24819WAT      O74698   2.841   4.050   4.367
24819WAT     H174699   2.744   4.035   4.386
24819WAT     H274700   2.875   4.123   4.426
24820WAT      O74701   2.222   8.549   3.903
24820WAT     H174702   2.251   8.601   3.983
24820WAT     H274703   2.125   8.568   3.884
24821WAT      O74704   8.641   4.673   1.429
24821WAT     H174705   8.600   4.685   1.338
24821WAT     H274706   8.609   4.586   1.468
24822WAT      O74707   1.828   1.755   0.438
24822WAT     H174708   1.910   1.717   0.394
24822WAT     H274709   1.794   1.832   0.384
24823WAT      O74710   7.235   9.070   7.247
24823WAT     H174711   7.158   9.078   7.310
24823WAT     H274712   7.201   9.051   7.155
24824WAT      O74713   9.671   4.418   6.584
24824WAT     H174714   9.729   4.447   6.508
24824WAT     H274715   9.600   4.356   6.550
24825WAT      O74716   1.705   8.487   5.161
24825WAT     H174717   1.720   8.436   5.076
24825WAT     H274718   1.608   8.503   5.174
24826WAT      O74719   5.206   6.297   9.150
24826WAT     H174720   5.222   6.229   9.221
24826WAT     H274721   5.115   6.285   9.111
24827WAT      O74722   7.226   1.332   6.920
24827WAT     H174723   7.260   1.360   6.830
24827WAT     H274724   7.262   1.242   6.944
24828WAT      O74725   3.674   6.062   0.063
24828WAT     H174726   3.720   6.095   0.146
24828WAT     H274727   3.628   6.138   0.018
24829WAT      O74728   2.183   7.453   3.720
24829WAT     H174729   2.084   7.451   3.702
24829WAT     H274730   2.202   7.518   3.794
24830WAT      O74731   4.249   4.378   7.864
24830WAT     H174732   4.164   4.374   7.917
24830WAT     H274733   4.269   4.288   7.826
24831WAT      O74734   2.645   2.525   4.606
24831WAT     H174735   2.680   2.569   4.689
24831WAT     H274736   2.619   2.595   4.539
24832WAT      O74737   3.974   6.428   2.821
24832WAT     H174738   3.877   6.425   2.796
24832WAT     H274739   4.023   6.353   2.776
24833WAT      O74740   4.961   2.612   3.708
24833WAT     H174741   4.958   2.523   3.754
24833WAT     H274742   4.868   2.645   3.693
24834WAT      O74743   1.557   1.879   7.056
24834WAT     H174744   1.488   1.888   7.128
24834WAT     H274745   1.624   1.810   7.082
24835WAT      O74746   6.563   5.240   9.509
24835WAT     H174747   6.483   5.258   9.452
24835WAT     H274748   6.642   5.290   9.472
24836WAT      O74749   3.238   9.350   6.887
24836WAT     H174750   3.296   9.313   6.959
24836WAT     H274751   3.214   9.445   6.907
24837WAT      O74752   0.779   2.245   3.727
24837WAT     H174753   0.782   2.289   3.816
24837WAT     H274754   0.872   2.222   3.698
24838WAT      O74755   1.454   5.309   7.342
24838WAT     H174756   1.389   5.358   7.400
24838WAT     H274757   1.507   5.245   7.398
24839WAT      O74758   1.634   2.278   4.167
24839WAT     H174759   1.678   2.188   4.161
24839WAT     H274760   1.647   2.327   4.081
24840WAT      O74761   3.571   9.652   5.678
24840WAT     H174762   3.632   9.610   5.611
24840WAT     H274763   3.623   9.678   5.759
24841WAT      O74764   0.865   0.587   0.991
24841WAT     H174765   0.811   0.528   1.050
24841WAT     H274766   0.895   0.534   0.911
24842WAT      O74767   4.729   0.667   0.702
24842WAT     H174768   4.788   0.648   0.780
24842WAT     H274769   4.753   0.756   0.663
24843WAT      O74770   2.381   8.378   6.939
24843WAT     H174771   2.455   8.410   6.998
24843WAT     H274772   2.394   8.414   6.847
24844WAT      O74773   1.468   4.223   6.989
24844WAT     H174774   1.474   4.322   6.993
24844WAT     H274775   1.557   4.184   6.966
24845WAT      O74776   7.293   3.131   2.403
24845WAT     H174777   7.374   3.072   2.398
24845WAT     H274778   7.260   3.150   2.310
24846WAT      O74779   3.207   1.479   1.114
24846WAT     H174780   3.235   1.520   1.027
24846WAT     H274781   3.241   1.535   1.190
24847WAT      O74782   5.550   4.692   8.594
24847WAT     H174783   5.579   4.624   8.525
24847WAT     H274784   5.583   4.782   8.567
24848WAT      O74785   9.410   4.795   0.246
24848WAT     H174786   9.491   4.783   0.303
24848WAT     H274787   9.330   4.758   0.294
24849WAT      O74788   7.936   4.237   6.032
24849WAT     H174789   7.849   4.240   5.983
24849WAT     H274790   8.009   4.270   5.972
24850WAT      O74791   7.107   6.879   2.900
24850WAT     H174792   7.161   6.902   2.819
24850WAT     H274793   7.160   6.820   2.960
24851WAT      O74794   5.505   3.398   8.063
24851WAT     H174795   5.495   3.496   8.081
24851WAT     H274796   5.555   3.355   8.138
24852WAT      O74797   2.224   8.350   8.150
24852WAT     H174798   2.208   8.307   8.239
24852WAT     H274799   2.234   8.279   8.080
24853WAT      O74800   3.882   5.629   8.921
24853WAT     H174801   3.854   5.613   8.826
24853WAT     H274802   3.883   5.727   8.939
24854WAT      O74803   4.078   8.660   7.191
24854WAT     H174804   4.074   8.760   7.184
24854WAT     H274805   4.140   8.625   7.120
24855WAT      O74806   8.490   4.911   0.818
24855WAT     H174807   8.417   4.852   0.852
24855WAT     H274808   8.548   4.860   0.754
24856WAT      O74809   4.088   3.608   4.202
24856WAT     H174810   4.116   3.519   4.165
24856WAT     H274811   4.138   3.681   4.155
24857WAT      O74812   2.814   5.799   3.045
24857WAT     H174813   2.808   5.742   3.127
24857WAT     H274814   2.755   5.762   2.973
24858WAT      O74815   3.734   8.010   7.841
24858WAT     H174816   3.725   7.911   7.850
24858WAT     H274817   3.737   8.034   7.744
24859WAT      O74818   3.399   5.936   9.799
24859WAT     H174819   3.352   5.867   9.744
24859WAT     H274820   3.493   5.905   9.817
24860WAT      O74821   8.155   0.942   2.889
24860WAT     H174822   8.225   1.003   2.926
24860WAT     H274823   8.185   0.847   2.897
24861WAT      O74824   6.107   8.375   9.328
24861WAT     H174825   6.184   8.398   9.269
24861WAT     H274826   6.022   8.411   9.288
24862WAT      O74827   8.207   1.100   9.108
24862WAT     H174828   8.143   1.161   9.155
24862WAT     H274829   8.193   1.007   9.140
24863WAT      O74830   5.590   2.411   8.008
24863WAT     H174831   5.636   2.486   8.055
24863WAT     H274832   5.615   2.412   7.911
24864WAT      O74833   2.495   5.050   1.449
24864WAT     H174834   2.552   5.015   1.523
24864WAT     H274835   2.452   5.136   1.477
24865WAT      O74836   4.603   2.605   2.126
24865WAT     H174837   4.514   2.604   2.171
24865WAT     H274838   4.664   2.668   2.175
24866WAT      O74839   9.317   0.410   7.311
24866WAT     H174840   9.224   0.375   7.323
24866WAT     H274841   9.370   0.390   7.393
24867WAT      O74842   0.533   9.372   7.113
24867WAT     H174843   0.438   9.363   7.082
24867WAT     H274844   0.592   9.315   7.057
24868WAT      O74845   2.374   0.879   1.305
24868WAT     H174846   2.318   0.797   1.316
24868WAT     H274847   2.314   0.957   1.286
24869WAT      O74848   7.248   2.614   6.634
24869WAT     H174849   7.215   2.603   6.728
24869WAT     H274850   7.348   2.611   6.634
24870WAT      O74851   7.277   4.826   4.519
24870WAT     H174852   7.374   4.819   4.498
24870WAT     H274853   7.240   4.735   4.538
24871WAT      O74854   1.899   5.621   7.124
24871WAT     H174855   1.804   5.613   7.154
24871WAT     H274856   1.944   5.532   7.132
24872WAT      O74857   4.765   2.939   3.607
24872WAT     H174858   4.795   2.915   3.515
24872WAT     H274859   4.665   2.931   3.612
24873WAT      O74860   4.208   8.247   7.510
24873WAT     H174861   4.182   8.205   7.597
24873WAT     H274862   4.268   8.325   7.527
24874WAT      O74863   7.172   4.204   5.940
24874WAT     H174864   7.209   4.278   5.995
24874WAT     H274865   7.226   4.194   5.856
24875WAT      O74866   1.251   0.882   6.305
24875WAT     H174867   1.185   0.859   6.377
24875WAT     H274868   1.335   0.916   6.347
24876WAT      O74869   7.589   8.229   6.265
24876WAT     H174870   7.518   8.158   6.269
24876WAT     H274871   7.562   8.299   6.199
24877WAT      O74872   6.159   1.435   3.317
24877WAT     H174873   6.187   1.383   3.237
24877WAT     H274874   6.229   1.503   3.339
24878WAT      O74875   9.588   0.951   1.830
24878WAT     H174876   9.585   0.871   1.890
24878WAT     H274877   9.551   0.928   1.741
24879WAT      O74878   5.763   7.223   8.868
24879WAT     H174879   5.773   7.137   8.818
24879WAT     H274880   5.776   7.300   8.806
24880WAT      O74881   7.425   2.320   3.208
24880WAT     H174882   7.471   2.305   3.121
24880WAT     H274883   7.460   2.404   3.250
24881WAT      O74884   5.019   0.983   2.239
24881WAT     H174885   4.959   0.903   2.242
24881WAT     H274886   4.981   1.051   2.176
24882WAT      O74887   7.593   0.626   2.842
24882WAT     H174888   7.629   0.690   2.910
24882WAT     H274889   7.669   0.585   2.792
24883WAT      O74890   5.005   5.826   9.691
24883WAT     H174891   4.921   5.809   9.639
24883WAT     H274892   5.007   5.765   9.771
24884WAT      O74893   7.462   5.034   1.227
24884WAT     H174894   7.369   5.070   1.221
24884WAT     H274895   7.483   5.010   1.322
24885WAT      O74896   4.849   7.590   6.051
24885WAT     H174897   4.759   7.589   6.009
24885WAT     H274898   4.917   7.554   5.987
24886WAT      O74899   1.579   1.256   6.825
24886WAT     H174900   1.539   1.178   6.873
24886WAT     H274901   1.604   1.229   6.733
24887WAT      O74902   5.662   4.143   1.596
24887WAT     H174903   5.738   4.195   1.636
24887WAT     H274904   5.599   4.205   1.550
24888WAT      O74905   4.473   0.548   1.570
24888WAT     H174906   4.441   0.634   1.609
24888WAT     H274907   4.400   0.480   1.573
24889WAT      O74908   6.008   3.497   8.679
24889WAT     H174909   5.990   3.591   8.707
24889WAT     H274910   6.012   3.491   8.579
24890WAT      O74911   8.760   9.325   8.449
24890WAT     H174912   8.844   9.369   8.481
24890WAT     H274913   8.695   9.316   8.524
24891WAT      O74914   2.726   4.224   9.403
24891WAT     H174915   2.723   4.204   9.305
24891WAT     H274916   2.656   4.170   9.450
24892WAT      O74917   1.614   5.526   6.556
24892WAT     H174918   1.561   5.603   6.593
24892WAT     H274919   1.553   5.467   6.502
24893WAT      O74920   3.099   1.602   1.938
24893WAT     H174921   3.034   1.541   1.982
24893WAT     H274922   3.138   1.664   2.007
24894WAT      O74923   2.091   0.234   3.449
24894WAT     H174924   2.181   0.190   3.443
24894WAT     H274925   2.103   0.333   3.461
24895WAT      O74926   9.480   7.609   5.819
24895WAT     H174927   9.494   7.677   5.747
24895WAT     H274928   9.552   7.619   5.888
24896WAT      O74929   3.903   2.328   9.884
24896WAT     H174930   3.851   2.286   9.959
24896WAT     H274931   3.921   2.424   9.906
24897WAT      O74932   5.278   7.444   8.083
24897WAT     H174933   5.247   7.350   8.070
24897WAT     H274934   5.201   7.507   8.074
24898WAT      O74935   8.046   9.745   8.631
24898WAT     H174936   8.081   9.783   8.717
24898WAT     H274937   7.957   9.703   8.647
24899WAT      O74938   9.128   8.759   4.810
24899WAT     H174939   9.060   8.710   4.756
24899WAT     H274940   9.199   8.795   4.749
24900WAT      O74941   0.889   1.156   8.974
24900WAT     H174942   0.878   1.236   8.915
24900WAT     H274943   0.875   1.073   8.920
24901WAT      O74944   1.104   1.431   2.690
24901WAT     H174945   1.065   1.521   2.671
24901WAT     H274946   1.148   1.432   2.780
24902WAT      O74947   6.565   7.542   1.551
24902WAT     H174948   6.598   7.628   1.590
24902WAT     H274949   6.493   7.505   1.610
24903WAT      O74950   7.773   1.982   4.486
24903WAT     H174951   7.792   2.052   4.555
24903WAT     H274952   7.837   1.906   4.497
24904WAT      O74953   1.266   9.211   3.318
24904WAT     H174954   1.264   9.179   3.412
24904WAT     H274955   1.339   9.165   3.268
24905WAT      O74956   7.148   4.540   9.673
24905WAT     H174957   7.185   4.465   9.619
24905WAT     H274958   7.223   4.593   9.713
24906WAT      O74959   5.118   0.514   0.740
24906WAT     H174960   5.152   0.432   0.694
24906WAT     H274961   5.170   0.529   0.824
24907WAT      O74962   5.260   4.607   7.349
24907WAT     H174963   5.240   4.565   7.437
24907WAT     H274964   5.181   4.660   7.318
24908WAT      O74965   9.288   0.633   5.985
24908WAT     H174966   9.309   0.729   5.964
24908WAT     H274967   9.218   0.629   6.056
24909WAT      O74968   9.309   6.474   6.585
24909WAT     H174969   9.344   6.503   6.495
24909WAT     H274970   9.354   6.389   6.612
24910WAT      O74971   8.895   3.103   9.380
24910WAT     H174972   8.950   3.175   9.424
24910WAT     H274973   8.878   3.127   9.285
24911WAT      O74974   3.061   5.949   3.781
24911WAT     H174975   3.092   5.854   3.779
24911WAT     H274976   3.133   6.006   3.822
24912WAT      O74977   2.016   7.546   7.323
24912WAT     H174978   1.950   7.478   7.292
24912WAT     H274979   1.969   7.630   7.349
24913WAT      O74980   4.317   1.501   1.388
24913WAT     H174981   4.408   1.522   1.351
24913WAT     H274982   4.316   1.406   1.420
24914WAT      O74983   1.974   1.040   1.548
24914WAT     H174984   1.921   0.957   1.531
24914WAT     H274985   2.052   1.018   1.606
24915WAT      O74986   1.269   5.173   5.209
24915WAT     H174987   1.338   5.100   5.213
24915WAT     H274988   1.310   5.256   5.171
24916WAT      O74989   0.480   5.423   9.655
24916WAT     H174990   0.458   5.403   9.560
24916WAT     H274991   0.410   5.482   9.694
24917WAT      O74992   8.712   6.460   3.988
24917WAT     H174993   8.665   6.547   4.003
24917WAT     H274994   8.658   6.403   3.927
24918WAT      O74995   0.094   5.858   6.424
24918WAT     H174996  -0.003   5.880   6.419
24918WAT     H274997   0.128   5.874   6.517
24919WAT      O74998   9.403   0.078   7.820
24919WAT     H174999   9.490   0.091   7.867
24919WAT     H275000   9.354   0.001   7.862
24920WAT      O75001   0.664   5.186   4.723
24920WAT     H175002   0.741   5.204   4.785
24920WAT     H275003   0.602   5.265   4.724
24921WAT      O75004   9.851   3.417   3.351
24921WAT     H175005   9.900   3.491   3.305
24921WAT     H275006   9.860   3.427   3.450
24922WAT      O75007   7.980   8.442   6.335
24922WAT     H175008   8.001   8.497   6.254
24922WAT     H275009   7.962   8.503   6.413
24923WAT      O75010   2.360   9.471   0.914
24923WAT     H175011   2.278   9.476   0.972
24923WAT     H275012   2.424   9.543   0.941
24924WAT      O75013   1.514   1.402   3.714
24924WAT     H175014   1.422   1.422   3.749
24924WAT     H275015   1.582   1.439   3.777
24925WAT      O75016   8.751   8.366   7.254
24925WAT     H175017   8.710   8.399   7.169
24925WAT     H275018   8.711   8.278   7.279
24926WAT      O75019   1.237   2.066   5.082
24926WAT     H175020   1.180   1.998   5.126
24926WAT     H275021   1.201   2.158   5.099
24927WAT      O75022   9.624   5.283   2.552
24927WAT     H175023   9.698   5.215   2.547
24927WAT     H275024   9.664   5.375   2.558
24928WAT      O75025   6.176   8.575   0.888
24928WAT     H175026   6.227   8.495   0.857
24928WAT     H275027   6.197   8.653   0.828
24929WAT      O75028   2.032   3.824   9.417
24929WAT     H175029   2.123   3.853   9.445
24929WAT     H275030   1.969   3.902   9.423
24930WAT      O75031   0.321   4.545   5.115
24930WAT     H175032   0.412   4.539   5.156
24930WAT     H275033   0.329   4.536   5.016
24931WAT      O75034   1.223   1.227   9.440
24931WAT     H175035   1.274   1.286   9.502
24931WAT     H275036   1.266   1.137   9.437
24932WAT      O75037   7.140   0.132   6.501
24932WAT     H175038   7.181   0.041   6.493
24932WAT     H275039   7.128   0.154   6.598
24933WAT      O75040   5.328   6.811   7.788
24933WAT     H175041   5.399   6.828   7.720
24933WAT     H275042   5.275   6.730   7.762
24934WAT      O75043   1.120   9.068   7.411
24934WAT     H175044   1.022   9.061   7.433
24934WAT     H275045   1.151   9.162   7.429
24935WAT      O75046   1.754   8.604   8.909
24935WAT     H175047   1.764   8.658   8.993
24935WAT     H275048   1.745   8.665   8.831
24936WAT      O75049   4.988   7.733   4.351
24936WAT     H175050   5.087   7.745   4.346
24936WAT     H275051   4.950   7.796   4.417
24937WAT      O75052   0.429   6.784   5.090
24937WAT     H175053   0.451   6.860   5.151
24937WAT     H275054   0.492   6.708   5.107
24938WAT      O75055   1.635   8.620   0.255
24938WAT     H175056   1.598   8.538   0.297
24938WAT     H275057   1.725   8.600   0.217
24939WAT      O75058   4.655   3.586   6.316
24939WAT     H175059   4.600   3.670   6.318
24939WAT     H275060   4.744   3.604   6.274
24940WAT      O75061   0.740   5.907   6.399
24940WAT     H175062   0.677   5.865   6.334
24940WAT     H275063   0.789   5.836   6.449
24941WAT      O75064   5.019   8.696   6.628
24941WAT     H175065   4.966   8.769   6.585
24941WAT     H275066   4.988   8.607   6.594
24942WAT      O75067   0.365   3.561   5.527
24942WAT     H175068   0.440   3.597   5.583
24942WAT     H275069   0.331   3.633   5.467
24943WAT      O75070   8.616   8.564   1.398
24943WAT     H175071   8.522   8.596   1.389
24943WAT     H275072   8.647   8.529   1.309
24944WAT      O75073   4.577   4.016   6.937
24944WAT     H175074   4.610   3.927   6.908
24944WAT     H275075   4.643   4.087   6.911
24945WAT      O75076   3.535   9.224   9.328
24945WAT     H175077   3.537   9.307   9.383
24945WAT     H275078   3.594   9.155   9.371
24946WAT      O75079   0.787   2.695   7.271
24946WAT     H175080   0.849   2.773   7.267
24946WAT     H275081   0.790   2.654   7.362
24947WAT      O75082   7.030   4.585   1.087
24947WAT     H175083   6.963   4.554   1.018
24947WAT     H275084   7.018   4.532   1.171
24948WAT      O75085   3.972   3.966   3.585
24948WAT     H175086   4.029   3.939   3.663
24948WAT     H275087   4.003   3.917   3.503
24949WAT      O75088   1.262   6.500   1.417
24949WAT     H175089   1.356   6.518   1.448
24949WAT     H275090   1.264   6.464   1.324
24950WAT      O75091   0.860   7.303   7.159
24950WAT     H175092   0.810   7.368   7.216
24950WAT     H275093   0.917   7.245   7.217
24951WAT      O75094   8.788   3.926   2.677
24951WAT     H175095   8.711   3.939   2.739
24951WAT     H275096   8.870   3.968   2.716
24952WAT      O75097   1.483   0.531   3.590
24952WAT     H175098   1.497   0.454   3.652
24952WAT     H275099   1.572   0.568   3.563
24953WAT      O75100   2.193   7.194   7.817
24953WAT     H175101   2.270   7.250   7.847
24953WAT     H275102   2.192   7.189   7.717
24954WAT      O75103   9.171   2.504   6.002
24954WAT     H175104   9.114   2.434   6.045
24954WAT     H275105   9.226   2.549   6.072
24955WAT      O75106   5.914   3.474   9.869
24955WAT     H175107   5.822   3.450   9.897
24955WAT     H275108   5.914   3.564   9.825
24956WAT      O75109   0.221   1.806   1.080
24956WAT     H175110   0.222   1.765   0.989
24956WAT     H275111   0.129   1.796   1.120
24957WAT      O75112   5.869   8.694   0.009
24957WAT     H175113   5.879   8.619   0.074
24957WAT     H275114   5.923   8.675  -0.073
24958WAT      O75115   3.437   8.124   0.398
24958WAT     H175116   3.401   8.208   0.441
24958WAT     H275117   3.362   8.072   0.358
24959WAT      O75118   1.534   4.583   1.584
24959WAT     H175119   1.467   4.571   1.511
24959WAT     H275120   1.536   4.680   1.612
24960WAT      O75121   4.499   7.099   9.790
24960WAT     H175122   4.469   7.039   9.716
24960WAT     H275123   4.419   7.142   9.833
24961WAT      O75124   8.677   6.608   0.566
24961WAT     H175125   8.721   6.588   0.654
24961WAT     H275126   8.746   6.619   0.495
24962WAT      O75127   5.507   1.045   4.090
24962WAT     H175128   5.526   1.034   3.993
24962WAT     H275129   5.567   0.984   4.143
24963WAT      O75130   9.374   8.579   3.822
24963WAT     H175131   9.320   8.502   3.855
24963WAT     H275132   9.433   8.548   3.747
24964WAT      O75133   4.643   1.804   5.964
24964WAT     H175134   4.629   1.710   5.995
24964WAT     H275135   4.637   1.807   5.864
24965WAT      O75136   0.153   2.451   2.570
24965WAT     H175137   0.081   2.421   2.507
24965WAT     H275138   0.112   2.501   2.646
24966WAT      O75139   6.997   5.930   0.748
24966WAT     H175140   7.087   5.969   0.766
24966WAT     H275141   6.998   5.832   0.768
24967WAT      O75142   1.401   6.405   2.989
24967WAT     H175143   1.401   6.503   3.006
24967WAT     H275144   1.379   6.388   2.892
24968WAT      O75145   8.997   2.463   8.417
24968WAT     H175146   9.068   2.507   8.472
24968WAT     H275147   8.927   2.425   8.477
24969WAT      O75148   1.620   3.398   5.072
24969WAT     H175149   1.630   3.486   5.026
24969WAT     H275150   1.523   3.379   5.089
24970WAT      O75151   4.667   4.670   8.825
24970WAT     H175152   4.633   4.618   8.747
24970WAT     H275153   4.669   4.767   8.801
24971WAT      O75154   2.274   4.808   4.925
24971WAT     H175155   2.190   4.772   4.967
24971WAT     H275156   2.343   4.736   4.922
24972WAT      O75157   0.372   4.215   9.599
24972WAT     H175158   0.380   4.296   9.541
24972WAT     H275159   0.291   4.162   9.572
24973WAT      O75160   1.061   3.996   9.751
24973WAT     H175161   1.092   3.930   9.818
24973WAT     H275162   0.984   4.048   9.788
24974WAT      O75163   4.220   5.308   6.031
24974WAT     H175164   4.308   5.328   6.074
24974WAT     H275165   4.224   5.333   5.934
24975WAT      O75166   8.608   4.509   2.205
24975WAT     H175167   8.511   4.521   2.228
24975WAT     H275168   8.650   4.448   2.272
24976WAT      O75169   0.022   6.140   6.225
24976WAT     H175170   0.068   6.136   6.313
24976WAT     H275171   0.088   6.124   6.152
24977WAT      O75172   5.058   3.082   9.218
24977WAT     H175173   5.029   3.040   9.305
24977WAT     H275174   5.141   3.038   9.186
24978WAT      O75175   5.601   1.419   6.805
24978WAT     H175176   5.694   1.388   6.821
24978WAT     H275177   5.591   1.515   6.833
24979WAT      O75178   9.194   5.283   6.410
24979WAT     H175179   9.146   5.235   6.336
24979WAT     H275180   9.151   5.372   6.424
24980WAT      O75181   4.430   5.239   0.802
24980WAT     H175182   4.498   5.310   0.821
24980WAT     H275183   4.400   5.199   0.887
24981WAT      O75184   9.228   8.175   0.783
24981WAT     H175185   9.244   8.273   0.772
24981WAT     H275186   9.211   8.134   0.694
24982WAT      O75187   7.500   2.786   4.218
24982WAT     H175188   7.524   2.877   4.182
24982WAT     H275189   7.415   2.793   4.270
24983WAT      O75190   3.609   3.943   2.284
24983WAT     H175191   3.530   3.953   2.224
24983WAT     H275192   3.579   3.909   2.373
24984WAT      O75193   6.309   5.865   7.011
24984WAT     H175194   6.391   5.819   6.976
24984WAT     H275195   6.271   5.812   7.087
24985WAT      O75196   9.388   7.196   5.248
24985WAT     H175197   9.436   7.241   5.172
24985WAT     H275198   9.293   7.228   5.250
24986WAT      O75199   5.205   5.979   8.007
24986WAT     H175200   5.218   5.929   8.092
24986WAT     H275201   5.272   6.053   8.000
24987WAT      O75202   1.234   1.500   2.000
24987WAT     H175203   1.300   1.493   2.075
24987WAT     H275204   1.147   1.459   2.028
24988WAT      O75205   4.548   1.265   1.097
24988WAT     H175206   4.539   1.167   1.080
24988WAT     H275207   4.637   1.285   1.136
24989WAT      O75208   7.804   4.551   6.465
24989WAT     H175209   7.903   4.533   6.461
24989WAT     H275210   7.778   4.568   6.560
24990WAT      O75211   1.714   2.063   2.288
24990WAT     H175212   1.757   1.973   2.277
24990WAT     H275213   1.780   2.134   2.267
24991WAT      O75214   5.023   4.881   3.259
24991WAT     H175215   5.003   4.973   3.224
24991WAT     H275216   5.092   4.887   3.330
24992WAT      O75217   9.228   6.699   7.467
24992WAT     H175218   9.129   6.688   7.466
24992WAT     H275219   9.268   6.646   7.392
24993WAT      O75220   5.016   8.497   0.859
24993WAT     H175221   5.081   8.427   0.832
24993WAT     H275222   5.021   8.513   0.958
24994WAT      O75223   2.087   6.452   1.255
24994WAT     H175224   1.996   6.477   1.222
24994WAT     H275225   2.134   6.533   1.290
24995WAT      O75226   1.282   6.034   8.703
24995WAT     H175227   1.266   6.130   8.722
24995WAT     H275228   1.274   5.981   8.787
24996WAT      O75229   9.774   8.229   2.959
24996WAT     H175230   9.758   8.296   2.886
24996WAT     H275231   9.717   8.149   2.943
24997WAT      O75232   2.740   8.044   5.098
24997WAT     H175233   2.712   8.132   5.134
24997WAT     H275234   2.722   8.041   5.000
24998WAT      O75235   3.109   5.695   3.847
24998WAT     H175236   3.204   5.686   3.878
24998WAT     H275237   3.055   5.619   3.883
24999WAT      O75238   0.716   7.704   7.795
24999WAT     H175239   0.628   7.692   7.749
24999WAT     H275240   0.700   7.734   7.889
25000WAT      O75241   8.487   4.376   3.451
25000WAT     H175242   8.498   4.346   3.545
25000WAT     H275243   8.390   4.379   3.427
25001WAT      O75244   4.673   5.960   1.384
25001WAT     H175245   4.642   6.052   1.361
25001WAT     H275246   4.711   5.961   1.477
25002WAT      O75247   0.653   1.760   2.454
25002WAT     H175248   0.611   1.848   2.477
25002WAT     H275249   0.623   1.690   2.519
25003WAT      O75250   8.049   0.801   9.792
25003WAT     H175251   8.142   0.802   9.755
25003WAT     H275252   8.024   0.894   9.819
25004WAT      O75253   7.099   5.412   5.316
25004WAT     H175254   7.143   5.446   5.233
25004WAT     H275255   7.001   5.433   5.312
25005WAT      O75256   2.707   2.263   1.833
25005WAT     H175257   2.624   2.222   1.870
25005WAT     H275258   2.718   2.234   1.737
25006WAT      O75259   9.375   8.518   8.923
25006WAT     H175260   9.303   8.550   8.985
25006WAT     H275261   9.377   8.418   8.922
25007WAT      O75262   6.359   4.645   0.816
25007WAT     H175263   6.401   4.610   0.900
25007WAT     H275264   6.310   4.730   0.835
25008WAT      O75265   3.573   5.928   3.100
25008WAT     H175266   3.632   5.957   3.175
25008WAT     H275267   3.630   5.899   3.023
25009WAT      O75268   3.450   3.962   0.756
25009WAT     H175269   3.357   3.999   0.764
25009WAT     H275270   3.511   4.032   0.719
25010WAT      O75271   2.431   5.815   1.149
25010WAT     H175272   2.467   5.898   1.106
25010WAT     H275273   2.356   5.780   1.094
25011WAT      O75274   6.057   1.655   4.487
25011WAT     H175275   5.958   1.645   4.474
25011WAT     H275276   6.102   1.655   4.397
25012WAT      O75277   5.777   2.263   4.614
25012WAT     H175278   5.689   2.217   4.601
25012WAT     H275279   5.765   2.340   4.677
25013WAT      O75280   9.379   8.316   5.995
25013WAT     H175281   9.312   8.388   6.012
25013WAT     H275282   9.334   8.238   5.952
25014WAT      O75283   0.616   7.900   4.771
25014WAT     H175284   0.670   7.818   4.789
25014WAT     H275285   0.665   7.981   4.805
25015WAT      O75286   9.329   0.088   0.207
25015WAT     H175287   9.414   0.036   0.213
25015WAT     H275288   9.268   0.046   0.140
25016WAT      O75289   0.425   7.639   3.847
25016WAT     H175290   0.470   7.720   3.887
25016WAT     H275291   0.483   7.559   3.861
25017WAT      O75292   2.724   2.983   6.261
25017WAT     H175293   2.809   2.930   6.264
25017WAT     H275294   2.745   3.079   6.243
25018WAT      O75295   9.177   1.240   6.895
25018WAT     H175296   9.240   1.163   6.882
25018WAT     H275297   9.210   1.319   6.844
25019WAT      O75298   8.779   2.021   4.761
25019WAT     H175299   8.835   2.018   4.678
25019WAT     H275300   8.720   1.940   4.764
25020WAT      O75301   0.231   5.059   6.666
25020WAT     H175302   0.208   5.103   6.579
25020WAT     H275303   0.316   5.097   6.702
25021WAT      O75304   7.438   4.179   7.628
25021WAT     H175305   7.501   4.256   7.641
25021WAT     H275306   7.350   4.213   7.595
25022WAT      O75307   7.336   4.541   5.047
25022WAT     H175308   7.329   4.593   5.133
25022WAT     H275309   7.292   4.593   4.974
25023WAT      O75310   8.213   3.753   0.368
25023WAT     H175311   8.223   3.823   0.440
25023WAT     H275312   8.175   3.795   0.286
25024WAT      O75313   4.287   4.656   6.687
25024WAT     H175314   4.327   4.730   6.632
25024WAT     H275315   4.346   4.575   6.683
25025WAT      O75316   1.611   4.294   9.821
25025WAT     H175317   1.567   4.254   9.741
25025WAT     H275318   1.664   4.224   9.869
25026WAT      O75319   1.975   4.812   6.730
25026WAT     H175320   1.914   4.804   6.808
25026WAT     H275321   1.962   4.901   6.686
25027WAT      O75322   6.616   3.910   2.581
25027WAT     H175323   6.657   3.898   2.491
25027WAT     H275324   6.686   3.901   2.651
25028WAT      O75325   7.721   0.174   0.917
25028WAT     H175326   7.649   0.122   0.873
25028WAT     H275327   7.778   0.218   0.848
25029WAT      O75328   8.169   9.693   4.634
25029WAT     H175329   8.238   9.731   4.696
25029WAT     H275330   8.117   9.768   4.592
25030WAT      O75331   3.074   1.915   9.881
25030WAT     H175332   3.148   1.861   9.921
25030WAT     H275333   3.112   1.995   9.834
25031WAT      O75334   3.777   9.187   2.323
25031WAT     H175335   3.691   9.171   2.371
25031WAT     H275336   3.757   9.209   2.227
25032WAT      O75337   2.027   2.188   7.778
25032WAT     H175338   2.002   2.146   7.865
25032WAT     H275339   1.956   2.253   7.751
25033WAT      O75340   9.804   4.784   4.418
25033WAT     H175341   9.733   4.715   4.404
25033WAT     H275342   9.829   4.824   4.330
25034WAT      O75343   1.494   5.593   3.543
25034WAT     H175344   1.589   5.610   3.570
25034WAT     H275345   1.445   5.551   3.619
25035WAT      O75346   9.306   3.520   6.259
25035WAT     H175347   9.280   3.566   6.174
25035WAT     H275348   9.317   3.587   6.332
25036WAT      O75349   6.133   4.883   3.340
25036WAT     H175350   6.142   4.814   3.268
25036WAT     H275351   6.149   4.840   3.429
25037WAT      O75352   2.570   6.661   9.040
25037WAT     H175353   2.498   6.652   8.971
25037WAT     H275354   2.556   6.746   9.091
25038WAT      O75355   9.560   0.953   2.290
25038WAT     H175356   9.627   1.018   2.256
25038WAT     H275357   9.473   0.967   2.242
25039WAT      O75358   2.856   4.718   4.344
25039WAT     H175359   2.930   4.654   4.322
25039WAT     H275360   2.821   4.698   4.435
25040WAT      O75361   2.332   8.092   3.875
25040WAT     H175362   2.415   8.146   3.891
25040WAT     H275363   2.265   8.149   3.827
25041WAT      O75364   3.561   4.249   7.601
25041WAT     H175365   3.576   4.243   7.700
25041WAT     H275366   3.466   4.228   7.580
25042WAT      O75367   2.992   8.392   4.017
25042WAT     H175368   3.022   8.383   3.922
25042WAT     H275369   2.917   8.457   4.022
25043WAT      O75370   4.969   7.943   7.970
25043WAT     H175371   4.922   7.923   8.057
25043WAT     H275372   4.967   7.861   7.912
25044WAT      O75373   4.799   1.337   4.857
25044WAT     H175374   4.767   1.310   4.948
25044WAT     H275375   4.878   1.281   4.832
25045WAT      O75376   9.453   1.431   0.792
25045WAT     H175377   9.411   1.445   0.703
25045WAT     H275378   9.546   1.396   0.781
25046WAT      O75379   0.784   9.350   0.314
25046WAT     H175380   0.865   9.295   0.294
25046WAT     H275381   0.703   9.291   0.310
25047WAT      O75382   0.289   4.564   4.836
25047WAT     H175383   0.229   4.484   4.834
25047WAT     H275384   0.247   4.638   4.784
25048WAT      O75385   7.822   9.080   0.548
25048WAT     H175386   7.852   9.024   0.625
25048WAT     H275387   7.842   9.032   0.462
25049WAT      O75388   5.020   7.532   7.832
25049WAT     H175389   5.085   7.460   7.808
25049WAT     H275390   5.050   7.577   7.916
25050WAT      O75391   7.219   6.516   0.613
25050WAT     H175392   7.187   6.593   0.668
25050WAT     H275393   7.304   6.481   0.652
25051WAT      O75394   8.556   5.019   0.364
25051WAT     H175395   8.649   4.989   0.387
25051WAT     H275396   8.548   5.118   0.377
25052WAT      O75397   6.699   6.086   9.675
25052WAT     H175398   6.739   6.003   9.714
25052WAT     H275399   6.739   6.104   9.586
25053WAT      O75400   8.014   4.421   0.686
25053WAT     H175401   8.078   4.468   0.748
25053WAT     H275402   7.950   4.367   0.740
25054WAT      O75403   7.559   7.162   8.584
25054WAT     H175404   7.521   7.082   8.630
25054WAT     H275405   7.609   7.133   8.502
25055WAT      O75406   9.284   4.631   8.746
25055WAT     H175407   9.191   4.602   8.724
25055WAT     H275408   9.293   4.644   8.845
25056WAT      O75409   6.145   5.338   7.560
25056WAT     H175410   6.192   5.251   7.546
25056WAT     H275411   6.048   5.320   7.577
25057WAT      O75412   4.617   0.992   4.031
25057WAT     H175413   4.607   0.987   4.130
25057WAT     H275414   4.714   1.007   4.008
25058WAT      O75415   1.623   9.760   5.635
25058WAT     H175416   1.662   9.844   5.598
25058WAT     H275417   1.682   9.683   5.610
25059WAT      O75418   8.184   7.403   8.488
25059WAT     H175419   8.186   7.501   8.467
25059WAT     H275420   8.265   7.379   8.542
25060WAT      O75421   6.620   7.070   5.954
25060WAT     H175422   6.532   7.023   5.944
25060WAT     H275423   6.675   7.024   6.024
25061WAT      O75424   2.794   4.321   1.801
25061WAT     H175425   2.770   4.226   1.820
25061WAT     H275426   2.878   4.325   1.747
25062WAT      O75427   9.219   1.792   7.365
25062WAT     H175428   9.210   1.703   7.321
25062WAT     H275429   9.225   1.780   7.464
25063WAT      O75430   7.304   5.467   7.206
25063WAT     H175431   7.242   5.404   7.160
25063WAT     H275432   7.399   5.442   7.184
25064WAT      O75433   2.075   5.692   0.712
25064WAT     H175434   2.035   5.691   0.803
25064WAT     H275435   2.012   5.738   0.649
25065WAT      O75436   6.651   0.253   9.044
25065WAT     H175437   6.644   0.352   9.047
25065WAT     H275438   6.654   0.223   8.948
25066WAT      O75439   0.882   3.192   2.460
25066WAT     H175440   0.842   3.267   2.407
25066WAT     H275441   0.978   3.214   2.482
25067WAT      O75442   8.412   0.362   1.879
25067WAT     H175443   8.357   0.413   1.944
25067WAT     H275444   8.354   0.330   1.804
25068WAT      O75445   0.532   2.934   5.974
25068WAT     H175446   0.487   2.860   5.924
25068WAT     H275447   0.532   3.017   5.918
25069WAT      O75448   5.755   3.632   0.199
25069WAT     H175449   5.707   3.687   0.268
25069WAT     H275450   5.688   3.583   0.144
25070WAT      O75451   6.938   0.860   6.074
25070WAT     H175452   6.992   0.862   5.990
25070WAT     H275453   6.939   0.951   6.116
25071WAT      O75454   3.632   2.173   9.218
25071WAT     H175455   3.642   2.074   9.217
25071WAT     H275456   3.623   2.206   9.312
25072WAT      O75457   6.500   7.510   4.650
25072WAT     H175458   6.548   7.595   4.671
25072WAT     H275459   6.417   7.505   4.704
25073WAT      O75460   3.095   1.784   0.405
25073WAT     H175461   3.154   1.863   0.424
25073WAT     H275462   3.087   1.729   0.488
25074WAT      O75463   0.224   6.822   6.663
25074WAT     H175464   0.190   6.913   6.637
25074WAT     H275465   0.295   6.793   6.599
25075WAT      O75466   9.554   0.821   8.144
25075WAT     H175467   9.569   0.832   8.242
25075WAT     H275468   9.488   0.748   8.129
25076WAT      O75469   4.867   1.076   0.064
25076WAT     H175470   4.781   1.124   0.043
25076WAT     H275471   4.939   1.109   0.004
25077WAT      O75472   8.441   6.689   1.229
25077WAT     H175473   8.368   6.742   1.272
25077WAT     H275474   8.519   6.748   1.211
25078WAT      O75475   5.285   3.100   1.185
25078WAT     H175476   5.335   3.174   1.139
25078WAT     H275477   5.319   3.090   1.278
25079WAT      O75478   4.122   9.779   4.845
25079WAT     H175479   4.053   9.717   4.808
25079WAT     H275480   4.204   9.727   4.869
25080WAT      O75481   7.927   3.078   6.631
25080WAT     H175482   7.981   3.024   6.567
25080WAT     H275483   7.936   3.175   6.609
25081WAT      O75484   1.512   6.518   0.325
25081WAT     H175485   1.539   6.589   0.390
25081WAT     H275486   1.463   6.445   0.373
25082WAT      O75487   6.659   7.217   6.613
25082WAT     H175488   6.673   7.176   6.523
25082WAT     H275489   6.747   7.249   6.649
25083WAT      O75490   2.729   5.852   2.686
25083WAT     H175491   2.733   5.905   2.601
25083WAT     H275492   2.639   5.810   2.695
25084WAT      O75493   5.859   6.585   0.108
25084WAT     H175494   5.918   6.547   0.038
25084WAT     H275495   5.817   6.670   0.075
25085WAT      O75496   4.250   7.311   3.923
25085WAT     H175497   4.265   7.233   3.985
25085WAT     H275498   4.329   7.321   3.863
25086WAT      O75499   4.439   4.126   1.624
25086WAT     H175500   4.468   4.122   1.719
25086WAT     H275501   4.493   4.062   1.570
25087WAT      O75502   9.566   9.029   3.128
25087WAT     H175503   9.663   9.043   3.149
25087WAT     H275504   9.525   9.115   3.099
25088WAT      O75505   1.227   1.903   6.094
25088WAT     H175506   1.178   1.970   6.040
25088WAT     H275507   1.324   1.902   6.068
25089WAT      O75508   1.362   3.108   4.278
25089WAT     H175509   1.399   3.060   4.357
25089WAT     H275510   1.352   3.205   4.299
25090WAT      O75511   6.724   9.838   1.705
25090WAT     H175512   6.677   9.925   1.702
25090WAT     H275513   6.804   9.841   1.645
25091WAT      O75514   1.581   7.555   7.386
25091WAT     H175515   1.519   7.620   7.342
25091WAT     H275516   1.539   7.517   7.468
25092WAT      O75517   1.463   1.608   4.768
25092WAT     H175518   1.519   1.564   4.698
25092WAT     H275519   1.509   1.690   4.803
25093WAT      O75520   7.540   4.499   9.740
25093WAT     H175521   7.535   4.462   9.833
25093WAT     H275522   7.459   4.556   9.723
25094WAT      O75523   9.785   5.463   8.315
25094WAT     H175524   9.842   5.381   8.324
25094WAT     H275525   9.787   5.516   8.399
25095WAT      O75526   0.848   9.202   5.622
25095WAT     H175527   0.831   9.120   5.567
25095WAT     H275528   0.823   9.184   5.717
25096WAT      O75529   6.124   1.104   7.089
25096WAT     H175530   6.042   1.055   7.060
25096WAT     H275531   6.100   1.198   7.115
25097WAT      O75532   6.865   5.215   1.706
25097WAT     H175533   6.780   5.162   1.717
25097WAT     H275534   6.847   5.297   1.652
25098WAT      O75535   2.263   5.641   2.372
25098WAT     H175536   2.172   5.626   2.408
25098WAT     H275537   2.312   5.706   2.430
25099WAT      O75538   5.820   9.035   0.368
25099WAT     H175539   5.877   9.081   0.436
25099WAT     H275540   5.787   8.948   0.405
25100WAT      O75541   0.446   2.934   4.164
25100WAT     H175542   0.440   3.028   4.129
25100WAT     H275543   0.354   2.900   4.183
25101WAT      O75544   0.584   7.858   3.900
25101WAT     H175545   0.586   7.908   3.814
25101WAT     H275546   0.672   7.870   3.947
25102WAT      O75547   8.952   4.346   6.387
25102WAT     H175548   8.893   4.344   6.467
25102WAT     H275549   8.930   4.269   6.327
25103WAT      O75550   7.236   7.506   9.371
25103WAT     H175551   7.195   7.510   9.462
25103WAT     H275552   7.316   7.566   9.368
25104WAT      O75553   6.545   9.341   7.586
25104WAT     H175554   6.567   9.406   7.513
25104WAT     H275555   6.566   9.382   7.674
25105WAT      O75556   2.695   8.961   1.630
25105WAT     H175557   2.665   8.986   1.538
25105WAT     H275558   2.615   8.941   1.687
25106WAT      O75559   3.029   0.088   3.977
25106WAT     H175560   3.075   0.148   4.042
25106WAT     H275561   2.964   0.142   3.922
25107WAT      O75562   0.212   5.792   7.734
25107WAT     H175563   0.187   5.749   7.648
25107WAT     H275564   0.303   5.762   7.762
25108WAT      O75565   0.336   0.010   5.226
25108WAT     H175566   0.394   0.091   5.231
25108WAT     H275567   0.389  -0.066   5.187
25109WAT      O75568   1.924   5.063   5.120
25109WAT     H175569   1.848   5.087   5.059
25109WAT     H275570   1.980   4.992   5.077
25110WAT      O75571   8.944   3.031   9.745
25110WAT     H175572   8.884   3.096   9.698
25110WAT     H275573   9.027   3.078   9.774
25111WAT      O75574   0.169   4.556   7.759
25111WAT     H175575   0.117   4.552   7.844
25111WAT     H275576   0.215   4.468   7.744
25112WAT      O75577   2.215   5.825   8.764
25112WAT     H175578   2.142   5.850   8.700
25112WAT     H275579   2.224   5.726   8.767
25113WAT      O75580   0.067   6.593   6.737
25113WAT     H175581  -0.031   6.596   6.720
25113WAT     H275582   0.109   6.678   6.706
25114WAT      O75583   1.945   1.796   9.791
25114WAT     H175584   1.963   1.834   9.700
25114WAT     H275585   2.032   1.772   9.835
25115WAT      O75586   4.369   0.818   0.944
25115WAT     H175587   4.362   0.766   1.029
25115WAT     H275588   4.353   0.757   0.866
25116WAT      O75589   0.558   8.527   4.009
25116WAT     H175590   0.504   8.577   3.942
25116WAT     H275591   0.654   8.553   4.001
25117WAT      O75592   8.261   6.585   6.920
25117WAT     H175593   8.164   6.597   6.902
25117WAT     H275594   8.274   6.563   7.017
25118WAT      O75595   9.713   9.258   0.175
25118WAT     H175596   9.705   9.349   0.215
25118WAT     H275597   9.680   9.259   0.081
25119WAT      O75598   2.732   8.003   0.522
25119WAT     H175599   2.798   8.073   0.545
25119WAT     H275600   2.738   7.982   0.424
25120WAT      O75601   0.974   3.611   6.527
25120WAT     H175602   0.889   3.559   6.516
25120WAT     H275603   0.961   3.704   6.494
25121WAT      O75604   6.690   2.568   2.765
25121WAT     H175605   6.601   2.548   2.722
25121WAT     H275606   6.751   2.490   2.752
25122WAT      O75607   9.651   0.096   0.758
25122WAT     H175608   9.744   0.076   0.789
25122WAT     H275609   9.600   0.011   0.746
25123WAT      O75610   2.348   3.144   7.258
25123WAT     H175611   2.424   3.105   7.310
25123WAT     H275612   2.280   3.073   7.239
25124WAT      O75613   5.443   2.994   8.056
25124WAT     H175614   5.362   2.937   8.042
25124WAT     H275615   5.525   2.937   8.052
25125WAT      O75616   7.291   4.445   2.246
25125WAT     H175617   7.197   4.474   2.267
25125WAT     H275618   7.292   4.395   2.160
25126WAT      O75619   2.236   7.521   1.960
25126WAT     H175620   2.243   7.423   1.981
25126WAT     H275621   2.197   7.532   1.868
25127WAT      O75622   4.007   4.631   4.482
25127WAT     H175623   4.063   4.681   4.548
25127WAT     H275624   4.049   4.543   4.462
25128WAT      O75625   9.176   7.228   2.987
25128WAT     H175626   9.102   7.283   3.026
25128WAT     H275627   9.237   7.197   3.059
25129WAT      O75628   8.092   1.272   5.749
25129WAT     H175629   8.066   1.196   5.689
25129WAT     H275630   8.010   1.317   5.784
25130WAT      O75631   5.271   3.656   1.210
25130WAT     H175632   5.245   3.565   1.178
25130WAT     H275633   5.204   3.687   1.279
25131WAT      O75634   4.113   4.150   2.247
25131WAT     H175635   4.024   4.195   2.254
25131WAT     H275636   4.103   4.062   2.203
25132WAT      O75637   7.927   7.747   7.574
25132WAT     H175638   7.872   7.795   7.506
25132WAT     H275639   7.899   7.650   7.577
25133WAT      O75640   8.014   2.707   2.253
25133WAT     H175641   8.044   2.624   2.206
25133WAT     H275642   8.094   2.764   2.274
25134WAT      O75643   7.922   2.666   6.877
25134WAT     H175644   7.871   2.581   6.867
25134WAT     H275645   7.998   2.652   6.940
25135WAT      O75646   2.623   6.659   5.779
25135WAT     H175647   2.673   6.682   5.696
25135WAT     H275648   2.526   6.649   5.758
25136WAT      O75649   6.709   0.750   5.965
25136WAT     H175650   6.717   0.652   5.981
25136WAT     H275651   6.781   0.798   6.015
25137WAT      O75652   5.819   9.042   2.155
25137WAT     H175653   5.899   9.002   2.199
25137WAT     H275654   5.823   9.026   2.056
25138WAT      O75655   8.161   3.950   8.945
25138WAT     H175656   8.092   3.878   8.938
25138WAT     H275657   8.143   4.020   8.876
25139WAT      O75658   9.664   0.567   6.232
25139WAT     H175659   9.637   0.662   6.249
25139WAT     H275660   9.585   0.515   6.200
25140WAT      O75661   8.363   8.531   2.822
25140WAT     H175662   8.345   8.452   2.764
25140WAT     H275663   8.429   8.506   2.893
25141WAT      O75664   4.892   2.244   0.424
25141WAT     H175665   4.969   2.271   0.365
25141WAT     H275666   4.888   2.144   0.429
25142WAT      O75667   0.508   7.313   3.596
25142WAT     H175668   0.519   7.217   3.574
25142WAT     H275669   0.535   7.369   3.518
25143WAT      O75670   8.161   9.488   9.420
25143WAT     H175671   8.144   9.456   9.326
25143WAT     H275672   8.260   9.499   9.434
25144WAT      O75673   4.281   4.429   0.743
25144WAT     H175674   4.241   4.355   0.796
25144WAT     H275675   4.225   4.511   0.752
25145WAT      O75676   3.886   2.123   2.142
25145WAT     H175677   3.850   2.105   2.234
25145WAT     H275678   3.884   2.039   2.089
25146WAT      O75679   6.120   2.403   6.855
25146WAT     H175680   6.031   2.364   6.880
25146WAT     H275681   6.179   2.407   6.935
25147WAT      O75682   9.596   3.126   6.929
25147WAT     H175683   9.668   3.078   6.879
25147WAT     H275684   9.511   3.073   6.926
25148WAT      O75685   4.208   0.766   5.451
25148WAT     H175686   4.139   0.710   5.496
25148WAT     H275687   4.213   0.742   5.354
25149WAT      O75688   4.192   9.059   6.631
25149WAT     H175689   4.172   8.973   6.679
25149WAT     H275690   4.107   9.097   6.594
25150WAT      O75691   4.782   3.848   4.152
25150WAT     H175692   4.843   3.824   4.227
25150WAT     H275693   4.781   3.774   4.085
25151WAT      O75694   8.095   6.327   2.819
25151WAT     H175695   8.099   6.423   2.843
25151WAT     H275696   8.069   6.318   2.722
25152WAT      O75697   8.924   5.598   2.526
25152WAT     H175698   8.826   5.582   2.523
25152WAT     H275699   8.973   5.511   2.515
25153WAT      O75700   3.020   4.341   6.891
25153WAT     H175701   2.998   4.404   6.816
25153WAT     H275702   3.100   4.286   6.865
25154WAT      O75703   8.437   6.419   2.408
25154WAT     H175704   8.347   6.406   2.368
25154WAT     H275705   8.477   6.330   2.432
25155WAT      O75706   1.778   5.151   7.112
25155WAT     H175707   1.799   5.178   7.206
25155WAT     H275708   1.843   5.194   7.050
25156WAT      O75709   7.637   9.752   1.623
25156WAT     H175710   7.670   9.721   1.712
25156WAT     H275711   7.539   9.772   1.629
25157WAT      O75712   4.273   0.012   4.546
25157WAT     H175713   4.292  -0.028   4.456
25157WAT     H275714   4.288   0.111   4.542
25158WAT      O75715   4.322   0.347   8.014
25158WAT     H175716   4.321   0.247   8.012
25158WAT     H275717   4.257   0.383   7.946
25159WAT      O75718   2.868   0.116   6.063
25159WAT     H175719   2.814   0.156   5.989
25159WAT     H275720   2.911   0.190   6.116
25160WAT      O75721   0.686   5.174   2.515
25160WAT     H175722   0.725   5.086   2.541
25160WAT     H275723   0.702   5.240   2.589
25161WAT      O75724   6.329   4.825   1.842
25161WAT     H175725   6.425   4.812   1.866
25161WAT     H275726   6.309   4.775   1.758
25162WAT      O75727   0.467   9.083   5.653
25162WAT     H175728   0.451   9.161   5.593
25162WAT     H275729   0.553   9.096   5.702
25163WAT      O75730   0.938   6.091   7.396
25163WAT     H175731   0.912   6.062   7.488
25163WAT     H275732   0.881   6.043   7.329
25164WAT      O75733   1.277   4.422   6.145
25164WAT     H175734   1.334   4.502   6.127
25164WAT     H275735   1.196   4.450   6.197
25165WAT      O75736   7.226   6.010   3.287
25165WAT     H175737   7.258   6.094   3.330
25165WAT     H275738   7.269   5.931   3.331
25166WAT      O75739   1.185   2.149   3.269
25166WAT     H175740   1.113   2.083   3.291
25166WAT     H275741   1.273   2.112   3.298
25167WAT      O75742   4.557   4.917   0.600
25167WAT     H175743   4.486   4.987   0.592
25167WAT     H275744   4.641   4.958   0.635
25168WAT      O75745   6.931   7.159   7.297
25168WAT     H175746   6.858   7.091   7.306
25168WAT     H275747   6.891   7.247   7.270
25169WAT      O75748   1.459   4.073   5.300
25169WAT     H175749   1.378   4.131   5.286
25169WAT     H275750   1.448   3.988   5.248
25170WAT      O75751   6.892   8.099   3.256
25170WAT     H175752   6.849   8.010   3.245
25170WAT     H275753   6.822   8.170   3.262
25171WAT      O75754   0.427   1.814   5.521
25171WAT     H175755   0.356   1.799   5.591
25171WAT     H275756   0.506   1.757   5.542
25172WAT      O75757   1.677   5.526   7.555
25172WAT     H175758   1.660   5.428   7.541
25172WAT     H275759   1.756   5.537   7.615
25173WAT      O75760   5.731   2.696   8.512
25173WAT     H175761   5.674   2.754   8.571
25173WAT     H275762   5.680   2.672   8.430
25174WAT      O75763   2.319   9.252   4.018
25174WAT     H175764   2.382   9.177   4.036
25174WAT     H275765   2.344   9.297   3.932
25175WAT      O75766   7.325   5.353   4.050
25175WAT     H175767   7.264   5.324   4.123
25175WAT     H275768   7.271   5.403   3.981
25176WAT      O75769   4.848   7.796   8.173
25176WAT     H175770   4.827   7.733   8.247
25176WAT     H275771   4.781   7.785   8.100
25177WAT      O75772   9.295   2.434   4.232
25177WAT     H175773   9.285   2.362   4.163
25177WAT     H275774   9.211   2.487   4.238
25178WAT      O75775   1.559   0.436   2.771
25178WAT     H175776   1.545   0.530   2.803
25178WAT     H275777   1.648   0.429   2.725
25179WAT      O75778   9.780   3.317   5.873
25179WAT     H175779   9.781   3.217   5.872
25179WAT     H275780   9.874   3.351   5.876
25180WAT      O75781   7.247   6.537   1.520
25180WAT     H175782   7.316   6.594   1.476
25180WAT     H275783   7.222   6.462   1.459
25181WAT      O75784   9.529   5.962   0.761
25181WAT     H175785   9.474   5.989   0.841
25181WAT     H275786   9.520   5.864   0.746
25182WAT      O75787   8.022   3.870   2.856
25182WAT     H175788   7.926   3.870   2.883
25182WAT     H275789   8.075   3.927   2.918
25183WAT      O75790   9.081   3.338   7.730
25183WAT     H175791   9.029   3.343   7.645
25183WAT     H275792   9.116   3.429   7.754
25184WAT      O75793   7.741   2.619   3.976
25184WAT     H175794   7.658   2.673   3.964
25184WAT     H275795   7.721   2.522   3.959
25185WAT      O75796   7.505   0.976   3.107
25185WAT     H175797   7.447   0.895   3.116
25185WAT     H275798   7.482   1.041   3.179
25186WAT      O75799   1.920   5.345   5.996
25186WAT     H175800   1.910   5.432   5.948
25186WAT     H275801   1.908   5.358   6.094
25187WAT      O75802   6.091   5.354   3.738
25187WAT     H175803   6.110   5.290   3.664
25187WAT     H275804   6.167   5.351   3.804
25188WAT      O75805   6.130   0.621   5.700
25188WAT     H175806   6.031   0.636   5.688
25188WAT     H275807   6.172   0.606   5.611
25189WAT      O75808   3.452   9.709   0.075
25189WAT     H175809   3.511   9.790   0.071
25189WAT     H275810   3.504   9.631   0.111
25190WAT      O75811   9.034   1.246   5.447
25190WAT     H175812   8.991   1.267   5.359
25190WAT     H275813   8.974   1.188   5.501
25191WAT      O75814   8.950   7.826   1.085
25191WAT     H175815   8.895   7.854   1.163
25191WAT     H275816   8.923   7.734   1.056
25192WAT      O75817   5.791   5.631   9.538
25192WAT     H175818   5.800   5.709   9.599
25192WAT     H275819   5.826   5.549   9.582
25193WAT      O75820   5.762   0.298   2.233
25193WAT     H175821   5.718   0.388   2.243
25193WAT     H275822   5.851   0.310   2.188
25194WAT      O75823   5.255   4.215   9.360
25194WAT     H175824   5.298   4.249   9.276
25194WAT     H275825   5.196   4.285   9.398
25195WAT      O75826   6.700   9.338   4.934
25195WAT     H175827   6.682   9.397   4.856
25195WAT     H275828   6.781   9.369   4.983
25196WAT      O75829   7.451   1.814   8.632
25196WAT     H175830   7.453   1.899   8.685
25196WAT     H275831   7.385   1.751   8.673
25197WAT      O75832   9.283   6.233   2.995
25197WAT     H175833   9.303   6.284   2.912
25197WAT     H275834   9.185   6.215   3.001
25198WAT      O75835   3.234   6.113   9.892
25198WAT     H175836   3.278   6.028   9.863
25198WAT     H275837   3.158   6.134   9.831
25199WAT      O75838   3.181   7.471   5.230
25199WAT     H175839   3.263   7.427   5.267
25199WAT     H275840   3.135   7.409   5.167
25200WAT      O75841   7.948   2.056   4.221
25200WAT     H175842   8.019   2.014   4.164
25200WAT     H275843   7.911   1.987   4.284
25201WAT      O75844   3.541   6.440   2.137
25201WAT     H175845   3.542   6.497   2.219
25201WAT     H275846   3.452   6.396   2.129
25202WAT      O75847   0.605   4.338   7.028
25202WAT     H175848   0.696   4.365   6.994
25202WAT     H275849   0.614   4.257   7.085
25203WAT      O75850   9.786   8.892   0.200
25203WAT     H175851   9.718   8.965   0.214
25203WAT     H275852   9.769   8.818   0.265
25204WAT      O75853   9.710   8.674   6.975
25204WAT     H175854   9.662   8.587   6.983
25204WAT     H275855   9.669   8.740   7.038
25205WAT      O75856   3.527   9.105   5.746
25205WAT     H175857   3.453   9.172   5.735
25205WAT     H275858   3.527   9.043   5.668
25206WAT      O75859   1.168   8.052   8.466
25206WAT     H175860   1.079   8.083   8.434
25206WAT     H275861   1.189   7.963   8.425
25207WAT      O75862   4.027   0.179   6.875
25207WAT     H175863   3.997   0.274   6.865
25207WAT     H275864   4.055   0.162   6.970
25208WAT      O75865   5.779   2.130   6.736
25208WAT     H175866   5.732   2.127   6.825
25208WAT     H275867   5.766   2.220   6.695
25209WAT      O75868   7.238   5.598   1.705
25209WAT     H175869   7.316   5.583   1.765
25209WAT     H275870   7.155   5.609   1.761
25210WAT      O75871   4.821   3.141   5.814
25210WAT     H175872   4.755   3.162   5.742
25210WAT     H275873   4.819   3.043   5.833
25211WAT      O75874   9.148   8.424   4.454
25211WAT     H175875   9.179   8.372   4.533
25211WAT     H275876   9.198   8.394   4.373
25212WAT      O75877   1.481   8.659   0.017
25212WAT     H175878   1.418   8.736   0.022
25212WAT     H275879   1.550   8.667   0.089
25213WAT      O75880   3.350   3.111   6.264
25213WAT     H175881   3.330   3.032   6.323
25213WAT     H275882   3.445   3.107   6.233
25214WAT      O75883   5.719   4.742   2.607
25214WAT     H175884   5.681   4.733   2.699
25214WAT     H275885   5.666   4.685   2.543
25215WAT      O75886   8.003   9.163   7.296
25215WAT     H175887   7.984   9.237   7.360
25215WAT     H275888   8.067   9.099   7.338
25216WAT      O75889   6.031   3.546   4.707
25216WAT     H175890   5.964   3.516   4.639
25216WAT     H275891   6.037   3.477   4.780
25217WAT      O75892   1.895   2.464   5.925
25217WAT     H175893   1.907   2.409   5.843
25217WAT     H275894   1.836   2.542   5.904
25218WAT      O75895   4.471   3.312   3.257
25218WAT     H175896   4.441   3.284   3.166
25218WAT     H275897   4.568   3.338   3.254
25219WAT      O75898   2.904   5.709   6.637
25219WAT     H175899   2.810   5.681   6.619
25219WAT     H275900   2.934   5.672   6.725
25220WAT      O75901   6.809   7.959   1.145
25220WAT     H175902   6.835   8.047   1.184
25220WAT     H275903   6.850   7.885   1.198
25221WAT      O75904   5.550   2.152   5.284
25221WAT     H175905   5.594   2.151   5.194
25221WAT     H275906   5.548   2.059   5.321
25222WAT      O75907   7.773   1.036   4.337
25222WAT     H175908   7.680   1.017   4.308
25222WAT     H275909   7.808   1.116   4.288
25223WAT      O75910   6.873   6.403   3.936
25223WAT     H175911   6.789   6.366   3.977
25223WAT     H275912   6.866   6.401   3.837
25224WAT      O75913   3.450   0.524   1.111
25224WAT     H175914   3.385   0.498   1.183
25224WAT     H275915   3.541   0.537   1.152
25225WAT      O75916   5.608   5.572   0.458
25225WAT     H175917   5.564   5.615   0.380
25225WAT     H275918   5.543   5.513   0.505
25226WAT      O75919   0.357   0.904   3.388
25226WAT     H175920   0.390   0.980   3.443
25226WAT     H275921   0.361   0.929   3.291
25227WAT      O75922   6.142   8.666   3.558
25227WAT     H175923   6.044   8.683   3.558
25227WAT     H275924   6.178   8.677   3.650
25228WAT      O75925   7.571   8.542   1.830
25228WAT     H175926   7.492   8.586   1.788
25228WAT     H275927   7.549   8.519   1.925
25229WAT      O75928   9.549   3.627   9.516
25229WAT     H175929   9.619   3.697   9.498
25229WAT     H275930   9.459   3.668   9.504
25230WAT      O75931   3.901   0.827   4.708
25230WAT     H175932   3.808   0.811   4.676
25230WAT     H275933   3.909   0.921   4.741
25231WAT      O75934   7.796   4.318   9.367
25231WAT     H175935   7.728   4.320   9.440
25231WAT     H275936   7.769   4.382   9.294
25232WAT      O75937   7.486   3.254   5.456
25232WAT     H175938   7.386   3.250   5.451
25232WAT     H275939   7.522   3.297   5.374
25233WAT      O75940   0.823   5.591   7.145
25233WAT     H175941   0.920   5.567   7.151
25233WAT     H275942   0.767   5.509   7.158
25234WAT      O75943   2.695   4.042   1.761
25234WAT     H175944   2.752   3.960   1.750
25234WAT     H275945   2.638   4.054   1.680
25235WAT      O75946   4.265   5.522   2.664
25235WAT     H175947   4.225   5.432   2.678
25235WAT     H275948   4.287   5.563   2.753
25236WAT      O75949   6.969   8.841   7.273
25236WAT     H175950   6.983   8.899   7.353
25236WAT     H275951   6.891   8.780   7.289
25237WAT      O75952   3.696   7.383   8.252
25237WAT     H175953   3.708   7.395   8.351
25237WAT     H275954   3.783   7.355   8.211
25238WAT      O75955   2.617   6.926   8.691
25238WAT     H175956   2.542   6.991   8.683
25238WAT     H275957   2.697   6.972   8.731
25239WAT      O75958   2.886   5.547   0.476
25239WAT     H175959   2.985   5.543   0.484
25239WAT     H275960   2.850   5.454   0.466
25240WAT      O75961   3.269   7.105   6.068
25240WAT     H175962   3.229   7.162   6.139
25240WAT     H275963   3.350   7.150   6.029
25241WAT      O75964   6.919   6.844   1.753
25241WAT     H175965   6.844   6.852   1.819
25241WAT     H275966   6.982   6.772   1.782
25242WAT      O75967   1.598   6.147   7.895
25242WAT     H175968   1.583   6.233   7.942
25242WAT     H275969   1.608   6.073   7.961
25243WAT      O75970   6.375   9.177   6.937
25243WAT     H175971   6.468   9.173   6.974
25243WAT     H275972   6.328   9.257   6.974
25244WAT      O75973   2.827   4.589   0.472
25244WAT     H175974   2.764   4.659   0.505
25244WAT     H275975   2.842   4.600   0.374
25245WAT      O75976   9.357   2.085   5.855
25245WAT     H175977   9.330   2.060   5.761
25245WAT     H275978   9.457   2.095   5.859
25246WAT      O75979   3.549   5.252   0.607
25246WAT     H175980   3.581   5.221   0.696
25246WAT     H275981   3.557   5.351   0.600
25247WAT      O75982   3.000   0.229   8.612
25247WAT     H175983   3.036   0.298   8.674
25247WAT     H275984   2.902   0.218   8.627
25248WAT      O75985   3.505   1.246   0.601
25248WAT     H175986   3.555   1.171   0.557
25248WAT     H275987   3.410   1.246   0.570
25249WAT      O75988   8.364   6.849   6.938
25249WAT     H175989   8.354   6.749   6.942
25249WAT     H275990   8.275   6.892   6.947
25250WAT      O75991   9.105   2.528   6.316
25250WAT     H175992   9.086   2.598   6.248
25250WAT     H275993   9.159   2.568   6.391
25251WAT      O75994   3.811   1.413   2.183
25251WAT     H175995   3.746   1.389   2.255
25251WAT     H275996   3.898   1.366   2.201
25252WAT      O75997   8.942   1.960   4.983
25252WAT     H175998   8.924   1.862   4.988
25252WAT     H275999   8.892   1.998   4.904
25253WAT      O76000   3.307   8.155   1.296
25253WAT     H176001   3.379   8.118   1.355
25253WAT     H276002   3.290   8.092   1.220
25254WAT      O76003   2.622   8.097   9.069
25254WAT     H176004   2.557   8.027   9.097
25254WAT     H276005   2.715   8.062   9.077
25255WAT      O76006   8.324   3.204   3.963
25255WAT     H176007   8.267   3.264   4.018
25255WAT     H276008   8.270   3.127   3.930
25256WAT      O76009   0.242   6.484   7.223
25256WAT     H176010   0.172   6.451   7.285
25256WAT     H276011   0.313   6.414   7.212
25257WAT      O76012   3.410   4.786   7.330
25257WAT     H176013   3.446   4.725   7.400
25257WAT     H276014   3.329   4.834   7.366
25258WAT      O76015   7.060   9.081   7.454
25258WAT     H176016   7.130   9.034   7.508
25258WAT     H276017   7.019   9.154   7.508
25259WAT      O76018   7.169   6.744   1.147
25259WAT     H176019   7.173   6.812   1.220
25259WAT     H276020   7.238   6.673   1.163
25260WAT      O76021   1.897   2.428   2.721
25260WAT     H176022   1.883   2.516   2.676
25260WAT     H276023   1.860   2.355   2.664
25261WAT      O76024   1.528   6.664   5.587
25261WAT     H176025   1.487   6.625   5.505
25261WAT     H276026   1.548   6.592   5.653
25262WAT      O76027   0.272   8.438   2.331
25262WAT     H176028   0.174   8.431   2.313
25262WAT     H276029   0.287   8.445   2.430
25263WAT      O76030   9.082   0.806   4.067
25263WAT     H176031   9.115   0.741   3.998
25263WAT     H276032   9.012   0.864   4.026
25264WAT      O76033   8.795   6.326   0.505
25264WAT     H176034   8.877   6.339   0.451
25264WAT     H276035   8.799   6.386   0.586
25265WAT      O76036   9.459   2.683   4.201
25265WAT     H176037   9.404   2.603   4.226
25265WAT     H276038   9.408   2.767   4.219
25266WAT      O76039   1.488   4.602   0.049
25266WAT     H176040   1.488   4.698   0.022
25266WAT     H276041   1.395   4.566   0.046
25267WAT      O76042   0.557   2.660   5.363
25267WAT     H176043   0.590   2.566   5.371
25267WAT     H276044   0.590   2.700   5.277
25268WAT      O76045   2.024   4.091   3.700
25268WAT     H176046   1.953   4.149   3.661
25268WAT     H276047   2.112   4.115   3.659
25269WAT      O76048   1.037   3.349   9.198
25269WAT     H176049   0.974   3.421   9.167
25269WAT     H276050   1.110   3.336   9.131
25270WAT      O76051   2.446   4.218   5.359
25270WAT     H176052   2.524   4.176   5.407
25270WAT     H276053   2.423   4.305   5.402
25271WAT      O76054   5.335   6.497   2.009
25271WAT     H176055   5.303   6.448   1.928
25271WAT     H276056   5.373   6.585   1.982
25272WAT      O76057   4.978   5.812   3.441
25272WAT     H176058   4.989   5.712   3.435
25272WAT     H276059   4.920   5.835   3.519
25273WAT      O76060   4.438   6.916   8.647
25273WAT     H176061   4.467   6.823   8.669
25273WAT     H276062   4.425   6.924   8.548
25274WAT      O76063   2.728   5.744   7.384
25274WAT     H176064   2.752   5.658   7.339
25274WAT     H276065   2.802   5.810   7.372
25275WAT      O76066   6.650   7.755   1.673
25275WAT     H176067   6.720   7.813   1.631
25275WAT     H276068   6.664   7.752   1.772
25276WAT      O76069   0.933   2.510   2.453
25276WAT     H176070   0.891   2.594   2.418
25276WAT     H276071   1.012   2.486   2.396
25277WAT      O76072   7.514   6.937   8.738
25277WAT     H176073   7.556   6.922   8.827
25277WAT     H276074   7.440   6.872   8.725
25278WAT      O76075   0.552   0.554   7.593
25278WAT     H176076   0.650   0.543   7.610
25278WAT     H276077   0.531   0.650   7.580
25279WAT      O76078   5.744   6.810   3.295
25279WAT     H176079   5.711   6.894   3.251
25279WAT     H276080   5.816   6.770   3.238
25280WAT      O76081   7.328   4.884   2.795
25280WAT     H176082   7.376   4.798   2.773
25280WAT     H276083   7.362   4.919   2.882
25281WAT      O76084   1.940   7.030   1.492
25281WAT     H176085   1.892   7.002   1.409
25281WAT     H276086   1.876   7.027   1.569
25282WAT      O76087   7.775   1.864   1.454
25282WAT     H176088   7.806   1.789   1.395
25282WAT     H276089   7.706   1.918   1.406
25283WAT      O76090   9.882   6.815   2.317
25283WAT     H176091   9.963   6.784   2.267
25283WAT     H276092   9.801   6.803   2.260
25284WAT      O76093   8.861   3.458   7.077
25284WAT     H176094   8.891   3.429   6.986
25284WAT     H276095   8.771   3.419   7.095
25285WAT      O76096   8.352   3.745   3.093
25285WAT     H176097   8.345   3.647   3.078
25285WAT     H276098   8.430   3.781   3.042
25286WAT      O76099   8.396   4.329   4.194
25286WAT     H176100   8.461   4.298   4.124
25286WAT     H276101   8.318   4.266   4.197
25287WAT      O76102   7.750   4.551   8.738
25287WAT     H176103   7.791   4.591   8.821
25287WAT     H276104   7.727   4.455   8.756
25288WAT      O76105   1.219   6.691   8.524
25288WAT     H176106   1.205   6.740   8.610
25288WAT     H276107   1.305   6.641   8.527
25289WAT      O76108   6.076   5.340   4.382
25289WAT     H176109   6.067   5.364   4.285
25289WAT     H276110   6.171   5.355   4.411
25290WAT      O76111   4.880   6.323   0.508
25290WAT     H176112   4.847   6.310   0.414
25290WAT     H276113   4.980   6.323   0.509
25291WAT      O76114   9.270   9.771   4.583
25291WAT     H176115   9.230   9.815   4.664
25291WAT     H276116   9.298   9.842   4.518
25292WAT      O76117   2.612   9.117   3.272
25292WAT     H176118   2.573   9.047   3.213
25292WAT     H276119   2.570   9.206   3.251
25293WAT      O76120   7.414   3.119   6.646
25293WAT     H176121   7.482   3.065   6.695
25293WAT     H276122   7.327   3.071   6.646
25294WAT      O76123   4.842   8.375   1.433
25294WAT     H176124   4.754   8.421   1.420
25294WAT     H276125   4.882   8.354   1.344
25295WAT      O76126   4.575   9.083   3.984
25295WAT     H176127   4.566   9.135   4.069
25295WAT     H276128   4.632   9.002   4.000
25296WAT      O76129   1.050   3.990   7.212
25296WAT     H176130   0.963   3.968   7.169
25296WAT     H276131   1.119   4.009   7.142
25297WAT      O76132   9.840   3.237   4.758
25297WAT     H176133   9.772   3.303   4.790
25297WAT     H276134   9.839   3.233   4.658
25298WAT      O76135   3.930   3.055   6.643
25298WAT     H176136   3.944   3.068   6.545
25298WAT     H276137   4.001   3.105   6.694
25299WAT      O76138   1.819   5.166   3.373
25299WAT     H176139   1.854   5.242   3.318
25299WAT     H276140   1.876   5.085   3.356
25300WAT      O76141   6.083   0.046   2.339
25300WAT     H176142   6.018   0.053   2.414
25300WAT     H276143   6.034   0.030   2.253
25301WAT      O76144   6.786   7.809   8.665
25301WAT     H176145   6.858   7.775   8.725
25301WAT     H276146   6.705   7.833   8.719
25302WAT      O76147   9.476   2.092   7.509
25302WAT     H176148   9.499   2.189   7.499
25302WAT     H276149   9.554   2.036   7.484
25303WAT      O76150   6.760   4.352   0.945
25303WAT     H176151   6.803   4.297   1.017
25303WAT     H276152   6.681   4.400   0.983
25304WAT      O76153   8.654   2.223   4.918
25304WAT     H176154   8.557   2.248   4.918
25304WAT     H276155   8.675   2.174   4.834
25305WAT      O76156   0.414   4.122   4.449
25305WAT     H176157   0.395   4.187   4.523
25305WAT     H276158   0.479   4.054   4.481
25306WAT      O76159   1.282   3.966   1.127
25306WAT     H176160   1.328   3.917   1.201
25306WAT     H276161   1.344   4.033   1.087
25307WAT      O76162   1.616   2.774   9.719
25307WAT     H176163   1.661   2.840   9.659
25307WAT     H276164   1.655   2.683   9.704
25308WAT      O76165   8.812   7.076   0.753
25308WAT     H176166   8.883   7.146   0.756
25308WAT     H276167   8.744   7.093   0.823
25309WAT      O76168   6.947   1.806   5.271
25309WAT     H176169   6.946   1.730   5.337
25309WAT     H276170   7.002   1.881   5.308
25310WAT      O76171   8.344   3.267   6.083
25310WAT     H176172   8.327   3.226   6.173
25310WAT     H276173   8.266   3.251   6.024
25311WAT      O76174   8.603   2.572   6.201
25311WAT     H176175   8.589   2.607   6.108
25311WAT     H276176   8.547   2.490   6.214
25312WAT      O76177   2.252   2.591   6.324
25312WAT     H176178   2.327   2.625   6.380
25312WAT     H276179   2.284   2.517   6.265
25313WAT      O76180   8.381   3.679   0.053
25313WAT     H176181   8.445   3.670   0.129
25313WAT     H276182   8.331   3.593   0.041
25314WAT      O76183   3.704   8.250   6.859
25314WAT     H176184   3.746   8.172   6.814
25314WAT     H276185   3.771   8.296   6.917
25315WAT      O76186   8.524   8.705   3.167
25315WAT     H176187   8.533   8.716   3.068
25315WAT     H276188   8.429   8.681   3.189
25316WAT      O76189   4.725   1.277   9.807
25316WAT     H176190   4.817   1.304   9.780
25316WAT     H276191   4.666   1.359   9.810
25317WAT      O76192   8.558   4.596   6.083
25317WAT     H176193   8.636   4.578   6.023
25317WAT     H276194   8.473   4.578   6.034
25318WAT      O76195   6.530   1.535   7.603
25318WAT     H176196   6.586   1.492   7.533
25318WAT     H276197   6.587   1.566   7.679
25319WAT      O76198   8.506   0.222   5.860
25319WAT     H176199   8.434   0.291   5.849
25319WAT     H276200   8.464   0.132   5.867
25320WAT      O76201   9.076   5.119   8.740
25320WAT     H176202   9.149   5.081   8.798
25320WAT     H276203   9.093   5.216   8.724
25321WAT      O76204   3.207   8.516   3.206
25321WAT     H176205   3.281   8.580   3.189
25321WAT     H276206   3.202   8.450   3.131
25322WAT      O76207   0.095   3.719   1.998
25322WAT     H176208   0.123   3.809   1.963
25322WAT     H276209   0.111   3.716   2.096
25323WAT      O76210   9.181   4.149   0.670
25323WAT     H176211   9.205   4.246   0.658
25323WAT     H276212   9.256   4.102   0.716
25324WAT      O76213   5.064   5.606   2.111
25324WAT     H176214   5.151   5.634   2.152
25324WAT     H276215   4.995   5.677   2.126
25325WAT      O76216   0.397   7.576   6.673
25325WAT     H176217   0.360   7.484   6.661
25325WAT     H276218   0.380   7.606   6.767
25326WAT      O76219   7.583   0.807   1.803
25326WAT     H176220   7.535   0.778   1.721
25326WAT     H276221   7.609   0.903   1.795
25327WAT      O76222   8.727   4.797   6.169
25327WAT     H176223   8.650   4.748   6.130
25327WAT     H276224   8.798   4.732   6.196
25328WAT      O76225   1.224   5.579   5.712
25328WAT     H176226   1.296   5.614   5.773
25328WAT     H276227   1.193   5.653   5.652
25329WAT      O76228   6.735   3.709   4.432
25329WAT     H176229   6.808   3.672   4.373
25329WAT     H276230   6.757   3.803   4.456
25330WAT      O76231   2.558   4.536   9.378
25330WAT     H176232   2.493   4.460   9.374
25330WAT     H276233   2.650   4.500   9.392
25331WAT      O76234   5.382   7.611   3.318
25331WAT     H176235   5.439   7.680   3.364
25331WAT     H276236   5.363   7.641   3.225
25332WAT      O76237   2.475   4.472   8.103
25332WAT     H176238   2.464   4.397   8.038
25332WAT     H276239   2.544   4.448   8.171
25333WAT      O76240   3.276   4.766   1.260
25333WAT     H176241   3.262   4.735   1.353
25333WAT     H276242   3.219   4.847   1.243
25334WAT      O76243   4.692   6.682   0.218
25334WAT     H176244   4.686   6.609   0.150
25334WAT     H276245   4.771   6.740   0.198
25335WAT      O76246   9.874   0.113   3.173
25335WAT     H176247   9.890   0.123   3.075
25335WAT     H276248   9.793   0.055   3.188
25336WAT      O76249   3.096   5.711   5.873
25336WAT     H176250   3.189   5.746   5.881
25336WAT     H276251   3.053   5.749   5.791
25337WAT      O76252   3.251   7.999   5.151
25337WAT     H176253   3.252   7.902   5.176
25337WAT     H276254   3.160   8.037   5.167
25338WAT      O76255   2.257   6.204   4.240
25338WAT     H176256   2.161   6.181   4.221
25338WAT     H276257   2.302   6.228   4.154
25339WAT      O76258   8.631   2.271   6.950
25339WAT     H176259   8.696   2.202   6.918
25339WAT     H276260   8.674   2.330   7.017
25340WAT      O76261   2.740   2.642   6.309
25340WAT     H176262   2.740   2.589   6.394
25340WAT     H276263   2.774   2.585   6.234
25341WAT      O76264   9.523   5.247   3.138
25341WAT     H176265   9.574   5.328   3.110
25341WAT     H276266   9.586   5.173   3.160
25342WAT      O76267   2.537   2.600   3.498
25342WAT     H176268   2.563   2.509   3.466
25342WAT     H276269   2.516   2.658   3.420
25343WAT      O76270   7.670   8.808   5.928
25343WAT     H176271   7.663   8.777   6.023
25343WAT     H276272   7.739   8.880   5.922
25344WAT      O76273   2.285   5.638   7.341
25344WAT     H176274   2.239   5.600   7.421
25344WAT     H276275   2.292   5.737   7.351
25345WAT      O76276   6.121   8.202   5.303
25345WAT     H176277   6.057   8.277   5.319
25345WAT     H276278   6.098   8.155   5.218
25346WAT      O76279   5.818   3.178   5.265
25346WAT     H176280   5.824   3.125   5.180
25346WAT     H276281   5.909   3.211   5.290
25347WAT      O76282   8.089   3.604   2.365
25347WAT     H176283   8.186   3.609   2.388
25347WAT     H276284   8.045   3.534   2.421
25348WAT      O76285   5.124   1.984   3.664
25348WAT     H176286   5.217   1.966   3.696
25348WAT     H276287   5.060   1.963   3.738
25349WAT      O76288   0.005   3.781   4.390
25349WAT     H176289   0.085   3.812   4.338
25349WAT     H276290  -0.078   3.793   4.336
25350WAT      O76291   9.224   8.602   1.640
25350WAT     H176292   9.158   8.529   1.659
25350WAT     H276293   9.175   8.687   1.619
25351WAT      O76294   5.190   8.509   6.184
25351WAT     H176295   5.222   8.415   6.178
25351WAT     H276296   5.224   8.561   6.105
25352WAT      O76297   5.660   8.126   0.472
25352WAT     H176298   5.635   8.110   0.568
25352WAT     H276299   5.759   8.113   0.461
25353WAT      O76300   5.029   0.660   9.587
25353WAT     H176301   4.969   0.739   9.597
25353WAT     H276302   5.045   0.643   9.490
25354WAT      O76303   2.778   2.435   5.283
25354WAT     H176304   2.830   2.366   5.233
25354WAT     H276305   2.825   2.455   5.369
25355WAT      O76306   3.413   1.463   9.354
25355WAT     H176307   3.438   1.539   9.413
25355WAT     H276308   3.440   1.377   9.396
25356WAT      O76309   8.164   7.789   0.728
25356WAT     H176310   8.088   7.853   0.722
25356WAT     H276311   8.130   7.696   0.711
25357WAT      O76312   5.533   9.556   2.343
25357WAT     H176313   5.628   9.579   2.321
25357WAT     H276314   5.491   9.633   2.391
25358WAT      O76315   5.219   4.217   8.268
25358WAT     H176316   5.174   4.139   8.226
25358WAT     H276317   5.223   4.204   8.367
25359WAT      O76318   7.971   8.611   0.199
25359WAT     H176319   7.910   8.618   0.120
25359WAT     H276320   8.047   8.549   0.177
25360WAT      O76321   1.400   8.460   5.878
25360WAT     H176322   1.354   8.383   5.922
25360WAT     H276323   1.331   8.521   5.838
25361WAT      O76324   0.060   7.435   6.502
25361WAT     H176325   0.141   7.408   6.554
25361WAT     H276326   0.012   7.508   6.550
25362WAT      O76327   6.650   3.553   7.433
25362WAT     H176328   6.554   3.581   7.440
25362WAT     H276329   6.708   3.635   7.433
25363WAT      O76330   8.569   8.455   2.992
25363WAT     H176331   8.587   8.428   3.087
25363WAT     H276332   8.653   8.487   2.949
25364WAT      O76333   5.596   0.478   4.381
25364WAT     H176334   5.691   0.496   4.357
25364WAT     H276335   5.563   0.398   4.331
25365WAT      O76336   2.104   3.291   2.956
25365WAT     H176337   2.034   3.237   2.909
25365WAT     H276338   2.072   3.385   2.967
25366WAT      O76339   7.602   0.834   2.412
25366WAT     H176340   7.602   0.911   2.348
25366WAT     H276341   7.694   0.822   2.449
25367WAT      O76342   6.419   7.783   6.452
25367WAT     H176343   6.478   7.706   6.476
25367WAT     H276344   6.330   7.771   6.495
25368WAT      O76345   0.291   0.227   3.821
25368WAT     H176346   0.281   0.326   3.809
25368WAT     H276347   0.295   0.205   3.919
25369WAT      O76348   7.458   6.040   4.746
25369WAT     H176349   7.390   5.970   4.722
25369WAT     H276350   7.547   5.996   4.762
25370WAT      O76351   5.287   1.180   4.152
25370WAT     H176352   5.260   1.220   4.064
25370WAT     H276353   5.371   1.127   4.140
25371WAT      O76354   3.466   4.045   1.048
25371WAT     H176355   3.476   4.022   0.951
25371WAT     H276356   3.379   4.091   1.062
25372WAT      O76357   4.924   3.690   0.541
25372WAT     H176358   4.883   3.614   0.591
25372WAT     H276359   5.021   3.697   0.564
25373WAT      O76360   7.636   5.367   9.012
25373WAT     H176361   7.584   5.307   9.071
25373WAT     H276362   7.585   5.452   8.997
25374WAT      O76363   4.099   0.124   7.134
25374WAT     H176364   4.177   0.135   7.196
25374WAT     H276365   4.029   0.192   7.156
25375WAT      O76366   2.846   2.005   4.774
25375WAT     H176367   2.798   1.949   4.706
25375WAT     H276368   2.848   1.956   4.861
25376WAT      O76369   8.995   0.388   0.874
25376WAT     H176370   8.952   0.420   0.958
25376WAT     H276371   8.991   0.460   0.804
25377WAT      O76372   5.483   4.143   8.229
25377WAT     H176373   5.385   4.161   8.222
25377WAT     H276374   5.498   4.068   8.293
25378WAT      O76375   1.041   7.733   7.468
25378WAT     H176376   1.028   7.754   7.371
25378WAT     H276377   1.133   7.761   7.496
25379WAT      O76378   3.185   9.473   9.053
25379WAT     H176379   3.111   9.532   9.085
25379WAT     H276380   3.237   9.521   8.982
25380WAT      O76381   0.077   8.934   0.762
25380WAT     H176382   0.119   8.856   0.715
25380WAT     H276383   0.148   8.997   0.792
25381WAT      O76384   4.263   4.780   0.501
25381WAT     H176385   4.313   4.699   0.469
25381WAT     H276386   4.282   4.857   0.440
25382WAT      O76387   6.276   0.822   5.279
25382WAT     H176388   6.228   0.830   5.367
25382WAT     H276389   6.288   0.913   5.240
25383WAT      O76390   0.985   3.787   0.012
25383WAT     H176391   0.911   3.752  -0.045
25383WAT     H276392   1.043   3.711   0.041
25384WAT      O76393   4.948   0.330   3.555
25384WAT     H176394   4.907   0.338   3.646
25384WAT     H276395   5.026   0.268   3.559
25385WAT      O76396   1.301   9.294   7.436
25385WAT     H176397   1.247   9.377   7.453
25385WAT     H276398   1.389   9.302   7.483
25386WAT      O76399   3.067   7.110   9.422
25386WAT     H176400   3.086   7.046   9.496
25386WAT     H276401   2.969   7.112   9.403
25387WAT      O76402   5.729   1.537   5.722
25387WAT     H176403   5.655   1.473   5.742
25387WAT     H276404   5.700   1.630   5.745
25388WAT      O76405   0.510   6.261   5.277
25388WAT     H176406   0.514   6.274   5.376
25388WAT     H276407   0.531   6.348   5.232
25389WAT      O76408   9.707   3.834   8.423
25389WAT     H176409   9.618   3.804   8.387
25389WAT     H276410   9.771   3.757   8.419
25390WAT      O76411   8.776   0.599   8.256
25390WAT     H176412   8.841   0.523   8.249
25390WAT     H276413   8.772   0.630   8.351
25391WAT      O76414   3.587   5.267   6.954
25391WAT     H176415   3.538   5.223   7.029
25391WAT     H276416   3.681   5.231   6.951
25392WAT      O76417   4.990   0.962   7.824
25392WAT     H176418   5.041   1.027   7.880
25392WAT     H276419   4.945   0.896   7.884
25393WAT      O76420   4.634   3.791   0.871
25393WAT     H176421   4.710   3.769   0.932
25393WAT     H276422   4.667   3.846   0.795
25394WAT      O76423   6.243   9.049   1.551
25394WAT     H176424   6.201   8.996   1.477
25394WAT     H276425   6.291   8.987   1.613
25395WAT      O76426   5.848   6.792   4.887
25395WAT     H176427   5.932   6.769   4.935
25395WAT     H276428   5.774   6.734   4.920
25396WAT      O76429   8.695   1.844   1.747
25396WAT     H176430   8.658   1.897   1.671
25396WAT     H276431   8.640   1.761   1.759
25397WAT      O76432   8.520   5.598   5.493
25397WAT     H176433   8.552   5.547   5.572
25397WAT     H276434   8.421   5.588   5.485
25398WAT      O76435   6.807   9.676   2.216
25398WAT     H176436   6.739   9.620   2.263
25398WAT     H276437   6.806   9.655   2.119
25399WAT      O76438   9.104   7.172   3.450
25399WAT     H176439   9.046   7.098   3.415
25399WAT     H276440   9.143   7.223   3.374
25400WAT      O76441   5.590   5.644   3.738
25400WAT     H176442   5.496   5.641   3.773
25400WAT     H276443   5.619   5.552   3.712
25401WAT      O76444   7.084   3.763   1.733
25401WAT     H176445   7.107   3.761   1.636
25401WAT     H276446   7.110   3.676   1.776
25402WAT      O76447   7.224   0.541   2.967
25402WAT     H176448   7.176   0.611   2.915
25402WAT     H276449   7.159   0.490   3.024
25403WAT      O76450   6.958   4.561   3.153
25403WAT     H176451   7.056   4.573   3.137
25403WAT     H276452   6.940   4.469   3.188
25404WAT      O76453   0.284   9.689   3.140
25404WAT     H176454   0.324   9.765   3.190
25404WAT     H276455   0.323   9.685   3.048
25405WAT      O76456   0.921   5.933   9.581
25405WAT     H176457   1.020   5.941   9.573
25405WAT     H276458   0.898   5.891   9.669
25406WAT      O76459   2.801   3.314   8.052
25406WAT     H176460   2.706   3.343   8.063
25406WAT     H276461   2.804   3.215   8.041
25407WAT      O76462   2.702   6.631   7.642
25407WAT     H176463   2.638   6.609   7.567
25407WAT     H276464   2.654   6.684   7.712
25408WAT      O76465   9.443   9.126   8.110
25408WAT     H176466   9.343   9.119   8.115
25408WAT     H276467   9.475   9.077   8.029
25409WAT      O76468   6.871   7.887   7.534
25409WAT     H176469   6.918   7.968   7.500
25409WAT     H276470   6.783   7.877   7.487
25410WAT      O76471   4.854   1.176   7.103
25410WAT     H176472   4.853   1.273   7.127
25410WAT     H276473   4.797   1.126   7.168
25411WAT      O76474   1.806   3.846   7.711
25411WAT     H176475   1.816   3.774   7.780
25411WAT     H276476   1.897   3.880   7.685
25412WAT      O76477   8.297   6.537   1.781
25412WAT     H176478   8.327   6.461   1.722
25412WAT     H276479   8.209   6.514   1.822
25413WAT      O76480   1.055   7.384   3.062
25413WAT     H176481   1.009   7.347   3.143
25413WAT     H276482   1.021   7.476   3.042
25414WAT      O76483   8.777   8.303   6.753
25414WAT     H176484   8.855   8.261   6.706
25414WAT     H276485   8.805   8.329   6.846
25415WAT      O76486   8.727   2.993   4.699
25415WAT     H176487   8.652   2.930   4.719
25415WAT     H276488   8.805   2.971   4.756
25416WAT      O76489   0.272   3.979   3.364
25416WAT     H176490   0.338   3.997   3.292
25416WAT     H276491   0.284   3.885   3.398
25417WAT      O76492   0.276   7.981   3.093
25417WAT     H176493   0.248   8.072   3.063
25417WAT     H276494   0.237   7.913   3.031
25418WAT      O76495   0.926   7.006   3.944
25418WAT     H176496   0.849   6.998   4.007
25418WAT     H276497   0.935   7.102   3.915
25419WAT      O76498   9.030   4.536   4.405
25419WAT     H176499   9.059   4.532   4.310
25419WAT     H276500   8.992   4.627   4.425
25420WAT      O76501   7.128   6.905   8.787
25420WAT     H176502   7.044   6.879   8.835
25420WAT     H276503   7.149   7.001   8.806
25421WAT      O76504   7.204   2.069   0.446
25421WAT     H176505   7.292   2.031   0.414
25421WAT     H276506   7.218   2.162   0.480
25422WAT      O76507   2.947   6.712   6.411
25422WAT     H176508   3.028   6.767   6.434
25422WAT     H276509   2.970   6.648   6.337
25423WAT      O76510   5.437   0.811   8.709
25423WAT     H176511   5.491   0.737   8.669
25423WAT     H276512   5.359   0.832   8.649
25424WAT      O76513   9.366   5.446   1.878
25424WAT     H176514   9.441   5.381   1.893
25424WAT     H276515   9.326   5.471   1.966
25425WAT      O76516   2.885   0.012   9.570
25425WAT     H176517   2.961  -0.053   9.570
25425WAT     H276518   2.906   0.088   9.509
25426WAT      O76519   9.398   8.879   3.260
25426WAT     H176520   9.312   8.929   3.276
25426WAT     H276521   9.465   8.940   3.217
25427WAT      O76522   5.499   6.559   9.291
25427WAT     H176523   5.484   6.631   9.224
25427WAT     H276524   5.479   6.470   9.250
25428WAT      O76525   6.714   6.465   8.176
25428WAT     H176526   6.628   6.459   8.226
25428WAT     H276527   6.751   6.374   8.163
25429WAT      O76528   8.705   1.796   1.163
25429WAT     H176529   8.648   1.756   1.091
25429WAT     H276530   8.728   1.726   1.230
25430WAT      O76531   5.600   9.379   6.924
25430WAT     H176532   5.668   9.323   6.877
25430WAT     H276533   5.533   9.320   6.969
25431WAT      O76534   8.276   7.941   6.900
25431WAT     H176535   8.368   7.963   6.867
25431WAT     H276536   8.265   7.974   6.994
25432WAT      O76537   8.615   6.584   7.639
25432WAT     H176538   8.550   6.532   7.695
25432WAT     H276539   8.708   6.562   7.668
25433WAT      O76540   8.827   9.463   1.866
25433WAT     H176541   8.785   9.510   1.788
25433WAT     H276542   8.864   9.376   1.835
25434WAT      O76543   2.415   6.096   7.545
25434WAT     H176544   2.496   6.143   7.581
25434WAT     H276545   2.355   6.163   7.500
25435WAT      O76546   6.016   9.337   2.053
25435WAT     H176547   6.102   9.307   2.012
25435WAT     H276548   6.024   9.335   2.152
25436WAT      O76549   7.400   1.311   4.701
25436WAT     H176550   7.444   1.333   4.788
25436WAT     H276551   7.343   1.230   4.712
25437WAT      O76552   8.180   4.860   3.308
25437WAT     H176553   8.232   4.876   3.224
25437WAT     H276554   8.085   4.886   3.295
25438WAT      O76555   3.236   2.186   3.762
25438WAT     H176556   3.199   2.215   3.674
25438WAT     H276557   3.319   2.239   3.781
25439WAT      O76558   2.999   7.224   9.119
25439WAT     H176559   3.011   7.319   9.090
25439WAT     H276560   2.906   7.193   9.096
25440WAT      O76561   7.171   7.357   2.372
25440WAT     H176562   7.099   7.421   2.400
25440WAT     H276563   7.133   7.265   2.365
25441WAT      O76564   3.485   6.048   6.405
25441WAT     H176565   3.572   6.065   6.359
25441WAT     H276566   3.419   6.012   6.340
25442WAT      O76567   1.901   0.687   2.056
25442WAT     H176568   1.868   0.712   1.965
25442WAT     H276569   1.976   0.748   2.082
25443WAT      O76570   1.797   7.150   9.502
25443WAT     H176571   1.785   7.222   9.570
25443WAT     H276572   1.751   7.067   9.533
25444WAT      O76573   4.159   4.435   4.139
25444WAT     H176574   4.219   4.394   4.070
25444WAT     H276575   4.164   4.534   4.134
25445WAT      O76576   0.232   0.384   3.438
25445WAT     H176577   0.169   0.403   3.363
25445WAT     H276578   0.193   0.314   3.498
25446WAT      O76579   9.728   8.841   7.464
25446WAT     H176580   9.779   8.819   7.547
25446WAT     H276581   9.765   8.925   7.424
25447WAT      O76582   0.034   5.034   6.844
25447WAT     H176583   0.070   5.058   6.754
25447WAT     H276584  -0.034   4.962   6.835
25448WAT      O76585   5.619   9.030   8.004
25448WAT     H176586   5.594   9.099   7.936
25448WAT     H276587   5.657   8.950   7.957
25449WAT      O76588   8.413   1.552   9.509
25449WAT     H176589   8.495   1.510   9.469
25449WAT     H276590   8.336   1.489   9.501
25450WAT      O76591   4.411   2.606   8.493
25450WAT     H176592   4.379   2.669   8.422
25450WAT     H276593   4.503   2.634   8.523
25451WAT      O76594   7.856   7.381   1.360
25451WAT     H176595   7.944   7.377   1.406
25451WAT     H276596   7.789   7.426   1.420
25452WAT      O76597   4.280   3.473   1.132
25452WAT     H176598   4.303   3.445   1.038
25452WAT     H276599   4.197   3.528   1.131
25453WAT      O76600   7.807   0.628   0.728
25453WAT     H176601   7.887   0.575   0.758
25453WAT     H276602   7.801   0.626   0.629
25454WAT      O76603   4.294   1.449   5.344
25454WAT     H176604   4.289   1.537   5.391
25454WAT     H276605   4.374   1.448   5.284
25455WAT      O76606   8.192   9.251   2.189
25455WAT     H176607   8.232   9.229   2.100
25455WAT     H276608   8.103   9.206   2.197
25456WAT      O76609   8.298   5.039   1.025
25456WAT     H176610   8.203   5.069   1.022
25456WAT     H276611   8.325   5.003   0.935
25457WAT      O76612   2.132   3.671   8.765
25457WAT     H176613   2.075   3.707   8.839
25457WAT     H276614   2.227   3.666   8.794
25458WAT      O76615   6.888   1.062   3.001
25458WAT     H176616   6.852   1.013   3.080
25458WAT     H276617   6.984   1.084   3.017
25459WAT      O76618   2.434   5.267   3.423
25459WAT     H176619   2.464   5.201   3.492
25459WAT     H276620   2.339   5.293   3.442
25460WAT      O76621   7.101   5.811   5.378
25460WAT     H176622   7.188   5.858   5.360
25460WAT     H276623   7.077   5.755   5.299
25461WAT      O76624   3.040   9.750   3.047
25461WAT     H176625   3.108   9.683   3.080
25461WAT     H276626   2.961   9.749   3.107
25462WAT      O76627   1.423   8.201   7.517
25462WAT     H176628   1.454   8.291   7.549
25462WAT     H276629   1.493   8.133   7.537
25463WAT      O76630   9.809   4.830   0.650
25463WAT     H176631   9.800   4.880   0.564
25463WAT     H276632   9.729   4.772   0.664
25464WAT      O76633   7.403   3.026   0.714
25464WAT     H176634   7.411   2.966   0.634
25464WAT     H276635   7.489   3.027   0.764
25465WAT      O76636   7.969   2.684   4.279
25465WAT     H176637   7.874   2.663   4.302
25465WAT     H276638   7.978   2.783   4.265
25466WAT      O76639   9.835   2.218   9.221
25466WAT     H176640   9.895   2.139   9.236
25466WAT     H276641   9.740   2.186   9.211
25467WAT      O76642   1.956   5.165   0.979
25467WAT     H176643   2.036   5.175   0.920
25467WAT     H276644   1.873   5.177   0.924
25468WAT      O76645   8.192   9.160   8.862
25468WAT     H176646   8.102   9.116   8.858
25468WAT     H276647   8.181   9.258   8.846
25469WAT      O76648   1.717   9.027   5.214
25469WAT     H176649   1.811   9.061   5.211
25469WAT     H276650   1.682   9.018   5.121
25470WAT      O76651   2.581   0.369   6.982
25470WAT     H176652   2.545   0.362   6.889
25470WAT     H276653   2.518   0.325   7.045
25471WAT      O76654   3.743   2.529   2.427
25471WAT     H176655   3.826   2.579   2.403
25471WAT     H276656   3.747   2.437   2.387
25472WAT      O76657   3.974   9.295   4.279
25472WAT     H176658   3.985   9.206   4.323
25472WAT     H276659   3.950   9.282   4.183
25473WAT      O76660   3.085   6.734   8.423
25473WAT     H176661   2.990   6.766   8.426
25473WAT     H276662   3.128   6.766   8.339
25474WAT      O76663   4.828   1.656   3.935
25474WAT     H176664   4.852   1.737   3.881
25474WAT     H276665   4.874   1.575   3.896
25475WAT      O76666   8.329   1.825   3.213
25475WAT     H176667   8.345   1.849   3.308
25475WAT     H276668   8.249   1.875   3.179
25476WAT      O76669   4.858   3.497   0.686
25476WAT     H176670   4.873   3.409   0.642
25476WAT     H276671   4.772   3.494   0.737
25477WAT      O76672   5.306   5.626   0.509
25477WAT     H176673   5.369   5.550   0.523
25477WAT     H276674   5.229   5.618   0.572
25478WAT      O76675   9.178   9.559   6.059
25478WAT     H176676   9.164   9.477   6.114
25478WAT     H276677   9.139   9.638   6.107
25479WAT      O76678   3.576   3.738   7.084
25479WAT     H176679   3.645   3.798   7.125
25479WAT     H276680   3.486   3.758   7.124
25480WAT      O76681   1.915   8.166   3.281
25480WAT     H176682   1.962   8.110   3.213
25480WAT     H276683   1.977   8.238   3.312
25481WAT      O76684   8.389   5.905   1.934
25481WAT     H176685   8.310   5.946   1.890
25481WAT     H276686   8.380   5.805   1.933
25482WAT      O76687   8.089   4.798   1.123
25482WAT     H176688   8.121   4.853   1.200
25482WAT     H276689   8.043   4.856   1.056
25483WAT      O76690   1.953   0.015   8.982
25483WAT     H176691   1.968   0.082   8.910
25483WAT     H276692   1.865   0.033   9.026
25484WAT      O76693   3.424   0.111   2.707
25484WAT     H176694   3.445   0.206   2.685
25484WAT     H276695   3.391   0.064   2.625
25485WAT      O76696   1.418   9.547   1.586
25485WAT     H176697   1.428   9.448   1.585
25485WAT     H276698   1.322   9.571   1.567
25486WAT      O76699   7.363   5.295   2.880
25486WAT     H176700   7.316   5.272   2.964
25486WAT     H276701   7.459   5.267   2.886
25487WAT      O76702   8.661   8.054   3.537
25487WAT     H176703   8.584   8.111   3.565
25487WAT     H276704   8.655   8.036   3.439
25488WAT      O76705   0.266   0.960   8.386
25488WAT     H176706   0.225   1.043   8.424
25488WAT     H276707   0.225   0.939   8.298
25489WAT      O76708   3.851   2.717   3.193
25489WAT     H176709   3.928   2.658   3.168
25489WAT     H276710   3.820   2.694   3.285
25490WAT      O76711   1.616   2.808   7.242
25490WAT     H176712   1.548   2.839   7.175
25490WAT     H276713   1.635   2.882   7.306
25491WAT      O76714   5.359   9.385   5.043
25491WAT     H176715   5.274   9.413   5.086
25491WAT     H276716   5.422   9.352   5.114
25492WAT      O76717   2.283   6.470   1.784
25492WAT     H176718   2.325   6.383   1.811
25492WAT     H276719   2.263   6.524   1.866
25493WAT      O76720   4.121   2.581   9.748
25493WAT     H176721   4.084   2.588   9.656
25493WAT     H276722   4.144   2.486   9.768
25494WAT      O76723   3.349   6.126   4.678
25494WAT     H176724   3.278   6.165   4.738
25494WAT     H276725   3.382   6.197   4.616
25495WAT      O76726   5.240   2.253   6.697
25495WAT     H176727   5.144   2.232   6.679
25495WAT     H276728   5.298   2.190   6.646
25496WAT      O76729   4.015   2.927   7.506
25496WAT     H176730   3.954   2.919   7.427
25496WAT     H276731   4.062   2.840   7.520
25497WAT      O76732   0.310   9.387   1.355
25497WAT     H176733   0.228   9.404   1.300
25497WAT     H276734   0.285   9.380   1.451
25498WAT      O76735   0.044   9.036   1.529
25498WAT     H176736   0.010   9.080   1.612
25498WAT     H276737   0.144   9.036   1.530
25499WAT      O76738   7.456   7.501   1.346
25499WAT     H176739   7.511   7.492   1.429
25499WAT     H276740   7.449   7.412   1.301
25500WAT      O76741   1.147   8.863   8.962
25500WAT     H176742   1.054   8.827   8.968
25500WAT     H276743   1.173   8.904   9.049
25501WAT      O76744   1.184   5.984   3.572
25501WAT     H176745   1.111   5.956   3.634
25501WAT     H276746   1.272   5.949   3.605
25502WAT      O76747   2.760   9.248   3.055
25502WAT     H176748   2.828   9.206   3.116
25502WAT     H276749   2.680   9.275   3.109
25503WAT      O76750   3.058   9.401   9.836
25503WAT     H176751   3.008   9.464   9.777
25503WAT     H276752   3.013   9.312   9.835
25504WAT      O76753   7.981   9.052   2.150
25504WAT     H176754   7.973   9.005   2.238
25504WAT     H276755   7.934   8.999   2.079
25505WAT      O76756   0.153   7.795   6.755
25505WAT     H176757   0.207   7.828   6.677
25505WAT     H276758   0.151   7.865   6.826
25506WAT      O76759   5.974   4.041   1.777
25506WAT     H176760   5.907   3.968   1.787
25506WAT     H276761   6.056   4.018   1.830
25507WAT      O76762   5.709   8.559   1.146
25507WAT     H176763   5.624   8.510   1.165
25507WAT     H276764   5.688   8.654   1.120
25508WAT      O76765   9.573   4.966   5.254
25508WAT     H176766   9.559   4.951   5.351
25508WAT     H276767   9.579   5.064   5.235
25509WAT      O76768   2.834   8.575   2.630
25509WAT     H176769   2.752   8.518   2.623
25509WAT     H276770   2.914   8.523   2.600
25510WAT      O76771   2.872   9.346   2.171
25510WAT     H176772   2.904   9.319   2.262
25510WAT     H276773   2.909   9.436   2.148
25511WAT      O76774   1.578   3.679   5.518
25511WAT     H176775   1.587   3.762   5.463
25511WAT     H276776   1.487   3.678   5.562
25512WAT      O76777   5.485   3.272   6.351
25512WAT     H176778   5.439   3.286   6.264
25512WAT     H276779   5.431   3.314   6.424
25513WAT      O76780   0.321   9.300   3.457
25513WAT     H176781   0.288   9.326   3.366
25513WAT     H276782   0.274   9.354   3.527
25514WAT      O76783   8.778   6.905   6.977
25514WAT     H176784   8.877   6.898   6.964
25514WAT     H276785   8.752   7.001   6.987
25515WAT      O76786   9.587   7.010   4.970
25515WAT     H176787   9.579   6.983   5.066
25515WAT     H276788   9.497   7.026   4.931
25516WAT      O76789   1.769   2.304   7.154
25516WAT     H176790   1.867   2.309   7.175
25516WAT     H276791   1.756   2.261   7.065
25517WAT      O76792   0.178   7.168   8.814
25517WAT     H176793   0.221   7.145   8.727
25517WAT     H276794   0.245   7.214   8.873
25518WAT      O76795   9.519   9.702   0.772
25518WAT     H176796   9.448   9.696   0.842
25518WAT     H276797   9.557   9.611   0.755
25519WAT      O76798   8.879   9.472   9.503
25519WAT     H176799   8.837   9.549   9.551
25519WAT     H276800   8.837   9.462   9.413
25520WAT      O76801   4.765   6.106   8.634
25520WAT     H176802   4.829   6.093   8.557
25520WAT     H276803   4.679   6.142   8.600
25521WAT      O76804   4.516   8.421   3.624
25521WAT     H176805   4.429   8.373   3.616
25521WAT     H276806   4.571   8.380   3.697
25522WAT      O76807   5.941   1.409   9.401
25522WAT     H176808   5.950   1.319   9.359
25522WAT     H276809   6.017   1.468   9.372
25523WAT      O76810   0.710   9.026   8.037
25523WAT     H176811   0.704   9.126   8.034
25523WAT     H276812   0.722   8.991   7.945
25524WAT      O76813   6.191   2.653   5.212
25524WAT     H176814   6.176   2.750   5.191
25524WAT     H276815   6.241   2.610   5.137
25525WAT      O76816   6.799   5.401   6.386
25525WAT     H176817   6.863   5.474   6.364
25525WAT     H276818   6.841   5.312   6.365
25526WAT      O76819   1.905   2.291   5.710
25526WAT     H176820   1.938   2.222   5.644
25526WAT     H276821   1.900   2.380   5.664
25527WAT      O76822   6.139   1.512   9.231
25527WAT     H176823   6.155   1.487   9.135
25527WAT     H276824   6.099   1.604   9.235
25528WAT      O76825   3.690   8.560   3.795
25528WAT     H176826   3.605   8.532   3.840
25528WAT     H276827   3.681   8.544   3.696
25529WAT      O76828   5.144   0.944   9.710
25529WAT     H176829   5.047   0.939   9.733
25529WAT     H276830   5.154   0.973   9.615
25530WAT      O76831   8.107   8.505   8.588
25530WAT     H176832   8.207   8.498   8.594
25530WAT     H276833   8.070   8.415   8.562
25531WAT      O76834   3.943   2.725   2.317
25531WAT     H176835   3.951   2.736   2.218
25531WAT     H276836   3.892   2.802   2.355
25532WAT      O76837   2.227   8.466   7.817
25532WAT     H176838   2.235   8.496   7.722
25532WAT     H276839   2.193   8.541   7.874
25533WAT      O76840   8.805   6.950   7.873
25533WAT     H176841   8.836   7.043   7.891
25533WAT     H276842   8.883   6.893   7.847
25534WAT      O76843   9.545   7.969   5.570
25534WAT     H176844   9.467   8.031   5.564
25534WAT     H276845   9.603   7.996   5.647
25535WAT      O76846   8.918   0.080   8.071
25535WAT     H176847   8.934  -0.018   8.061
25535WAT     H276848   8.887   0.100   8.164
25536WAT      O76849   6.639   0.558   4.639
25536WAT     H176850   6.716   0.575   4.700
25536WAT     H276851   6.560   0.528   4.693
25537WAT      O76852   8.389   0.050   2.080
25537WAT     H176853   8.400   0.141   2.120
25537WAT     H276854   8.297   0.016   2.097
25538WAT      O76855   8.340   2.270   6.991
25538WAT     H176856   8.280   2.323   6.931
25538WAT     H276857   8.434   2.278   6.958
25539WAT      O76858   8.085   4.860   7.621
25539WAT     H176859   8.147   4.880   7.546
25539WAT     H276860   8.134   4.812   7.694
25540WAT      O76861   1.322   2.591   8.552
25540WAT     H176862   1.314   2.687   8.580
25540WAT     H276863   1.412   2.575   8.513
25541WAT      O76864   3.696   1.311   8.904
25541WAT     H176865   3.649   1.352   8.982
25541WAT     H276866   3.730   1.383   8.844
25542WAT      O76867   0.080   8.397   0.822
25542WAT     H176868   0.048   8.420   0.914
25542WAT     H276869   0.010   8.343   0.776
25543WAT      O76870   3.819   6.268   4.069
25543WAT     H176871   3.841   6.212   4.149
25543WAT     H276872   3.738   6.232   4.023
25544WAT      O76873   3.594   4.870   1.308
25544WAT     H176874   3.567   4.933   1.381
25544WAT     H276875   3.513   4.823   1.272
25545WAT      O76876   1.952   1.612   0.754
25545WAT     H176877   2.005   1.654   0.828
25545WAT     H276878   1.871   1.668   0.735
25546WAT      O76879   3.866   9.414   7.431
25546WAT     H176880   3.873   9.512   7.414
25546WAT     H276881   3.942   9.367   7.386
25547WAT      O76882   3.088   0.471   7.077
25547WAT     H176883   3.094   0.568   7.101
25547WAT     H276884   3.085   0.416   7.160
25548WAT      O76885   7.466   9.504   2.550
25548WAT     H176886   7.372   9.529   2.573
25548WAT     H276887   7.473   9.484   2.452
25549WAT      O76888   0.378   4.247   6.365
25549WAT     H176889   0.469   4.253   6.407
25549WAT     H276890   0.369   4.160   6.318
25550WAT      O76891   0.015   4.181   4.615
25550WAT     H176892   0.033   4.084   4.632
25550WAT     H276893  -0.055   4.214   4.679
25551WAT      O76894   5.296   0.396   2.896
25551WAT     H176895   5.296   0.495   2.914
25551WAT     H276896   5.207   0.368   2.860
25552WAT      O76897   9.432   3.237   7.502
25552WAT     H176898   9.454   3.185   7.585
25552WAT     H276899   9.336   3.224   7.479
25553WAT      O76900   5.681   7.166   1.181
25553WAT     H176901   5.702   7.224   1.103
25553WAT     H276902   5.760   7.166   1.243
25554WAT      O76903   2.103   2.255   6.666
25554WAT     H176904   2.202   2.262   6.674
25554WAT     H276905   2.070   2.321   6.599
25555WAT      O76906   9.599   0.212   6.809
25555WAT     H176907   9.615   0.173   6.719
25555WAT     H276908   9.622   0.145   6.879
25556WAT      O76909   5.779   7.562   3.142
25556WAT     H176910   5.857   7.522   3.093
25556WAT     H276911   5.741   7.494   3.205
25557WAT      O76912   2.947   8.241   4.251
25557WAT     H176913   2.969   8.310   4.183
25557WAT     H276914   2.860   8.264   4.295
25558WAT      O76915   3.153   4.463   2.248
25558WAT     H176916   3.162   4.435   2.344
25558WAT     H276917   3.124   4.559   2.245
25559WAT      O76918   7.031   8.077   4.431
25559WAT     H176919   7.007   8.097   4.526
25559WAT     H276920   7.106   8.137   4.402
25560WAT      O76921   1.479   8.037   6.689
25560WAT     H176922   1.565   8.078   6.661
25560WAT     H276923   1.417   8.033   6.611
25561WAT      O76924   9.113   8.854   2.105
25561WAT     H176925   9.125   8.884   2.200
25561WAT     H276926   9.192   8.801   2.077
25562WAT      O76927   8.753   2.660   7.750
25562WAT     H176928   8.841   2.707   7.737
25562WAT     H276929   8.679   2.721   7.725
25563WAT      O76930   3.945   5.595   1.271
25563WAT     H176931   4.042   5.572   1.282
25563WAT     H276932   3.936   5.667   1.202
25564WAT      O76933   9.740   9.491   4.404
25564WAT     H176934   9.703   9.459   4.317
25564WAT     H276935   9.699   9.438   4.479
25565WAT      O76936   7.944   4.195   4.635
25565WAT     H176937   7.850   4.185   4.601
25565WAT     H276938   7.944   4.194   4.735
25566WAT      O76939   0.007   4.027   1.213
25566WAT     H176940   0.037   4.033   1.308
25566WAT     H276941   0.080   3.988   1.157
25567WAT      O76942   7.142   9.281   2.526
25567WAT     H176943   7.148   9.367   2.476
25567WAT     H276944   7.105   9.209   2.466
25568WAT      O76945   9.046   2.588   5.750
25568WAT     H176946   9.066   2.525   5.674
25568WAT     H276947   9.099   2.561   5.830
25569WAT      O76948   8.275   2.748   6.412
25569WAT     H176949   8.322   2.776   6.329
25569WAT     H276950   8.285   2.819   6.482
25570WAT      O76951   9.511   2.699   3.661
25570WAT     H176952   9.555   2.630   3.719
25570WAT     H276953   9.578   2.767   3.632
25571WAT      O76954   6.084   9.393   2.705
25571WAT     H176955   6.093   9.476   2.650
25571WAT     H276956   6.115   9.314   2.652
25572WAT      O76957   4.775   4.558   0.293
25572WAT     H176958   4.797   4.631   0.358
25572WAT     H276959   4.739   4.598   0.209
25573WAT      O76960   0.979   8.703   0.772
25573WAT     H176961   0.887   8.679   0.804
25573WAT     H276962   1.045   8.688   0.845
25574WAT      O76963   8.438   5.824   0.392
25574WAT     H176964   8.422   5.922   0.385
25574WAT     H276965   8.535   5.808   0.411
25575WAT      O76966   5.296   7.394   6.359
25575WAT     H176967   5.262   7.379   6.266
25575WAT     H276968   5.346   7.313   6.389
25576WAT      O76969   3.531   9.428   9.481
25576WAT     H176970   3.522   9.421   9.580
25576WAT     H276971   3.442   9.449   9.440
25577WAT      O76972   6.444   2.826   8.595
25577WAT     H176973   6.353   2.851   8.627
25577WAT     H276974   6.451   2.726   8.588
25578WAT      O76975   7.699   4.898   5.219
25578WAT     H176976   7.622   4.956   5.193
25578WAT     H276977   7.778   4.918   5.161
25579WAT      O76978   6.365   8.411   8.788
25579WAT     H176979   6.419   8.376   8.711
25579WAT     H276980   6.425   8.458   8.852
25580WAT      O76981   2.842   2.348   0.577
25580WAT     H176982   2.902   2.269   0.585
25580WAT     H276983   2.784   2.353   0.659
25581WAT      O76984   9.303   5.062   8.894
25581WAT     H176985   9.358   5.100   8.821
25581WAT     H276986   9.354   5.065   8.980
25582WAT      O76987   1.065   7.206   6.096
25582WAT     H176988   1.079   7.305   6.097
25582WAT     H276989   1.136   7.161   6.151
25583WAT      O76990   5.147   6.323   0.457
25583WAT     H176991   5.236   6.355   0.424
25583WAT     H276992   5.139   6.224   0.440
25584WAT      O76993   5.415   2.886   3.784
25584WAT     H176994   5.472   2.943   3.844
25584WAT     H276995   5.470   2.852   3.708
25585WAT      O76996   2.135   9.620   4.435
25585WAT     H176997   2.120   9.593   4.339
25585WAT     H276998   2.070   9.692   4.459
25586WAT      O76999   0.681   3.576   4.966
25586WAT     H177000   0.742   3.499   4.948
25586WAT     H277001   0.622   3.591   4.887
25587WAT      O77002   3.999   8.463   4.407
25587WAT     H177003   4.068   8.527   4.439
25587WAT     H277004   3.917   8.513   4.378
25588WAT      O77005   7.989   5.504   2.208
25588WAT     H177006   8.004   5.407   2.225
25588WAT     H277007   7.952   5.547   2.291
25589WAT      O77008   2.010   3.368   0.391
25589WAT     H177009   2.079   3.324   0.333
25589WAT     H277010   1.929   3.309   0.397
25590WAT      O77011   9.805   8.815   6.741
25590WAT     H177012   9.756   8.778   6.820
25590WAT     H277013   9.895   8.773   6.735
25591WAT      O77014   4.731   2.468   3.521
25591WAT     H177015   4.724   2.534   3.595
25591WAT     H277016   4.703   2.511   3.435
25592WAT      O77017   2.122   7.489   1.685
25592WAT     H177018   2.080   7.555   1.623
25592WAT     H277019   2.190   7.434   1.635
25593WAT      O77020   6.961   5.498   4.657
25593WAT     H177021   7.038   5.563   4.652
25593WAT     H277022   6.996   5.407   4.679
25594WAT      O77023   8.896   6.754   9.879
25594WAT     H177024   8.883   6.777   9.783
25594WAT     H277025   8.960   6.677   9.886
25595WAT      O77026   8.529   1.686   5.489
25595WAT     H177027   8.569   1.638   5.567
25595WAT     H277028   8.595   1.687   5.413
25596WAT      O77029   4.072   8.537   9.240
25596WAT     H177030   4.038   8.544   9.333
25596WAT     H277031   4.101   8.627   9.208
25597WAT      O77032   6.695   1.603   3.400
25597WAT     H177033   6.738   1.532   3.457
25597WAT     H277034   6.709   1.580   3.303
25598WAT      O77035   0.222   8.020   4.514
25598WAT     H177036   0.178   7.982   4.433
25598WAT     H277037   0.275   7.948   4.559
25599WAT      O77038   8.375   8.028   9.773
25599WAT     H177039   8.464   7.989   9.751
25599WAT     H277040   8.315   7.955   9.807
25600WAT      O77041   0.198   4.893   2.799
25600WAT     H177042   0.238   4.979   2.769
25600WAT     H277043   0.255   4.817   2.768
25601WAT      O77044   9.769   6.297   6.944
25601WAT     H177045   9.782   6.219   6.882
25601WAT     H277046   9.855   6.347   6.954
25602WAT      O77047   6.272   0.583   4.601
25602WAT     H177048   6.197   0.516   4.601
25602WAT     H277049   6.240   0.668   4.559
25603WAT      O77050   2.402   7.424   9.097
25603WAT     H177051   2.356   7.494   9.151
25603WAT     H277052   2.337   7.380   9.036
25604WAT      O77053   1.391   7.496   1.574
25604WAT     H177054   1.447   7.513   1.493
25604WAT     H277055   1.312   7.440   1.549
25605WAT      O77056   0.765   1.592   8.444
25605WAT     H177057   0.723   1.680   8.465
25605WAT     H277058   0.697   1.519   8.452
25606WAT      O77059   0.424   3.265   3.479
25606WAT     H177060   0.498   3.314   3.435
25606WAT     H277061   0.358   3.236   3.410
25607WAT      O77062   3.812   7.667   5.442
25607WAT     H177063   3.838   7.693   5.535
25607WAT     H277064   3.805   7.567   5.437
25608WAT      O77065   8.837   1.948   2.686
25608WAT     H177066   8.816   2.030   2.739
25608WAT     H277067   8.926   1.959   2.641
25609WAT      O77068   9.307   9.531   8.479
25609WAT     H177069   9.374   9.477   8.428
25609WAT     H277070   9.352   9.613   8.516
25610WAT      O77071   8.499   7.280   8.014
25610WAT     H177072   8.446   7.298   8.097
25610WAT     H277073   8.453   7.209   7.961
25611WAT      O77074   0.203   1.837   1.809
25611WAT     H177075   0.268   1.810   1.737
25611WAT     H277076   0.243   1.818   1.898
25612WAT      O77077   5.864   0.240   6.400
25612WAT     H177078   5.926   0.257   6.323
25612WAT     H277079   5.774   0.276   6.378
25613WAT      O77080   7.215   1.679   3.744
25613WAT     H177081   7.313   1.657   3.749
25613WAT     H277082   7.173   1.628   3.669
25614WAT      O77083   5.618   7.937   9.271
25614WAT     H177084   5.612   7.879   9.190
25614WAT     H277085   5.666   7.887   9.343
25615WAT      O77086   6.219   6.362   9.376
25615WAT     H177087   6.127   6.323   9.363
25615WAT     H277088   6.254   6.394   9.288
25616WAT      O77089   8.160   6.823   7.542
25616WAT     H177090   8.216   6.844   7.462
25616WAT     H277091   8.063   6.833   7.517
25617WAT      O77092   7.872   5.946   6.100
25617WAT     H177093   7.967   5.972   6.112
25617WAT     H277094   7.867   5.852   6.065
25618WAT      O77095   9.813   3.783   2.886
25618WAT     H177096   9.776   3.872   2.860
25618WAT     H277097   9.780   3.759   2.977
25619WAT      O77098   0.067   3.784   6.709
25619WAT     H177099   0.000   3.757   6.779
25619WAT     H277100   0.049   3.879   6.681
25620WAT      O77101   4.418   6.374   8.260
25620WAT     H177102   4.439   6.391   8.357
25620WAT     H277103   4.499   6.338   8.215
25621WAT      O77104   1.817   3.326   7.038
25621WAT     H177105   1.906   3.365   7.064
25621WAT     H277106   1.832   3.245   6.981
25622WAT      O77107   8.452   2.908   5.359
25622WAT     H177108   8.483   3.003   5.362
25622WAT     H277109   8.365   2.899   5.409
25623WAT      O77110   6.111   5.029   5.544
25623WAT     H177111   6.082   5.124   5.531
25623WAT     H277112   6.053   4.969   5.490
25624WAT      O77113   7.758   7.659   9.358
25624WAT     H177114   7.699   7.730   9.394
25624WAT     H277115   7.748   7.653   9.259
25625WAT      O77116   2.160   7.314   6.858
25625WAT     H177117   2.143   7.308   6.957
25625WAT     H277118   2.213   7.396   6.839
25626WAT      O77119   0.737   7.936   2.264
25626WAT     H177120   0.743   8.035   2.278
25626WAT     H277121   0.651   7.914   2.218
25627WAT      O77122   3.840   4.418   8.287
25627WAT     H177123   3.881   4.413   8.378
25627WAT     H277124   3.897   4.474   8.228
25628WAT      O77125   3.018   9.740   1.292
25628WAT     H177126   3.061   9.726   1.203
25628WAT     H277127   2.931   9.788   1.279
25629WAT      O77128   3.231   8.972   9.616
25629WAT     H177129   3.177   8.923   9.548
25629WAT     H277130   3.278   8.907   9.675
25630WAT      O77131   7.131   0.144   6.855
25630WAT     H177132   7.107   0.241   6.853
25630WAT     H277133   7.224   0.132   6.818
25631WAT      O77134   5.717   0.441   5.244
25631WAT     H177135   5.690   0.493   5.163
25631WAT     H277136   5.660   0.468   5.321
25632WAT      O77137   6.068   6.855   5.453
25632WAT     H177138   5.996   6.810   5.506
25632WAT     H277139   6.156   6.846   5.500
25633WAT      O77140   5.669   9.298   2.533
25633WAT     H177141   5.707   9.389   2.517
25633WAT     H277142   5.656   9.251   2.445
25634WAT      O77143   8.980   0.312   9.733
25634WAT     H177144   9.023   0.366   9.806
25634WAT     H277145   8.968   0.218   9.765
25635WAT      O77146   1.049   6.663   0.880
25635WAT     H177147   0.981   6.656   0.953
25635WAT     H277148   1.105   6.745   0.894
25636WAT      O77149   8.103   7.158   0.354
25636WAT     H177150   8.050   7.075   0.366
25636WAT     H277151   8.049   7.237   0.382
25637WAT      O77152   9.626   6.786   4.792
25637WAT     H177153   9.635   6.861   4.857
25637WAT     H277154   9.700   6.790   4.725
25638WAT      O77155   3.093   5.693   5.028
25638WAT     H177156   3.145   5.683   5.113
25638WAT     H277157   3.103   5.610   4.974
25639WAT      O77158   2.687   0.509   3.615
25639WAT     H177159   2.652   0.596   3.649
25639WAT     H277160   2.655   0.493   3.521
25640WAT      O77161   3.276   0.701   2.740
25640WAT     H177162   3.285   0.668   2.646
25640WAT     H277163   3.183   0.687   2.773
25641WAT      O77164   8.349   2.792   5.108
25641WAT     H177165   8.410   2.798   5.029
25641WAT     H277166   8.398   2.820   5.190
25642WAT      O77167   7.639   7.268   6.334
25642WAT     H177168   7.658   7.363   6.312
25642WAT     H277169   7.668   7.209   6.258
25643WAT      O77170   8.802   3.544   6.173
25643WAT     H177171   8.867   3.468   6.181
25643WAT     H277172   8.746   3.531   6.090
25644WAT      O77173   6.947   1.719   9.404
25644WAT     H177174   6.894   1.800   9.380
25644WAT     H277175   7.021   1.707   9.338
25645WAT      O77176   3.786   7.763   6.066
25645WAT     H177177   3.836   7.849   6.076
25645WAT     H277178   3.688   7.780   6.071
25646WAT      O77179   9.139   8.150   6.365
25646WAT     H177180   9.073   8.170   6.438
25646WAT     H277181   9.227   8.192   6.387
25647WAT      O77182   8.687   8.428   2.223
25647WAT     H177183   8.747   8.508   2.223
25647WAT     H277184   8.630   8.430   2.306
25648WAT      O77185   5.388   8.604   3.718
25648WAT     H177186   5.315   8.671   3.706
25648WAT     H277187   5.461   8.644   3.773
25649WAT      O77188   6.103   1.624   1.457
25649WAT     H177189   6.192   1.608   1.414
25649WAT     H277190   6.082   1.550   1.520
25650WAT      O77191   1.760   3.909   0.510
25650WAT     H177192   1.702   3.933   0.588
25650WAT     H277193   1.842   3.862   0.543
25651WAT      O77194   3.789   9.649   6.975
25651WAT     H177195   3.710   9.596   6.947
25651WAT     H277196   3.867   9.588   6.990
25652WAT      O77197   7.287   2.619   5.052
25652WAT     H177198   7.215   2.672   5.007
25652WAT     H277199   7.265   2.608   5.149
25653WAT      O77200   2.215   3.273   0.750
25653WAT     H177201   2.230   3.195   0.689
25653WAT     H277202   2.292   3.281   0.813
25654WAT      O77203   6.997   5.661   0.710
25654WAT     H177204   7.040   5.598   0.774
25654WAT     H277205   6.901   5.638   0.698
25655WAT      O77206   0.537   1.896   3.417
25655WAT     H177207   0.510   1.890   3.513
25655WAT     H277208   0.550   1.992   3.391
25656WAT      O77209   8.018   2.756   7.421
25656WAT     H177210   8.090   2.721   7.362
25656WAT     H277211   8.034   2.853   7.439
25657WAT      O77212   9.535   5.339   4.342
25657WAT     H177213   9.551   5.276   4.266
25657WAT     H277214   9.614   5.340   4.403
25658WAT      O77215   7.753   9.499   9.498
25658WAT     H177216   7.845   9.483   9.533
25658WAT     H277217   7.714   9.413   9.466
25659WAT      O77218   7.152   7.504   7.399
25659WAT     H177219   7.141   7.596   7.361
25659WAT     H277220   7.227   7.457   7.353
25660WAT      O77221   6.119   1.891   1.624
25660WAT     H177222   6.073   1.857   1.706
25660WAT     H277223   6.107   1.826   1.549
25661WAT      O77224   9.345   7.675   1.940
25661WAT     H177225   9.360   7.590   1.991
25661WAT     H277226   9.378   7.664   1.846
25662WAT      O77227   1.023   4.699   6.020
25662WAT     H177228   0.943   4.758   6.018
25662WAT     H277229   1.048   4.680   6.115
25663WAT      O77230   5.552   6.093   9.284
25663WAT     H177231   5.629   6.105   9.221
25663WAT     H277232   5.587   6.070   9.375
25664WAT      O77233   3.878   5.826   4.802
25664WAT     H177234   3.956   5.790   4.853
25664WAT     H277235   3.907   5.908   4.751
25665WAT      O77236   3.468   2.103   9.804
25665WAT     H177237   3.519   2.032   9.853
25665WAT     H277238   3.509   2.118   9.715
25666WAT      O77239   1.066   2.811   8.016
25666WAT     H177240   1.110   2.725   8.042
25666WAT     H277241   1.112   2.887   8.063
25667WAT      O77242   5.959   2.176   3.601
25667WAT     H177243   5.899   2.108   3.558
25667WAT     H277244   5.947   2.172   3.701
25668WAT      O77245   6.927   1.396   8.432
25668WAT     H177246   6.862   1.415   8.506
25668WAT     H277247   6.893   1.321   8.376
25669WAT      O77248   2.155   3.323   7.293
25669WAT     H177249   2.090   3.263   7.341
25669WAT     H277250   2.242   3.275   7.282
25670WAT      O77251   5.942   5.364   2.970
25670WAT     H177252   5.968   5.460   2.966
25670WAT     H277253   5.893   5.347   3.056
25671WAT      O77254   2.572   8.445   2.690
25671WAT     H177255   2.537   8.492   2.771
25671WAT     H277256   2.527   8.482   2.609
25672WAT      O77257   4.561   8.182   4.255
25672WAT     H177258   4.644   8.205   4.203
25672WAT     H277259   4.483   8.176   4.192
25673WAT      O77260   5.791   8.994   5.889
25673WAT     H177261   5.714   9.056   5.874
25673WAT     H277262   5.826   9.006   5.982
25674WAT      O77263   6.119   5.073   8.852
25674WAT     H177264   6.216   5.053   8.867
25674WAT     H277265   6.063   5.001   8.895
25675WAT      O77266   4.559   1.185   5.730
25675WAT     H177267   4.541   1.087   5.717
25675WAT     H277268   4.654   1.205   5.706
25676WAT      O77269   5.006   7.384   5.392
25676WAT     H177270   5.030   7.477   5.366
25676WAT     H277271   5.039   7.320   5.322
25677WAT      O77272   5.398   5.080   8.108
25677WAT     H177273   5.320   5.124   8.151
25677WAT     H277274   5.369   5.038   8.022
25678WAT      O77275   7.508   3.037   8.710
25678WAT     H177276   7.492   3.121   8.658
25678WAT     H277277   7.561   2.973   8.654
25679WAT      O77278   2.999   2.958   0.917
25679WAT     H177279   2.949   3.009   0.987
25679WAT     H277280   3.015   2.865   0.948
25680WAT      O77281   3.885   9.760   0.654
25680WAT     H177282   3.849   9.698   0.584
25680WAT     H277283   3.973   9.726   0.686
25681WAT      O77284   6.788   8.574   8.735
25681WAT     H177285   6.726   8.633   8.683
25681WAT     H277286   6.872   8.624   8.754
25682WAT      O77287   1.245   0.268   0.169
25682WAT     H177288   1.305   0.296   0.244
25682WAT     H277289   1.195   0.186   0.195
25683WAT      O77290   6.304   4.617   7.701
25683WAT     H177291   6.281   4.599   7.605
25683WAT     H277292   6.359   4.700   7.707
25684WAT      O77293   4.312   8.533   0.714
25684WAT     H177294   4.268   8.582   0.638
25684WAT     H277295   4.242   8.488   0.770
25685WAT      O77296   7.073   6.440   4.510
25685WAT     H177297   7.140   6.501   4.468
25685WAT     H277298   6.991   6.436   4.453
25686WAT      O77299   8.908   2.276   5.009
25686WAT     H177300   8.907   2.250   5.106
25686WAT     H277301   8.816   2.263   4.971
25687WAT      O77302   3.231   1.898   6.683
25687WAT     H177303   3.175   1.830   6.635
25687WAT     H277304   3.176   1.980   6.700
25688WAT      O77305   9.592   5.041   1.503
25688WAT     H177306   9.605   5.125   1.451
25688WAT     H277307   9.604   5.060   1.601
25689WAT      O77308   2.457   6.983   6.346
25689WAT     H177309   2.391   6.929   6.292
25689WAT     H277310   2.434   6.976   6.443
25690WAT      O77311   7.033   7.608   0.555
25690WAT     H177312   7.115   7.551   0.561
25690WAT     H277313   6.955   7.553   0.527
25691WAT      O77314   1.137   3.551   4.308
25691WAT     H177315   1.125   3.562   4.209
25691WAT     H277316   1.197   3.623   4.342
25692WAT      O77317   8.124   0.228   4.030
25692WAT     H177318   8.046   0.228   4.093
25692WAT     H277319   8.112   0.301   3.962
25693WAT      O77320   6.731   3.902   6.331
25693WAT     H177321   6.824   3.924   6.363
25693WAT     H277322   6.676   3.872   6.409
25694WAT      O77323   6.331   8.445   3.079
25694WAT     H177324   6.267   8.495   3.136
25694WAT     H277325   6.384   8.510   3.024
25695WAT      O77326   7.170   8.773   9.277
25695WAT     H177327   7.094   8.709   9.266
25695WAT     H277328   7.203   8.801   9.187
25696WAT      O77329   7.127   3.003   0.684
25696WAT     H177330   7.223   3.015   0.710
25696WAT     H277331   7.115   2.913   0.642
25697WAT      O77332   3.812   5.935   9.334
25697WAT     H177333   3.853   5.925   9.424
25697WAT     H277334   3.713   5.917   9.340
25698WAT      O77335   8.125   0.954   4.821
25698WAT     H177336   8.026   0.946   4.826
25698WAT     H277337   8.155   1.034   4.873
25699WAT      O77338   1.389   4.146   6.191
25699WAT     H177339   1.384   4.222   6.126
25699WAT     H277340   1.480   4.105   6.187
25700WAT      O77341   2.967   9.677   4.063
25700WAT     H177342   2.906   9.669   4.142
25700WAT     H277343   3.013   9.766   4.065
25701WAT      O77344   3.348   1.556   4.432
25701WAT     H177345   3.306   1.500   4.503
25701WAT     H277346   3.436   1.590   4.466
25702WAT      O77347   7.209   2.061   0.813
25702WAT     H177348   7.189   2.158   0.800
25702WAT     H277349   7.300   2.051   0.853
25703WAT      O77350   5.826   4.537   3.246
25703WAT     H177351   5.906   4.501   3.293
25703WAT     H277352   5.853   4.574   3.157
25704WAT      O77353   5.582   9.702   1.834
25704WAT     H177354   5.560   9.703   1.931
25704WAT     H277355   5.682   9.703   1.822
25705WAT      O77356   8.365   8.064   3.115
25705WAT     H177357   8.336   8.001   3.187
25705WAT     H277358   8.329   8.033   3.027
25706WAT      O77359   5.321   5.399   4.823
25706WAT     H177360   5.419   5.410   4.836
25706WAT     H277361   5.301   5.392   4.725
25707WAT      O77362   1.740   3.928   6.386
25707WAT     H177363   1.646   3.895   6.392
25707WAT     H277364   1.803   3.854   6.405
25708WAT      O77365   2.261   2.496   4.006
25708WAT     H177366   2.231   2.424   4.069
25708WAT     H277367   2.354   2.524   4.029
25709WAT      O77368   5.631   1.750   5.928
25709WAT     H177369   5.559   1.715   5.868
25709WAT     H277370   5.594   1.765   6.020
25710WAT      O77371   3.284   5.682   4.226
25710WAT     H177372   3.313   5.669   4.131
25710WAT     H277373   3.217   5.612   4.250
25711WAT      O77374   2.823   0.938   2.160
25711WAT     H177375   2.821   0.839   2.150
25711WAT     H277376   2.899   0.964   2.220
25712WAT      O77377   8.699   1.895   7.661
25712WAT     H177378   8.735   1.814   7.707
25712WAT     H277379   8.634   1.942   7.721
25713WAT      O77380   2.643   3.251   5.674
25713WAT     H177381   2.714   3.203   5.624
25713WAT     H277382   2.661   3.349   5.672
25714WAT      O77383   1.507   6.713   0.709
25714WAT     H177384   1.561   6.681   0.631
25714WAT     H277385   1.418   6.746   0.678
25715WAT      O77386   7.703   8.624   7.026
25715WAT     H177387   7.729   8.606   7.121
25715WAT     H277388   7.664   8.716   7.020
25716WAT      O77389   1.872   0.071   3.512
25716WAT     H177390   1.944   0.100   3.449
25716WAT     H277391   1.782   0.093   3.473
25717WAT      O77392   3.383   4.576   6.001
25717WAT     H177393   3.350   4.669   5.989
25717WAT     H277394   3.481   4.573   5.983
25718WAT      O77395   3.645   7.258   5.612
25718WAT     H177396   3.581   7.323   5.652
25718WAT     H277397   3.721   7.242   5.675
25719WAT      O77398   9.092   8.066   8.134
25719WAT     H177399   9.052   8.003   8.201
25719WAT     H277400   9.161   8.017   8.080
25720WAT      O77401   0.490   1.994   0.829
25720WAT     H177402   0.468   2.019   0.923
25720WAT     H277403   0.503   1.895   0.824
25721WAT      O77404   7.244   0.113   1.337
25721WAT     H177405   7.344   0.108   1.332
25721WAT     H277406   7.209   0.158   1.256
25722WAT      O77407   7.856   9.184   1.516
25722WAT     H177408   7.835   9.274   1.478
25722WAT     H277409   7.868   9.191   1.615
25723WAT      O77410   9.736   2.989   6.585
25723WAT     H177411   9.816   3.048   6.580
25723WAT     H277412   9.734   2.945   6.675
25724WAT      O77413   1.206   4.314   7.902
25724WAT     H177414   1.158   4.275   7.981
25724WAT     H277415   1.284   4.367   7.934
25725WAT      O77416   4.199   4.210   6.232
25725WAT     H177417   4.207   4.302   6.270
25725WAT     H277418   4.276   4.154   6.263
25726WAT      O77419   1.927   7.076   8.898
25726WAT     H177420   1.836   7.042   8.919
25726WAT     H277421   1.923   7.175   8.884
25727WAT      O77422   8.618   3.670   2.402
25727WAT     H177423   8.632   3.742   2.334
25727WAT     H277424   8.639   3.706   2.493
25728WAT      O77425   2.706   3.770   3.702
25728WAT     H177426   2.798   3.803   3.683
25728WAT     H277427   2.708   3.672   3.717
25729WAT      O77428   8.528   3.879   3.770
25729WAT     H177429   8.505   3.975   3.783
25729WAT     H277430   8.601   3.852   3.833
25730WAT      O77431   4.033   9.229   6.104
25730WAT     H177432   4.050   9.235   6.006
25730WAT     H277433   3.987   9.312   6.135
25731WAT      O77434   5.234   5.950   5.906
25731WAT     H177435   5.332   5.958   5.924
25731WAT     H277436   5.209   6.009   5.830
25732WAT      O77437   9.628   1.466   2.998
25732WAT     H177438   9.589   1.557   3.007
25732WAT     H277439   9.703   1.454   3.063
25733WAT      O77440   5.720   6.556   5.883
25733WAT     H177441   5.752   6.644   5.849
25733WAT     H277442   5.621   6.558   5.896
25734WAT      O77443   6.925   2.523   5.215
25734WAT     H177444   6.899   2.451   5.151
25734WAT     H277445   6.852   2.539   5.281
25735WAT      O77446   2.402   7.384   4.752
25735WAT     H177447   2.336   7.382   4.677
25735WAT     H277448   2.377   7.315   4.820
25736WAT      O77449   1.348   9.630   9.885
25736WAT     H177450   1.348   9.547   9.941
25736WAT     H277451   1.373   9.708   9.942
25737WAT      O77452   7.609   2.739   4.874
25737WAT     H177453   7.571   2.646   4.868
25737WAT     H277454   7.586   2.779   4.963
25738WAT      O77455   7.647   7.643   7.148
25738WAT     H177456   7.600   7.561   7.117
25738WAT     H277457   7.592   7.724   7.126
25739WAT      O77458   5.651   4.341   7.512
25739WAT     H177459   5.663   4.292   7.426
25739WAT     H277460   5.665   4.278   7.588
25740WAT      O77461   1.320   1.733   3.366
25740WAT     H177462   1.334   1.662   3.434
25740WAT     H277463   1.327   1.693   3.274
25741WAT      O77464   6.647   7.091   3.167
25741WAT     H177465   6.670   7.157   3.096
25741WAT     H277466   6.601   7.012   3.125
25742WAT      O77467   9.817   2.802   9.068
25742WAT     H177468   9.787   2.832   9.159
25742WAT     H277469   9.737   2.776   9.014
25743WAT      O77470   0.968   3.710   2.719
25743WAT     H177471   1.020   3.707   2.804
25743WAT     H277472   0.878   3.670   2.733
25744WAT      O77473   7.290   0.237   9.377
25744WAT     H177474   7.195   0.206   9.377
25744WAT     H277475   7.347   0.168   9.332
25745WAT      O77476   6.387   6.589   7.532
25745WAT     H177477   6.300   6.541   7.532
25745WAT     H277478   6.454   6.539   7.478
25746WAT      O77479   6.514   7.176   7.293
25746WAT     H177480   6.466   7.144   7.211
25746WAT     H277481   6.538   7.272   7.283
25747WAT      O77482   7.535   7.860   3.805
25747WAT     H177483   7.590   7.904   3.876
25747WAT     H277484   7.583   7.866   3.717
25748WAT      O77485   0.342   0.420   2.714
25748WAT     H177486   0.399   0.354   2.664
25748WAT     H277487   0.354   0.407   2.812
25749WAT      O77488   3.114   2.491   1.728
25749WAT     H177489   3.016   2.494   1.748
25749WAT     H277490   3.131   2.538   1.641
25750WAT      O77491   3.429   3.866   5.712
25750WAT     H177492   3.425   3.962   5.687
25750WAT     H277493   3.348   3.819   5.676
25751WAT      O77494   5.324   0.320   2.157
25751WAT     H177495   5.265   0.398   2.179
25751WAT     H277496   5.279   0.236   2.188
25752WAT      O77497   6.106   7.389   5.107
25752WAT     H177498   6.073   7.393   5.013
25752WAT     H277499   6.065   7.462   5.161
25753WAT      O77500   3.344   1.312   4.035
25753WAT     H177501   3.351   1.411   4.045
25753WAT     H277502   3.276   1.290   3.965
25754WAT      O77503   5.083   7.725   7.069
25754WAT     H177504   5.115   7.713   7.163
25754WAT     H277505   5.137   7.668   7.008
25755WAT      O77506   7.535   4.697   6.112
25755WAT     H177507   7.610   4.745   6.067
25755WAT     H277508   7.571   4.641   6.187
25756WAT      O77509   2.612   2.754   5.074
25756WAT     H177510   2.573   2.684   5.134
25756WAT     H277511   2.562   2.840   5.085
25757WAT      O77512   0.376   6.949   5.888
25757WAT     H177513   0.417   7.021   5.832
25757WAT     H277514   0.449   6.891   5.926
25758WAT      O77515   9.411   7.655   0.179
25758WAT     H177516   9.386   7.666   0.275
25758WAT     H277517   9.503   7.693   0.164
25759WAT      O77518   5.836   5.347   3.248
25759WAT     H177519   5.790   5.268   3.288
25759WAT     H277520   5.779   5.428   3.257
25760WAT      O77521   9.488   1.281   4.091
25760WAT     H177522   9.425   1.281   4.013
25760WAT     H277523   9.534   1.193   4.097
25761WAT      O77524   6.676   5.945   9.044
25761WAT     H177525   6.650   5.974   9.136
25761WAT     H277526   6.595   5.913   8.995
25762WAT      O77527   5.560   5.641   9.381
25762WAT     H177528   5.592   5.680   9.294
25762WAT     H277529   5.633   5.646   9.449
25763WAT      O77530   1.506   3.999   8.626
25763WAT     H177531   1.457   3.975   8.542
25763WAT     H277532   1.591   3.946   8.631
25764WAT      O77533   5.657   8.417   3.714
25764WAT     H177534   5.684   8.348   3.782
25764WAT     H277535   5.568   8.392   3.675
25765WAT      O77536   3.028   3.261   3.417
25765WAT     H177537   2.995   3.182   3.469
25765WAT     H277538   2.987   3.261   3.326
25766WAT      O77539   7.169   2.278   9.028
25766WAT     H177540   7.075   2.245   9.023
25766WAT     H277541   7.187   2.313   9.120
25767WAT      O77542   4.547   1.035   9.516
25767WAT     H177543   4.632   1.081   9.491
25767WAT     H277544   4.476   1.059   9.450
25768WAT      O77545   7.349   7.371   7.267
25768WAT     H177546   7.383   7.387   7.175
25768WAT     H277547   7.303   7.282   7.270
25769WAT      O77548   0.106   1.220   6.664
25769WAT     H177549   0.145   1.281   6.734
25769WAT     H277550   0.100   1.128   6.702
25770WAT      O77551   4.854   3.930   3.267
25770WAT     H177552   4.885   3.999   3.332
25770WAT     H277553   4.881   3.839   3.299
25771WAT      O77554   9.411   1.998   0.622
25771WAT     H177555   9.447   2.020   0.712
25771WAT     H277556   9.398   2.082   0.570
25772WAT      O77557   4.018   0.882   5.268
25772WAT     H177558   3.992   0.818   5.196
25772WAT     H277559   4.046   0.969   5.228
25773WAT      O77560   2.611   1.141   1.396
25773WAT     H177561   2.679   1.213   1.385
25773WAT     H277562   2.613   1.081   1.316
25774WAT      O77563   6.501   0.870   7.158
25774WAT     H177564   6.449   0.817   7.224
25774WAT     H277565   6.471   0.965   7.161
25775WAT      O77566   6.058   4.319   9.310
25775WAT     H177567   6.043   4.417   9.327
25775WAT     H277568   6.061   4.302   9.212
25776WAT      O77569   6.719   8.797   6.732
25776WAT     H177570   6.776   8.875   6.759
25776WAT     H277571   6.747   8.764   6.642
25777WAT      O77572   2.501   0.333   8.770
25777WAT     H177573   2.492   0.284   8.683
25777WAT     H277574   2.564   0.409   8.759
25778WAT      O77575   9.427   9.572   1.004
25778WAT     H177576   9.346   9.525   1.038
25778WAT     H277577   9.507   9.512   1.011
25779WAT      O77578   8.629   3.097   2.869
25779WAT     H177579   8.550   3.036   2.866
25779WAT     H277580   8.689   3.079   2.791
25780WAT      O77581   5.970   4.579   8.935
25780WAT     H177582   5.885   4.548   8.977
25780WAT     H277583   5.961   4.578   8.835
25781WAT      O77584   6.819   9.129   9.115
25781WAT     H177585   6.728   9.166   9.097
25781WAT     H277586   6.877   9.143   9.035
25782WAT      O77587   8.322   3.663   7.596
25782WAT     H177588   8.390   3.701   7.659
25782WAT     H277589   8.252   3.614   7.649
25783WAT      O77590   3.020   5.902   1.317
25783WAT     H177591   3.084   5.858   1.380
25783WAT     H277592   3.023   5.855   1.229
25784WAT      O77593   7.783   7.308   8.560
25784WAT     H177594   7.827   7.382   8.611
25784WAT     H277595   7.691   7.292   8.596
25785WAT      O77596   9.126   0.669   4.956
25785WAT     H177597   9.163   0.670   4.863
25785WAT     H277598   9.187   0.720   5.017
25786WAT      O77599   6.790   1.479   1.647
25786WAT     H177600   6.767   1.420   1.569
25786WAT     H277601   6.792   1.424   1.731
25787WAT      O77602   7.761   5.726   0.713
25787WAT     H177603   7.854   5.700   0.687
25787WAT     H277604   7.739   5.815   0.673
25788WAT      O77605   8.116   9.708   1.080
25788WAT     H177606   8.080   9.742   0.993
25788WAT     H277607   8.056   9.738   1.155
25789WAT      O77608   3.489   8.645   4.319
25789WAT     H177609   3.510   8.548   4.317
25789WAT     H277610   3.391   8.658   4.305
25790WAT      O77611   9.476   8.564   1.540
25790WAT     H177612   9.522   8.499   1.599
25790WAT     H277613   9.383   8.581   1.575
25791WAT      O77614   2.263   6.157   3.162
25791WAT     H177615   2.246   6.203   3.075
25791WAT     H277616   2.351   6.188   3.200
25792WAT      O77617   4.405   5.422   7.276
25792WAT     H177618   4.344   5.349   7.306
25792WAT     H277619   4.352   5.493   7.229
25793WAT      O77620   9.422   5.791   9.547
25793WAT     H177621   9.376   5.857   9.607
25793WAT     H277622   9.399   5.698   9.576
25794WAT      O77623   0.516   5.974   5.390
25794WAT     H177624   0.561   5.984   5.302
25794WAT     H277625   0.417   5.969   5.376
25795WAT      O77626   0.196   2.135   8.773
25795WAT     H177627   0.285   2.148   8.730
25795WAT     H277628   0.195   2.048   8.821
25796WAT      O77629   2.697   5.223   2.955
25796WAT     H177630   2.606   5.253   2.928
25796WAT     H277631   2.759   5.301   2.959
25797WAT      O77632   0.075   5.927   2.617
25797WAT     H177633   0.112   5.848   2.568
25797WAT     H277634   0.150   5.979   2.658
25798WAT      O77635   8.109   3.349   1.735
25798WAT     H177636   8.157   3.423   1.782
25798WAT     H277637   8.170   3.308   1.668
25799WAT      O77638   5.518   4.613   6.125
25799WAT     H177639   5.431   4.652   6.154
25799WAT     H277640   5.591   4.681   6.137
25800WAT      O77641   9.651   4.546   8.391
25800WAT     H177642   9.622   4.466   8.339
25800WAT     H277643   9.571   4.602   8.414
25801WAT      O77644   1.863   1.154   6.906
25801WAT     H177645   1.954   1.159   6.866
25801WAT     H277646   1.837   1.244   6.941
25802WAT      O77647   9.011   2.197   8.732
25802WAT     H177648   9.079   2.171   8.663
25802WAT     H277649   9.044   2.276   8.783
25803WAT      O77650   8.890   8.104   5.206
25803WAT     H177651   8.893   8.026   5.143
25803WAT     H277652   8.975   8.107   5.259
25804WAT      O77653   9.870   5.058   6.183
25804WAT     H177654   9.878   5.092   6.090
25804WAT     H277655   9.776   5.073   6.217
25805WAT      O77656   7.383   0.318   6.358
25805WAT     H177657   7.395   0.220   6.341
25805WAT     H277658   7.286   0.342   6.345
25806WAT      O77659   3.206   5.687   2.567
25806WAT     H177660   3.280   5.750   2.542
25806WAT     H277661   3.162   5.720   2.651
25807WAT      O77662   7.380   9.742   8.839
25807WAT     H177663   7.423   9.733   8.749
25807WAT     H277664   7.281   9.732   8.830
25808WAT      O77665   0.474   0.482   0.916
25808WAT     H177666   0.525   0.565   0.897
25808WAT     H277667   0.510   0.407   0.860
25809WAT      O77668   9.249   7.763   1.072
25809WAT     H177669   9.286   7.760   1.165
25809WAT     H277670   9.159   7.806   1.072
25810WAT      O77671   0.259   1.445   6.721
25810WAT     H177672   0.357   1.444   6.701
25810WAT     H277673   0.245   1.470   6.817
25811WAT      O77674   2.800   0.488   1.221
25811WAT     H177675   2.739   0.562   1.250
25811WAT     H277676   2.822   0.499   1.125
25812WAT      O77677   8.656   0.905   7.016
25812WAT     H177678   8.685   0.935   6.925
25812WAT     H277679   8.580   0.963   7.047
25813WAT      O77680   7.681   7.539   1.521
25813WAT     H177681   7.708   7.635   1.535
25813WAT     H277682   7.694   7.488   1.606
25814WAT      O77683   9.861   5.675   3.703
25814WAT     H177684   9.868   5.730   3.786
25814WAT     H277685   9.945   5.623   3.690
25815WAT      O77686   5.337   6.026   1.201
25815WAT     H177687   5.379   6.115   1.181
25815WAT     H277688   5.281   5.997   1.123
25816WAT      O77689   0.085   5.721   5.469
25816WAT     H177690   0.001   5.714   5.415
25816WAT     H277691   0.100   5.635   5.519
25817WAT      O77692   3.112   1.504   8.649
25817WAT     H177693   3.153   1.575   8.593
25817WAT     H277694   3.175   1.481   8.724
25818WAT      O77695   3.313   2.010   7.672
25818WAT     H177696   3.375   2.025   7.749
25818WAT     H277697   3.273   1.919   7.677
25819WAT      O77698   3.819   5.874   3.700
25819WAT     H177699   3.817   5.871   3.800
25819WAT     H277700   3.908   5.841   3.667
25820WAT      O77701   0.991   3.002   5.304
25820WAT     H177702   0.984   2.903   5.315
25820WAT     H277703   0.912   3.046   5.346
25821WAT      O77704   3.314   4.740   5.252
25821WAT     H177705   3.256   4.682   5.309
25821WAT     H277706   3.410   4.730   5.278
25822WAT      O77707   4.613   8.331   8.838
25822WAT     H177708   4.683   8.401   8.827
25822WAT     H277709   4.655   8.244   8.864
25823WAT      O77710   4.938   8.869   9.450
25823WAT     H177711   4.911   8.872   9.353
25823WAT     H277712   5.000   8.792   9.464
25824WAT      O77713   5.617   0.810   1.937
25824WAT     H177714   5.676   0.874   1.985
25824WAT     H277715   5.596   0.845   1.846
25825WAT      O77716   4.194   6.211   8.463
25825WAT     H177717   4.142   6.246   8.385
25825WAT     H277718   4.264   6.148   8.430
25826WAT      O77719   9.556   0.258   9.153
25826WAT     H177720   9.589   0.319   9.082
25826WAT     H277721   9.543   0.310   9.238
25827WAT      O77722   5.829   7.449   7.954
25827WAT     H177723   5.747   7.452   8.011
25827WAT     H277724   5.868   7.357   7.957
25828WAT      O77725   0.066   5.574   8.792
25828WAT     H177726   0.117   5.659   8.806
25828WAT     H277727   0.052   5.528   8.880
25829WAT      O77728   6.688   0.734   3.991
25829WAT     H177729   6.619   0.768   4.056
25829WAT     H277730   6.697   0.635   4.001
25830WAT      O77731   4.619   4.065   7.787
25830WAT     H177732   4.673   4.148   7.773
25830WAT     H277733   4.664   3.987   7.744
25831WAT      O77734   7.631   7.665   5.092
25831WAT     H177735   7.638   7.592   5.159
25831WAT     H277736   7.618   7.626   5.001
25832WAT      O77737   3.288   1.220   5.987
25832WAT     H177738   3.369   1.232   6.045
25832WAT     H277739   3.294   1.283   5.909
25833WAT      O77740   1.304   7.473   0.125
25833WAT     H177741   1.342   7.380   0.117
25833WAT     H277742   1.300   7.515   0.034
25834WAT      O77743   5.934   4.397   5.680
25834WAT     H177744   5.968   4.453   5.605
25834WAT     H277745   5.847   4.434   5.713
25835WAT      O77746   7.069   0.504   2.037
25835WAT     H177747   7.063   0.587   2.092
25835WAT     H277748   6.976   0.470   2.019
25836WAT      O77749   8.220   9.458   5.107
25836WAT     H177750   8.320   9.454   5.118
25836WAT     H277751   8.178   9.478   5.195
25837WAT      O77752   0.297   9.342   6.332
25837WAT     H177753   0.377   9.289   6.304
25837WAT     H277754   0.247   9.371   6.250
25838WAT      O77755   3.744   1.249   6.032
25838WAT     H177756   3.755   1.276   5.936
25838WAT     H277757   3.766   1.152   6.042
25839WAT      O77758   4.726   7.073   7.684
25839WAT     H177759   4.795   7.101   7.750
25839WAT     H277760   4.769   7.061   7.594
25840WAT      O77761   0.678   8.576   9.697
25840WAT     H177762   0.651   8.480   9.690
25840WAT     H277763   0.752   8.586   9.764
25841WAT      O77764   8.780   4.583   9.460
25841WAT     H177765   8.870   4.626   9.453
25841WAT     H277766   8.737   4.580   9.370
25842WAT      O77767   8.790   7.345   8.071
25842WAT     H177768   8.696   7.314   8.057
25842WAT     H277769   8.850   7.303   8.003
25843WAT      O77770   5.826   3.092   3.603
25843WAT     H177771   5.831   3.088   3.504
25843WAT     H277772   5.905   3.044   3.643
25844WAT      O77773   5.116   2.148   7.673
25844WAT     H177774   5.156   2.113   7.757
25844WAT     H277775   5.094   2.071   7.612
25845WAT      O77776   9.614   2.685   8.930
25845WAT     H177777   9.561   2.704   9.013
25845WAT     H277778   9.618   2.586   8.916
25846WAT      O77779   8.898   1.896   4.260
25846WAT     H177780   8.896   1.808   4.307
25846WAT     H277781   8.934   1.884   4.168
25847WAT      O77782   7.437   5.100   1.693
25847WAT     H177783   7.468   5.153   1.772
25847WAT     H277784   7.339   5.080   1.701
25848WAT      O77785   5.648   5.911   8.993
25848WAT     H177786   5.681   5.992   9.042
25848WAT     H277787   5.551   5.898   9.013
25849WAT      O77788   8.418   4.353   1.123
25849WAT     H177789   8.431   4.428   1.188
25849WAT     H277790   8.505   4.305   1.109
25850WAT      O77791   6.005   6.507   4.297
25850WAT     H177792   5.975   6.432   4.356
25850WAT     H277793   5.931   6.531   4.234
25851WAT      O77794   7.963   3.845   5.668
25851WAT     H177795   8.018   3.820   5.748
25851WAT     H277796   8.016   3.831   5.585
25852WAT      O77797   2.721   8.442   6.392
25852WAT     H177798   2.665   8.394   6.325
25852WAT     H277799   2.701   8.540   6.390
25853WAT      O77800   6.456   0.427   0.242
25853WAT     H177801   6.551   0.438   0.273
25853WAT     H277802   6.456   0.381   0.154
25854WAT      O77803   9.232   7.926   6.244
25854WAT     H177804   9.220   7.854   6.312
25854WAT     H277805   9.187   8.010   6.274
25855WAT      O77806   5.378   0.613   4.279
25855WAT     H177807   5.320   0.539   4.246
25855WAT     H277808   5.465   0.577   4.310
25856WAT      O77809   9.803   6.394   6.193
25856WAT     H177810   9.722   6.342   6.166
25856WAT     H277811   9.883   6.335   6.193
25857WAT      O77812   2.641   4.481   1.125
25857WAT     H177813   2.687   4.397   1.153
25857WAT     H277814   2.571   4.505   1.192
25858WAT      O77815   9.617   2.472   5.920
25858WAT     H177816   9.703   2.445   5.963
25858WAT     H277817   9.542   2.464   5.986
25859WAT      O77818   8.129   7.697   2.807
25859WAT     H177819   8.049   7.650   2.845
25859WAT     H277820   8.105   7.739   2.719
25860WAT      O77821   2.760   7.579   7.774
25860WAT     H177822   2.850   7.534   7.775
25860WAT     H277823   2.712   7.555   7.690
25861WAT      O77824   3.082   5.009   3.179
25861WAT     H177825   3.047   4.915   3.172
25861WAT     H277826   3.063   5.044   3.271
25862WAT      O77827   0.148   4.482   2.465
25862WAT     H177828   0.221   4.486   2.534
25862WAT     H277829   0.137   4.571   2.422
25863WAT      O77830   2.526   9.538   2.079
25863WAT     H177831   2.456   9.560   2.011
25863WAT     H277832   2.485   9.537   2.170
25864WAT      O77833   4.555   9.518   6.170
25864WAT     H177834   4.606   9.527   6.256
25864WAT     H277835   4.460   9.497   6.191
25865WAT      O77836   3.083   5.407   4.946
25865WAT     H177837   3.003   5.378   4.893
25865WAT     H277838   3.058   5.414   5.043
25866WAT      O77839   8.109   0.418   5.828
25866WAT     H177840   8.122   0.320   5.819
25866WAT     H277841   8.016   0.442   5.800
25867WAT      O77842   3.179   0.164   1.882
25867WAT     H177843   3.181   0.262   1.863
25867WAT     H277844   3.121   0.117   1.815
25868WAT      O77845   0.414   9.491   8.291
25868WAT     H177846   0.435   9.398   8.261
25868WAT     H277847   0.385   9.490   8.387
25869WAT      O77848   2.094   5.612   3.747
25869WAT     H177849   2.120   5.553   3.823
25869WAT     H277850   2.041   5.689   3.781
25870WAT      O77851   8.115   4.912   3.923
25870WAT     H177852   8.179   4.836   3.916
25870WAT     H277853   8.132   4.963   4.007
25871WAT      O77854   2.733   5.040   2.184
25871WAT     H177855   2.719   4.957   2.129
25871WAT     H277856   2.749   5.118   2.124
25872WAT      O77857   4.993   3.268   8.747
25872WAT     H177858   5.031   3.225   8.829
25872WAT     H277859   5.058   3.335   8.712
25873WAT      O77860   9.662   8.872   2.852
25873WAT     H177861   9.573   8.827   2.845
25873WAT     H277862   9.658   8.941   2.924
25874WAT      O77863   7.225   7.580   3.808
25874WAT     H177864   7.321   7.555   3.811
25874WAT     H277865   7.173   7.522   3.872
25875WAT      O77866   2.448   2.196   0.153
25875WAT     H177867   2.547   2.207   0.164
25875WAT     H277868   2.420   2.236   0.066
25876WAT      O77869   5.991   4.089   8.793
25876WAT     H177870   6.001   3.989   8.793
25876WAT     H277871   5.922   4.116   8.725
25877WAT      O77872   4.347   4.017   6.543
25877WAT     H177873   4.337   4.049   6.637
25877WAT     H277874   4.271   3.956   6.520
25878WAT      O77875   5.171   1.857   4.407
25878WAT     H177876   5.077   1.823   4.403
25878WAT     H277877   5.187   1.901   4.495
25879WAT      O77878   4.985   1.457   3.807
25879WAT     H177879   5.049   1.525   3.769
25879WAT     H277880   5.037   1.379   3.841
25880WAT      O77881   4.006   7.723   8.759
25880WAT     H177882   3.937   7.754   8.693
25880WAT     H277883   3.988   7.627   8.782
25881WAT      O77884   2.982   4.647   6.021
25881WAT     H177885   2.909   4.584   6.045
25881WAT     H277886   2.945   4.739   6.012
25882WAT      O77887   6.863   6.332   5.097
25882WAT     H177888   6.796   6.258   5.091
25882WAT     H277889   6.820   6.419   5.073
25883WAT      O77890   7.289   7.553   5.938
25883WAT     H177891   7.254   7.630   5.883
25883WAT     H277892   7.246   7.556   6.028
25884WAT      O77893   4.735   7.161   6.954
25884WAT     H177894   4.822   7.187   6.996
25884WAT     H277895   4.750   7.090   6.886
25885WAT      O77896   5.140   9.510   1.817
25885WAT     H177897   5.127   9.530   1.914
25885WAT     H277898   5.237   9.507   1.795
25886WAT      O77899   5.664   9.000   0.734
25886WAT     H177900   5.602   8.982   0.811
25886WAT     H277901   5.751   9.035   0.769
25887WAT      O77902   5.016   5.755   9.181
25887WAT     H177903   4.976   5.713   9.263
25887WAT     H277904   4.956   5.738   9.102
25888WAT      O77905   1.074   5.404   3.843
25888WAT     H177906   1.008   5.462   3.891
25888WAT     H277907   1.066   5.310   3.877
25889WAT      O77908   7.301   3.206   9.166
25889WAT     H177909   7.305   3.106   9.166
25889WAT     H277910   7.300   3.240   9.072
25890WAT      O77911   8.124   9.511   2.232
25890WAT     H177912   8.141   9.414   2.247
25890WAT     H277913   8.025   9.529   2.238
25891WAT      O77914   7.942   2.535   5.862
25891WAT     H177915   7.868   2.593   5.828
25891WAT     H277916   7.904   2.456   5.909
25892WAT      O77917   7.864   0.383   5.605
25892WAT     H177918   7.914   0.458   5.561
25892WAT     H277919   7.889   0.296   5.564
25893WAT      O77920   5.672   3.108   8.861
25893WAT     H177921   5.692   3.127   8.957
25893WAT     H277922   5.673   3.193   8.809
25894WAT      O77923   1.494   5.270   0.539
25894WAT     H177924   1.556   5.328   0.486
25894WAT     H277925   1.400   5.286   0.509
25895WAT      O77926   5.979   2.492   7.251
25895WAT     H177927   6.058   2.553   7.258
25895WAT     H277928   5.964   2.447   7.338
25896WAT      O77929   9.882   6.043   9.748
25896WAT     H177930   9.812   6.033   9.819
25896WAT     H277931   9.850   6.106   9.678
25897WAT      O77932   7.155   3.636   4.648
25897WAT     H177933   7.206   3.709   4.694
25897WAT     H277934   7.176   3.638   4.550
25898WAT      O77935   9.106   5.682   1.227
25898WAT     H177936   9.076   5.588   1.244
25898WAT     H277937   9.089   5.737   1.308
25899WAT      O77938   7.908   7.440   4.360
25899WAT     H177939   7.927   7.348   4.324
25899WAT     H277940   7.819   7.441   4.404
25900WAT      O77941   9.025   7.163   0.946
25900WAT     H177942   9.020   7.071   0.984
25900WAT     H277943   9.025   7.231   1.019
25901WAT      O77944   5.948   8.384   2.641
25901WAT     H177945   5.889   8.362   2.563
25901WAT     H277946   6.026   8.438   2.610
25902WAT      O77947   3.607   8.805   9.772
25902WAT     H177948   3.513   8.781   9.748
25902WAT     H277949   3.619   8.904   9.765
25903WAT      O77950   3.777   0.863   8.427
25903WAT     H177951   3.799   0.940   8.487
25903WAT     H277952   3.806   0.778   8.469
25904WAT      O77953   3.255   7.838   0.762
25904WAT     H177954   3.250   7.938   0.768
25904WAT     H277955   3.187   7.805   0.697
25905WAT      O77956   1.326   2.742   6.105
25905WAT     H177957   1.370   2.831   6.091
25905WAT     H277958   1.252   2.752   6.171
25906WAT      O77959   7.843   0.064   9.467
25906WAT     H177960   7.908   0.111   9.527
25906WAT     H277961   7.760   0.119   9.458
25907WAT      O77962   2.576   8.133   1.810
25907WAT     H177963   2.605   8.205   1.747
25907WAT     H277964   2.577   8.168   1.903
25908WAT      O77965   4.872   0.503   4.130
25908WAT     H177966   4.925   0.521   4.213
25908WAT     H277967   4.933   0.467   4.060
25909WAT      O77968   6.141   6.163   8.941
25909WAT     H177969   6.067   6.121   8.889
25909WAT     H277970   6.152   6.258   8.914
25910WAT      O77971   1.820   4.356   0.235
25910WAT     H177972   1.729   4.323   0.260
25910WAT     H277973   1.813   4.449   0.198
25911WAT      O77974   8.313   0.058   7.903
25911WAT     H177975   8.283   0.064   7.999
25911WAT     H277976   8.265   0.127   7.849
25912WAT      O77977   8.517   1.330   2.622
25912WAT     H177978   8.500   1.395   2.696
25912WAT     H277979   8.615   1.311   2.616
25913WAT      O77980   7.988   4.210   9.230
25913WAT     H177981   7.902   4.250   9.262
25913WAT     H277982   8.062   4.234   9.294
25914WAT      O77983   9.002   7.309   4.117
25914WAT     H177984   9.073   7.288   4.050
25914WAT     H277985   9.028   7.269   4.206
25915WAT      O77986   3.129   1.527   1.672
25915WAT     H177987   3.086   1.603   1.622
25915WAT     H277988   3.108   1.536   1.770
25916WAT      O77989   1.635   8.726   4.922
25916WAT     H177990   1.678   8.755   4.836
25916WAT     H277991   1.590   8.804   4.964
25917WAT      O77992   3.234   1.779   5.653
25917WAT     H177993   3.259   1.832   5.734
25917WAT     H277994   3.227   1.682   5.677
25918WAT      O77995   3.150   6.117   6.858
25918WAT     H177996   3.131   6.190   6.923
25918WAT     H277997   3.140   6.028   6.903
25919WAT      O77998   7.730   2.347   8.014
25919WAT     H177999   7.787   2.297   7.949
25919WAT     H278000   7.676   2.415   7.964
25920WAT      O78001   7.526   6.588   9.616
25920WAT     H178002   7.533   6.646   9.535
25920WAT     H278003   7.504   6.494   9.588
25921WAT      O78004   8.134   7.771   6.057
25921WAT     H178005   8.177   7.696   6.006
25921WAT     H278006   8.044   7.791   6.019
25922WAT      O78007   7.361   6.134   1.103
25922WAT     H178008   7.285   6.186   1.063
25922WAT     H278009   7.332   6.040   1.119
25923WAT      O78010   4.500   1.410   4.221
25923WAT     H178011   4.539   1.501   4.209
25923WAT     H278012   4.559   1.356   4.282
25924WAT      O78013   1.068   1.121   0.448
25924WAT     H178014   0.988   1.162   0.491
25924WAT     H278015   1.149   1.141   0.502
25925WAT      O78016   6.263   8.956   2.011
25925WAT     H178017   6.247   9.023   1.940
25925WAT     H278018   6.176   8.918   2.042
25926WAT      O78019   0.685   5.870   5.581
25926WAT     H178020   0.633   5.871   5.666
25926WAT     H278021   0.638   5.926   5.512
25927WAT      O78022   3.220   9.298   2.811
25927WAT     H178023   3.123   9.322   2.814
25927WAT     H278024   3.234   9.227   2.741
25928WAT      O78025   0.750   8.931   4.490
25928WAT     H178026   0.696   8.902   4.570
25928WAT     H278027   0.823   8.992   4.520
25929WAT      O78028   7.663   6.488   5.233
25929WAT     H178029   7.721   6.418   5.277
25929WAT     H278030   7.598   6.524   5.299
25930WAT      O78031   3.924   3.181   0.786
25930WAT     H178032   4.012   3.142   0.756
25930WAT     H278033   3.856   3.170   0.714
25931WAT      O78034   7.203   1.106   8.188
25931WAT     H178035   7.185   1.200   8.160
25931WAT     H278036   7.236   1.106   8.283
25932WAT      O78037   4.085   4.933   9.641
25932WAT     H178038   4.164   4.985   9.610
25932WAT     H278039   4.010   4.996   9.663
25933WAT      O78040   7.747   6.827   8.642
25933WAT     H178041   7.660   6.856   8.683
25933WAT     H278042   7.804   6.907   8.624
25934WAT      O78043   1.197   5.709   2.656
25934WAT     H178044   1.221   5.625   2.703
25934WAT     H278045   1.143   5.767   2.716
25935WAT      O78046   0.094   2.417   0.371
25935WAT     H178047   0.163   2.395   0.440
25935WAT     H278048   0.114   2.507   0.333
25936WAT      O78049   8.125   4.127   6.301
25936WAT     H178050   8.181   4.080   6.370
25936WAT     H278051   8.162   4.219   6.286
25937WAT      O78052   7.224   7.507   4.205
25937WAT     H178053   7.158   7.487   4.277
25937WAT     H278054   7.204   7.451   4.124
25938WAT      O78055   6.664   9.524   7.416
25938WAT     H178056   6.668   9.620   7.444
25938WAT     H278057   6.645   9.519   7.318
25939WAT      O78058   4.738   3.346   3.219
25939WAT     H178059   4.795   3.275   3.176
25939WAT     H278060   4.753   3.346   3.317
25940WAT      O78061   3.834   2.909   6.225
25940WAT     H178062   3.856   2.819   6.263
25940WAT     H278063   3.847   2.906   6.126
25941WAT      O78064   1.404   6.300   9.116
25941WAT     H178065   1.330   6.275   9.179
25941WAT     H278066   1.475   6.230   9.118
25942WAT      O78067   7.153   0.837   9.516
25942WAT     H178068   7.203   0.795   9.592
25942WAT     H278069   7.102   0.916   9.550
25943WAT      O78070   0.457   7.377   1.047
25943WAT     H178071   0.372   7.353   1.093
25943WAT     H278072   0.465   7.477   1.041
25944WAT      O78073   6.219   9.764   2.772
25944WAT     H178074   6.317   9.775   2.755
25944WAT     H278075   6.184   9.845   2.820
25945WAT      O78076   7.408   8.954   5.994
25945WAT     H178077   7.479   8.885   5.989
25945WAT     H278078   7.417   9.018   5.918
25946WAT      O78079   7.674   2.469   3.105
25946WAT     H178080   7.672   2.500   3.200
25946WAT     H278081   7.768   2.446   3.078
25947WAT      O78082   0.859   9.717   7.035
25947WAT     H178083   0.938   9.659   7.056
25947WAT     H278084   0.782   9.659   7.011
25948WAT      O78085   8.445   1.826   0.009
25948WAT     H178086   8.501   1.859   0.084
25948WAT     H278087   8.349   1.828   0.035
25949WAT      O78088   5.673   3.109   7.705
25949WAT     H178089   5.722   3.179   7.654
25949WAT     H278090   5.574   3.122   7.693
25950WAT      O78091   1.183   7.219   4.912
25950WAT     H178092   1.185   7.257   4.820
25950WAT     H278093   1.235   7.278   4.974
25951WAT      O78094   3.644   6.272   3.126
25951WAT     H178095   3.616   6.249   3.219
25951WAT     H278096   3.673   6.368   3.123
25952WAT      O78097   9.762   8.969   0.581
25952WAT     H178098   9.756   8.887   0.524
25952WAT     H278099   9.825   8.952   0.657
25953WAT      O78100   3.566   9.012   7.472
25953WAT     H178101   3.488   8.970   7.518
25953WAT     H278102   3.651   8.974   7.509
25954WAT      O78103   1.048   3.018   8.849
25954WAT     H178104   1.062   3.010   8.750
25954WAT     H278105   1.125   3.067   8.889
25955WAT      O78106   8.497   7.486   4.409
25955WAT     H178107   8.406   7.453   4.385
25955WAT     H278108   8.490   7.579   4.444
25956WAT      O78109   7.725   7.826   3.618
25956WAT     H178110   7.699   7.812   3.522
25956WAT     H278111   7.805   7.770   3.639
25957WAT      O78112   7.995   7.571   1.003
25957WAT     H178113   7.909   7.569   1.055
25957WAT     H278114   8.069   7.603   1.063
25958WAT      O78115   5.020   1.926   1.998
25958WAT     H178116   4.986   2.005   1.947
25958WAT     H278117   4.970   1.918   2.084
25959WAT      O78118   6.399   0.646   2.141
25959WAT     H178119   6.482   0.619   2.190
25959WAT     H278120   6.403   0.613   2.047
25960WAT      O78121   4.876   5.016   2.442
25960WAT     H178122   4.821   4.996   2.523
25960WAT     H278123   4.918   4.932   2.409
25961WAT      O78124   4.131   4.807   4.658
25961WAT     H178125   4.088   4.897   4.650
25961WAT     H278126   4.215   4.815   4.711
25962WAT      O78127   6.583   8.025   5.222
25962WAT     H178128   6.538   8.024   5.311
25962WAT     H278129   6.524   7.980   5.155
25963WAT      O78130   7.563   3.976   7.494
25963WAT     H178131   7.507   3.895   7.511
25963WAT     H278132   7.529   4.052   7.549
25964WAT      O78133   1.496   1.941   2.415
25964WAT     H178134   1.574   1.982   2.368
25964WAT     H278135   1.528   1.882   2.489
25965WAT      O78136   2.708   6.989   4.813
25965WAT     H178137   2.720   7.088   4.814
25965WAT     H278138   2.630   6.965   4.870
25966WAT      O78139   4.204   7.565   5.023
25966WAT     H178140   4.284   7.539   4.969
25966WAT     H278141   4.166   7.650   4.986
25967WAT      O78142   6.309   8.757   9.124
25967WAT     H178143   6.338   8.701   9.047
25967WAT     H278144   6.212   8.778   9.116
25968WAT      O78145   3.312   5.856   5.586
25968WAT     H178146   3.347   5.950   5.583
25968WAT     H278147   3.217   5.857   5.616
25969WAT      O78148   0.981   7.841   2.188
25969WAT     H178149   1.036   7.847   2.271
25969WAT     H278150   0.892   7.882   2.203
25970WAT      O78151   9.538   7.275   0.038
25970WAT     H178152   9.610   7.342   0.023
25970WAT     H278153   9.560   7.220   0.119
25971WAT      O78154   3.724   4.371   1.390
25971WAT     H178155   3.676   4.306   1.331
25971WAT     H278156   3.761   4.444   1.333
25972WAT      O78157   1.741   0.842   8.640
25972WAT     H178158   1.733   0.908   8.565
25972WAT     H278159   1.684   0.762   8.621
25973WAT      O78160   3.861   4.441   9.334
25973WAT     H178161   3.946   4.447   9.386
25973WAT     H278162   3.869   4.492   9.249
25974WAT      O78163   0.317   4.277   3.547
25974WAT     H178164   0.322   4.181   3.519
25974WAT     H278165   0.350   4.286   3.641
25975WAT      O78166   0.678   1.489   5.234
25975WAT     H178167   0.664   1.416   5.168
25975WAT     H278168   0.600   1.495   5.296
25976WAT      O78169   8.651   2.915   6.797
25976WAT     H178170   8.720   2.857   6.753
25976WAT     H278171   8.594   2.958   6.728
25977WAT      O78172   4.254   1.358   2.719
25977WAT     H178173   4.246   1.291   2.646
25977WAT     H278174   4.258   1.450   2.679
25978WAT      O78175   7.958   8.565   4.089
25978WAT     H178176   7.892   8.496   4.121
25978WAT     H278177   7.988   8.541   3.997
25979WAT      O78178   7.470   8.271   8.607
25979WAT     H178179   7.483   8.266   8.706
25979WAT     H278180   7.557   8.296   8.564
25980WAT      O78181   4.344   8.782   0.879
25980WAT     H178182   4.354   8.710   0.811
25980WAT     H278183   4.287   8.856   0.842
25981WAT      O78184   6.275   9.806   4.605
25981WAT     H178185   6.320   9.717   4.603
25981WAT     H278186   6.176   9.793   4.614
25982WAT      O78187   8.224   9.732   2.373
25982WAT     H178188   8.311   9.720   2.326
25982WAT     H278189   8.152   9.684   2.323
25983WAT      O78190   0.589   0.955   8.009
25983WAT     H178191   0.560   0.984   7.918
25983WAT     H278192   0.577   1.030   8.074
25984WAT      O78193   1.289   9.128   8.888
25984WAT     H178194   1.262   9.199   8.952
25984WAT     H278195   1.221   9.055   8.888
25985WAT      O78196   0.956   4.217   6.919
25985WAT     H178197   0.903   4.253   6.996
25985WAT     H278198   1.031   4.280   6.899
25986WAT      O78199   3.055   7.409   4.637
25986WAT     H178200   3.004   7.334   4.679
25986WAT     H278201   3.103   7.376   4.556
25987WAT      O78202   0.372   5.280   3.154
25987WAT     H178203   0.275   5.292   3.132
25987WAT     H278204   0.383   5.276   3.253
25988WAT      O78205   8.154   5.089   5.271
25988WAT     H178206   8.106   5.108   5.357
25988WAT     H278207   8.194   4.998   5.275
25989WAT      O78208   8.327   2.726   7.270
25989WAT     H178209   8.398   2.658   7.284
25989WAT     H278210   8.311   2.738   7.172
25990WAT      O78211   2.620   7.965   2.931
25990WAT     H178212   2.561   7.895   2.973
25990WAT     H278213   2.566   8.019   2.866
25991WAT      O78214   6.237   8.770   5.644
25991WAT     H178215   6.202   8.863   5.628
25991WAT     H278216   6.215   8.712   5.565
25992WAT      O78217   8.896   7.691   9.378
25992WAT     H178218   8.891   7.726   9.285
25992WAT     H278219   8.871   7.764   9.443
25993WAT      O78220   1.314   0.940   6.019
25993WAT     H178221   1.217   0.919   6.033
25993WAT     H278222   1.359   0.953   6.107
25994WAT      O78223   5.659   5.765   8.315
25994WAT     H178224   5.594   5.797   8.246
25994WAT     H278225   5.617   5.690   8.368
25995WAT      O78226   1.298   7.949   9.251
25995WAT     H178227   1.208   7.945   9.208
25995WAT     H278228   1.295   7.899   9.338
25996WAT      O78229   0.862   7.693   5.641
25996WAT     H178230   0.778   7.707   5.589
25996WAT     H278231   0.915   7.778   5.643
25997WAT      O78232   4.205   0.646   5.216
25997WAT     H178233   4.287   0.634   5.159
25997WAT     H278234   4.199   0.571   5.282
25998WAT      O78235   4.807   4.402   4.930
25998WAT     H178236   4.740   4.328   4.930
25998WAT     H278237   4.855   4.403   4.842
25999WAT      O78238   8.849   0.886   9.022
25999WAT     H178239   8.783   0.825   8.979
25999WAT     H278240   8.812   0.918   9.109
26000WAT      O78241   5.817   7.990   4.963
26000WAT     H178242   5.791   7.981   4.867
26000WAT     H278243   5.777   7.915   5.016
26001WAT      O78244   3.402   6.334   4.948
26001WAT     H178245   3.403   6.432   4.928
26001WAT     H278246   3.309   6.300   4.942
26002WAT      O78247   4.319   8.489   4.415
26002WAT     H178248   4.261   8.557   4.461
26002WAT     H278249   4.352   8.423   4.482
26003WAT      O78250   6.093   3.440   7.951
26003WAT     H178251   6.094   3.482   7.861
26003WAT     H278252   6.084   3.341   7.941
26004WAT      O78253   0.159   9.622   8.240
26004WAT     H178254   0.141   9.693   8.309
26004WAT     H278255   0.255   9.595   8.244
26005WAT      O78256   4.551   9.077   5.406
26005WAT     H178257   4.517   9.167   5.434
26005WAT     H278258   4.492   9.006   5.442
26006WAT      O78259   7.476   6.687   1.438
26006WAT     H178260   7.471   6.716   1.533
26006WAT     H278261   7.567   6.705   1.402
26007WAT      O78262   5.343   8.105   0.639
26007WAT     H178263   5.356   8.069   0.547
26007WAT     H278264   5.431   8.134   0.677
26008WAT      O78265   1.432   7.580   6.890
26008WAT     H178266   1.430   7.680   6.892
26008WAT     H278267   1.473   7.549   6.804
26009WAT      O78268   4.209   3.793   8.212
26009WAT     H178269   4.126   3.850   8.213
26009WAT     H278270   4.243   3.786   8.118
26010WAT      O78271   6.794   8.532   9.411
26010WAT     H178272   6.738   8.614   9.404
26010WAT     H278273   6.805   8.491   9.320
26011WAT      O78274   5.407   2.311   2.720
26011WAT     H178275   5.421   2.349   2.628
26011WAT     H278276   5.486   2.255   2.745
26012WAT      O78277   7.407   8.198   9.091
26012WAT     H178278   7.428   8.241   9.179
26012WAT     H278279   7.308   8.203   9.075
26013WAT      O78280   6.514   2.603   7.528
26013WAT     H178281   6.529   2.522   7.584
26013WAT     H278282   6.483   2.576   7.437
26014WAT      O78283   3.979   7.161   7.882
26014WAT     H178284   4.068   7.137   7.919
26014WAT     H278285   3.918   7.189   7.956
26015WAT      O78286   1.427   7.044   7.281
26015WAT     H178287   1.506   6.987   7.304
26015WAT     H278288   1.347   7.012   7.331
26016WAT      O78289   8.852   1.202   1.924
26016WAT     H178290   8.893   1.292   1.907
26016WAT     H278291   8.911   1.131   1.887
26017WAT      O78292   5.988   1.297   2.395
26017WAT     H178293   6.075   1.251   2.412
26017WAT     H278294   5.919   1.261   2.457
26018WAT      O78295   9.686   7.796   3.056
26018WAT     H178296   9.784   7.775   3.055
26018WAT     H278297   9.663   7.843   3.141
26019WAT      O78298   2.871   8.869   1.289
26019WAT     H178299   2.883   8.963   1.259
26019WAT     H278300   2.900   8.861   1.385
26020WAT      O78301   4.694   0.301   9.612
26020WAT     H178302   4.789   0.327   9.626
26020WAT     H278303   4.647   0.373   9.561
26021WAT      O78304   0.011   9.317   2.028
26021WAT     H178305   0.087   9.378   2.004
26021WAT     H278306  -0.069   9.341   1.974
26022WAT      O78307   9.504   7.324   9.355
26022WAT     H178308   9.483   7.262   9.430
26022WAT     H278309   9.568   7.279   9.292
26023WAT      O78310   2.009   8.786   0.063
26023WAT     H178311   2.013   8.686   0.065
26023WAT     H278312   2.048   8.818  -0.024
26024WAT      O78313   3.504   5.169   8.020
26024WAT     H178314   3.439   5.241   7.998
26024WAT     H278315   3.528   5.118   7.938
26025WAT      O78316   2.660   6.308   5.382
26025WAT     H178317   2.687   6.311   5.285
26025WAT     H278318   2.717   6.373   5.433
26026WAT      O78319   1.457   4.442   8.027
26026WAT     H178320   1.550   4.405   8.018
26026WAT     H278321   1.441   4.468   8.122
26027WAT      O78322   0.623   6.804   0.170
26027WAT     H178323   0.567   6.879   0.135
26027WAT     H278324   0.588   6.717   0.135
26028WAT      O78325   6.399   4.385   6.740
26028WAT     H178326   6.460   4.441   6.796
26028WAT     H278327   6.432   4.383   6.645
26029WAT      O78328   7.702   7.312   0.408
26029WAT     H178329   7.799   7.331   0.421
26029WAT     H278330   7.685   7.286   0.313
26030WAT      O78331   0.898   0.419   3.415
26030WAT     H178332   0.913   0.509   3.458
26030WAT     H278333   0.822   0.373   3.460
26031WAT      O78334   7.117   8.323   5.441
26031WAT     H178335   7.180   8.268   5.386
26031WAT     H278336   7.165   8.404   5.476
26032WAT      O78337   7.879   2.217   0.776
26032WAT     H178338   7.856   2.120   0.781
26032WAT     H278339   7.873   2.248   0.681
26033WAT      O78340   7.369   7.638   0.408
26033WAT     H178341   7.279   7.682   0.406
26033WAT     H278342   7.363   7.555   0.464
26034WAT      O78343   7.571   4.085   1.545
26034WAT     H178344   7.566   4.180   1.512
26034WAT     H278345   7.600   4.025   1.471
26035WAT      O78346   5.618   2.135   2.750
26035WAT     H178347   5.583   2.055   2.798
26035WAT     H278348   5.676   2.188   2.811
26036WAT      O78349   6.538   6.918   1.772
26036WAT     H178350   6.442   6.909   1.800
26036WAT     H278351   6.595   6.925   1.853
26037WAT      O78352   7.937   8.930   2.427
26037WAT     H178353   8.001   8.891   2.494
26037WAT     H278354   7.846   8.937   2.468
26038WAT      O78355   2.032   1.503   4.904
26038WAT     H178356   2.047   1.581   4.966
26038WAT     H278357   2.018   1.537   4.811
26039WAT      O78358   3.144   1.189   4.704
26039WAT     H178359   3.068   1.225   4.758
26039WAT     H278360   3.226   1.183   4.762
26040WAT      O78361   2.990   7.084   6.758
26040WAT     H178362   2.906   7.049   6.716
26040WAT     H278363   3.013   7.172   6.718
26041WAT      O78364   0.625   4.115   6.169
26041WAT     H178365   0.650   4.172   6.090
26041WAT     H278366   0.525   4.113   6.178
26042WAT      O78367   7.513   3.161   8.151
26042WAT     H178368   7.503   3.066   8.121
26042WAT     H278369   7.424   3.200   8.170
26043WAT      O78370   8.071   5.410   0.832
26043WAT     H178371   8.163   5.410   0.872
26043WAT     H278372   8.076   5.446   0.739
26044WAT      O78373   9.222   4.336   2.762
26044WAT     H178374   9.294   4.348   2.693
26044WAT     H278375   9.153   4.273   2.727
26045WAT      O78376   1.532   0.179   5.457
26045WAT     H178377   1.487   0.148   5.373
26045WAT     H278378   1.626   0.144   5.459
26046WAT      O78379   3.730   0.133   5.154
26046WAT     H178380   3.677   0.053   5.181
26046WAT     H278381   3.804   0.104   5.093
26047WAT      O78382   0.964   8.150   0.344
26047WAT     H178383   0.989   8.129   0.249
26047WAT     H278384   1.047   8.163   0.398
26048WAT      O78385   7.122   9.432   1.723
26048WAT     H178386   7.208   9.483   1.713
26048WAT     H278387   7.143   9.336   1.743
26049WAT      O78388   6.672   1.165   4.401
26049WAT     H178389   6.628   1.165   4.491
26049WAT     H278390   6.746   1.233   4.400
26050WAT      O78391   6.110   5.269   7.883
26050WAT     H178392   6.023   5.293   7.841
26050WAT     H278393   6.143   5.347   7.937
26051WAT      O78394   9.256   4.067   4.819
26051WAT     H178395   9.331   4.011   4.856
26051WAT     H278396   9.182   4.071   4.886
26052WAT      O78397   0.543   7.732   6.299
26052WAT     H178398   0.470   7.750   6.365
26052WAT     H278399   0.632   7.749   6.343
26053WAT      O78400   2.059   3.726   6.749
26053WAT     H178401   2.113   3.794   6.699
26053WAT     H278402   2.116   3.683   6.819
26054WAT      O78403   1.580   4.814   3.745
26054WAT     H178404   1.519   4.745   3.784
26054WAT     H278405   1.609   4.877   3.817
26055WAT      O78406   7.887   3.827   9.820
26055WAT     H178407   7.825   3.811   9.743
26055WAT     H278408   7.963   3.884   9.791
26056WAT      O78409   3.091   5.329   8.350
26056WAT     H178410   3.063   5.360   8.441
26056WAT     H278411   3.020   5.269   8.313
26057WAT      O78412   2.833   2.548   1.767
26057WAT     H178413   2.779   2.485   1.822
26057WAT     H278414   2.805   2.541   1.671
26058WAT      O78415   3.916   2.261   4.495
26058WAT     H178416   3.861   2.331   4.451
26058WAT     H278417   3.921   2.180   4.436
26059WAT      O78418   5.126   2.783   2.941
26059WAT     H178419   5.116   2.843   3.020
26059WAT     H278420   5.221   2.785   2.909
26060WAT      O78421   3.659   9.013   9.445
26060WAT     H178422   3.653   8.916   9.418
26060WAT     H278423   3.635   9.022   9.541
26061WAT      O78424   0.999   9.142   1.056
26061WAT     H178425   0.917   9.086   1.044
26061WAT     H278426   1.062   9.125   0.980
26062WAT      O78427   8.379   8.192   0.703
26062WAT     H178428   8.411   8.120   0.764
26062WAT     H278429   8.282   8.209   0.718
26063WAT      O78430   3.721   9.661   3.102
26063WAT     H178431   3.626   9.687   3.115
26063WAT     H278432   3.727   9.562   3.084
26064WAT      O78433   7.480   8.074   7.106
26064WAT     H178434   7.505   8.150   7.166
26064WAT     H278435   7.381   8.074   7.092
26065WAT      O78436   4.409   5.794   7.976
26065WAT     H178437   4.426   5.891   7.963
26065WAT     H278438   4.311   5.775   7.966
26066WAT      O78439   2.497   3.301   6.785
26066WAT     H178440   2.433   3.228   6.808
26066WAT     H278441   2.563   3.267   6.718
26067WAT      O78442   1.084   2.738   3.785
26067WAT     H178443   1.138   2.681   3.847
26067WAT     H278444   1.118   2.728   3.692
26068WAT      O78445   1.458   1.183   2.854
26068WAT     H178446   1.549   1.143   2.845
26068WAT     H278447   1.441   1.244   2.777
26069WAT      O78448   1.104   0.257   1.670
26069WAT     H178449   1.200   0.230   1.667
26069WAT     H278450   1.089   0.334   1.608
26070WAT      O78451   8.316   6.933   1.977
26070WAT     H178452   8.361   6.880   1.905
26070WAT     H278453   8.366   7.019   1.990
26071WAT      O78454   3.148   1.986   7.046
26071WAT     H178455   3.185   2.036   7.124
26071WAT     H278456   3.069   2.035   7.009
26072WAT      O78457   7.261   0.092   5.140
26072WAT     H178458   7.227   0.186   5.137
26072WAT     H278459   7.190   0.032   5.175
26073WAT      O78460   9.845   2.135   1.982
26073WAT     H178461   9.781   2.094   2.047
26073WAT     H278462   9.861   2.072   1.906
26074WAT      O78463   3.319   8.836   0.786
26074WAT     H178464   3.252   8.810   0.856
26074WAT     H278465   3.310   8.775   0.707
26075WAT      O78466   7.619   5.122   0.861
26075WAT     H178467   7.621   5.022   0.867
26075WAT     H278468   7.711   5.156   0.846
26076WAT      O78469   2.501   8.132   9.530
26076WAT     H178470   2.597   8.154   9.512
26076WAT     H278471   2.445   8.215   9.524
26077WAT      O78472   7.071   9.780   2.320
26077WAT     H178473   7.107   9.712   2.257
26077WAT     H278474   6.972   9.769   2.328
26078WAT      O78475   5.865   3.185   8.369
26078WAT     H178476   5.813   3.117   8.422
26078WAT     H278477   5.946   3.213   8.421
26079WAT      O78478   0.075   4.488   2.033
26079WAT     H178479   0.111   4.396   2.045
26079WAT     H278480  -0.002   4.502   2.095
26080WAT      O78481   5.375   4.439   9.679
26080WAT     H178482   5.396   4.343   9.698
26080WAT     H278483   5.278   4.456   9.694
26081WAT      O78484   2.742   5.545   4.519
26081WAT     H178485   2.744   5.446   4.507
26081WAT     H278486   2.703   5.588   4.438
26082WAT      O78487   8.263   5.254   6.306
26082WAT     H178488   8.188   5.188   6.304
26082WAT     H278489   8.341   5.217   6.256
26083WAT      O78490   8.514   6.349   0.444
26083WAT     H178491   8.607   6.384   0.444
26083WAT     H278492   8.450   6.425   0.458
26084WAT      O78493   5.037   0.847   0.720
26084WAT     H178494   5.022   0.861   0.623
26084WAT     H278495   5.131   0.815   0.736
26085WAT      O78496   0.771   6.817   8.544
26085WAT     H178497   0.827   6.778   8.471
26085WAT     H278498   0.734   6.904   8.514
26086WAT      O78499   3.642   7.705   1.236
26086WAT     H178500   3.682   7.721   1.146
26086WAT     H278501   3.597   7.788   1.268
26087WAT      O78502   9.102   5.331   4.651
26087WAT     H178503   9.087   5.347   4.554
26087WAT     H278504   9.196   5.356   4.675
26088WAT      O78505   5.868   6.061   3.055
26088WAT     H178506   5.909   6.066   2.965
26088WAT     H278507   5.768   6.053   3.046
26089WAT      O78508   5.414   4.319   5.009
26089WAT     H178509   5.450   4.401   4.965
26089WAT     H278510   5.488   4.255   5.027
26090WAT      O78511   2.963   1.279   1.591
26090WAT     H178512   2.885   1.265   1.651
26090WAT     H278513   3.024   1.348   1.630
26091WAT      O78514   9.297   7.283   6.942
26091WAT     H178515   9.281   7.242   6.852
26091WAT     H278516   9.264   7.378   6.942
26092WAT      O78517   7.209   8.857   8.145
26092WAT     H178518   7.166   8.767   8.153
26092WAT     H278519   7.257   8.864   8.058
26093WAT      O78520   9.793   4.911   6.506
26093WAT     H178521   9.861   4.846   6.542
26093WAT     H278522   9.840   4.988   6.464
26094WAT      O78523   2.624   0.736   8.806
26094WAT     H178524   2.676   0.789   8.873
26094WAT     H278525   2.545   0.789   8.776
26095WAT      O78526   7.508   7.692   9.637
26095WAT     H178527   7.590   7.670   9.689
26095WAT     H278528   7.493   7.791   9.638
26096WAT      O78529   3.090   5.548   2.949
26096WAT     H178530   3.154   5.516   2.879
26096WAT     H278531   3.104   5.646   2.965
26097WAT      O78532   3.166   0.949   6.981
26097WAT     H178533   3.136   0.947   6.886
26097WAT     H278534   3.094   0.988   7.038
26098WAT      O78535   8.366   4.461   7.891
26098WAT     H178536   8.374   4.560   7.908
26098WAT     H278537   8.454   4.426   7.859
26099WAT      O78538   8.320   0.565   3.498
26099WAT     H178539   8.319   0.520   3.588
26099WAT     H278540   8.232   0.552   3.454
26100WAT      O78541   0.289   0.345   7.127
26100WAT     H178542   0.199   0.310   7.100
26100WAT     H278543   0.350   0.269   7.146
26101WAT      O78544   7.826   3.984   7.406
26101WAT     H178545   7.836   4.048   7.330
26101WAT     H278546   7.732   3.985   7.440
26102WAT      O78547   6.231   5.510   8.001
26102WAT     H178548   6.155   5.570   8.025
26102WAT     H278549   6.309   5.528   8.061
26103WAT      O78550   7.180   1.915   2.123
26103WAT     H178551   7.087   1.950   2.131
26103WAT     H278552   7.230   1.932   2.208
26104WAT      O78553   7.574   2.535   7.869
26104WAT     H178554   7.528   2.623   7.875
26104WAT     H278555   7.579   2.506   7.773
26105WAT      O78556   5.692   9.524   2.886
26105WAT     H178557   5.606   9.573   2.870
26105WAT     H278558   5.709   9.517   2.984
26106WAT      O78559   2.418   8.529   1.614
26106WAT     H178560   2.483   8.557   1.685
26106WAT     H278561   2.381   8.439   1.638
26107WAT      O78562   4.263   2.620   1.291
26107WAT     H178563   4.305   2.582   1.373
26107WAT     H278564   4.334   2.653   1.229
26108WAT      O78565   5.189   7.068   9.804
26108WAT     H178566   5.253   7.113   9.742
26108WAT     H278567   5.105   7.121   9.810
26109WAT      O78568   3.844   9.084   9.228
26109WAT     H178569   3.773   9.050   9.289
26109WAT     H278570   3.842   9.184   9.229
26110WAT      O78571   5.389   9.567   7.277
26110WAT     H178572   5.306   9.554   7.223
26110WAT     H278573   5.370   9.628   7.353
26111WAT      O78574   8.005   0.179   9.652
26111WAT     H178575   8.002   0.276   9.677
26111WAT     H278576   8.098   0.155   9.624
26112WAT      O78577   4.071   4.447   1.084
26112WAT     H178578   4.020   4.518   1.035
26112WAT     H278579   4.012   4.367   1.097
26113WAT      O78580   2.315   6.807   0.137
26113WAT     H178581   2.342   6.723   0.089
26113WAT     H278582   2.264   6.782   0.220
26114WAT      O78583   8.802   5.610   7.816
26114WAT     H178584   8.846   5.659   7.740
26114WAT     H278585   8.795   5.513   7.792
26115WAT      O78586   8.988   3.184   5.450
26115WAT     H178587   8.958   3.118   5.518
26115WAT     H278588   8.977   3.277   5.485
26116WAT      O78589   5.558   4.062   3.637
26116WAT     H178590   5.496   4.118   3.693
26116WAT     H278591   5.602   4.120   3.569
26117WAT      O78592   4.625   4.599   5.971
26117WAT     H178593   4.603   4.521   5.912
26117WAT     H278594   4.693   4.657   5.925
26118WAT      O78595   6.495   1.587   0.815
26118WAT     H178596   6.462   1.493   0.806
26118WAT     H278597   6.591   1.586   0.840
26119WAT      O78598   2.658   3.181   4.403
26119WAT     H178599   2.746   3.168   4.356
26119WAT     H278600   2.642   3.103   4.464
26120WAT      O78601   3.821   8.222   6.256
26120WAT     H178602   3.792   8.305   6.208
26120WAT     H278603   3.873   8.163   6.194
26121WAT      O78604   2.955   6.349   7.147
26121WAT     H178605   2.938   6.415   7.219
26121WAT     H278606   2.964   6.396   7.059
26122WAT      O78607   6.565   9.612   1.305
26122WAT     H178608   6.567   9.620   1.405
26122WAT     H278609   6.644   9.661   1.266
26123WAT      O78610   1.604   5.238   3.798
26123WAT     H178611   1.609   5.202   3.705
26123WAT     H278612   1.683   5.297   3.816
26124WAT      O78613   4.392   9.179   1.476
26124WAT     H178614   4.396   9.241   1.554
26124WAT     H278615   4.484   9.151   1.450
26125WAT      O78616   4.038   3.091   9.236
26125WAT     H178617   4.060   3.164   9.171
26125WAT     H278618   4.001   3.013   9.186
26126WAT      O78619   3.526   3.816   1.960
26126WAT     H178620   3.541   3.909   1.995
26126WAT     H278621   3.429   3.795   1.963
26127WAT      O78622   2.981   0.103   7.392
26127WAT     H178623   2.940   0.113   7.482
26127WAT     H278624   2.912   0.073   7.326
26128WAT      O78625   4.383   0.209   6.951
26128WAT     H178626   4.311   0.195   7.020
26128WAT     H278627   4.420   0.120   6.923
26129WAT      O78628   2.385   3.844   1.282
26129WAT     H178629   2.439   3.924   1.258
26129WAT     H278630   2.328   3.865   1.362
26130WAT      O78631   4.826   8.111   2.790
26130WAT     H178632   4.757   8.039   2.797
26130WAT     H278633   4.896   8.098   2.860
26131WAT      O78634   0.699   4.349   4.234
26131WAT     H178635   0.683   4.394   4.322
26131WAT     H278636   0.680   4.415   4.160
26132WAT      O78637   9.566   3.292   0.312
26132WAT     H178638   9.585   3.214   0.252
26132WAT     H278639   9.651   3.337   0.337
26133WAT      O78640   5.570   7.231   2.236
26133WAT     H178641   5.657   7.232   2.186
26133WAT     H278642   5.589   7.239   2.334
26134WAT      O78643   1.888   6.384   6.090
26134WAT     H178644   1.957   6.312   6.088
26134WAT     H278645   1.892   6.437   6.006
26135WAT      O78646   4.869   7.225   6.638
26135WAT     H178647   4.806   7.295   6.672
26135WAT     H278648   4.940   7.269   6.582
26136WAT      O78649   9.228   0.315   6.932
26136WAT     H178650   9.226   0.295   7.030
26136WAT     H278651   9.322   0.338   6.904
26137WAT      O78652   9.078   3.141   0.339
26137WAT     H178653   9.026   3.143   0.424
26137WAT     H278654   9.037   3.074   0.276
26138WAT      O78655   8.715   3.045   8.710
26138WAT     H178656   8.690   2.963   8.657
26138WAT     H278657   8.644   3.065   8.777
26139WAT      O78658   9.267   1.193   1.799
26139WAT     H178659   9.299   1.127   1.732
26139WAT     H278660   9.268   1.285   1.759
26140WAT      O78661   0.617   1.701   1.843
26140WAT     H178662   0.628   1.800   1.830
26140WAT     H278663   0.702   1.662   1.879
26141WAT      O78664   6.300   9.686   5.689
26141WAT     H178665   6.278   9.591   5.712
26141WAT     H278666   6.363   9.722   5.758
26142WAT      O78667   0.314   1.923   8.182
26142WAT     H178668   0.404   1.880   8.178
26142WAT     H278669   0.254   1.881   8.115
26143WAT      O78670   4.134   2.665   6.175
26143WAT     H178671   4.215   2.657   6.232
26143WAT     H278672   4.139   2.749   6.121
26144WAT      O78673   1.231   6.949   7.488
26144WAT     H178674   1.245   6.947   7.587
26144WAT     H278675   1.185   6.864   7.459
26145WAT      O78676   1.719   7.922   4.225
26145WAT     H178677   1.814   7.930   4.255
26145WAT     H278678   1.702   7.828   4.195
26146WAT      O78679   2.562   5.175   6.063
26146WAT     H178680   2.586   5.251   6.003
26146WAT     H278681   2.541   5.211   6.155
26147WAT      O78682   6.545   0.118   5.837
26147WAT     H178683   6.541   0.025   5.874
26147WAT     H278684   6.579   0.114   5.743
26148WAT      O78685   0.924   2.616   4.266
26148WAT     H178686   0.831   2.578   4.268
26148WAT     H278687   0.954   2.633   4.360
26149WAT      O78688   8.811   0.084   6.436
26149WAT     H178689   8.728   0.060   6.485
26149WAT     H278690   8.867   0.001   6.424
26150WAT      O78691   6.971   2.811   9.593
26150WAT     H178692   6.872   2.823   9.602
26150WAT     H278693   6.992   2.772   9.504
26151WAT      O78694   5.052   7.623   4.904
26151WAT     H178695   4.985   7.550   4.889
26151WAT     H278696   5.004   7.709   4.922
26152WAT      O78697   6.228   3.246   4.309
26152WAT     H178698   6.211   3.205   4.219
26152WAT     H278699   6.183   3.336   4.313
26153WAT      O78700   0.418   3.813   4.966
26153WAT     H178701   0.397   3.723   5.004
26153WAT     H278702   0.412   3.809   4.866
26154WAT      O78703   5.272   5.588   1.306
26154WAT     H178704   5.289   5.670   1.361
26154WAT     H278705   5.240   5.616   1.215
26155WAT      O78706   0.634   1.025   8.435
26155WAT     H178707   0.656   1.122   8.420
26155WAT     H278708   0.718   0.976   8.460
26156WAT      O78709   4.039   4.111   5.372
26156WAT     H178710   4.027   4.065   5.461
26156WAT     H278711   3.965   4.177   5.359
26157WAT      O78712   1.691   7.142   3.985
26157WAT     H178713   1.750   7.075   4.030
26157WAT     H278714   1.747   7.206   3.933
26158WAT      O78715   0.924   5.256   7.240
26158WAT     H178716   0.880   5.208   7.163
26158WAT     H278717   0.996   5.199   7.278
26159WAT      O78718   3.722   7.207   9.445
26159WAT     H178719   3.775   7.215   9.530
26159WAT     H278720   3.785   7.212   9.367
26160WAT      O78721   0.160   6.697   7.973
26160WAT     H178722   0.084   6.715   7.911
26160WAT     H278723   0.133   6.724   8.066
26161WAT      O78724   9.018   5.909   3.823
26161WAT     H178725   8.942   5.966   3.792
26161WAT     H278726   9.000   5.878   3.916
26162WAT      O78727   0.482   8.899   6.227
26162WAT     H178728   0.511   8.875   6.134
26162WAT     H278729   0.480   8.816   6.284
26163WAT      O78730   8.432   1.787   6.445
26163WAT     H178731   8.405   1.844   6.523
26163WAT     H278732   8.491   1.713   6.477
26164WAT      O78733   7.670   8.492   8.523
26164WAT     H178734   7.716   8.408   8.551
26164WAT     H278735   7.721   8.571   8.557
26165WAT      O78736   2.821   5.889   5.935
26165WAT     H178737   2.883   5.923   5.865
26165WAT     H278738   2.861   5.809   5.980
26166WAT      O78739   2.805   7.352   6.901
26166WAT     H178740   2.797   7.266   6.851
26166WAT     H278741   2.870   7.342   6.976
26167WAT      O78742   2.003   6.644   3.829
26167WAT     H178743   1.945   6.614   3.904
26167WAT     H278744   2.079   6.580   3.818
26168WAT      O78745   5.097   2.260   6.282
26168WAT     H178746   5.192   2.238   6.300
26168WAT     H278747   5.092   2.332   6.212
26169WAT      O78748   6.596   8.011   1.925
26169WAT     H178749   6.525   7.997   1.855
26169WAT     H278750   6.638   7.923   1.948
26170WAT      O78751   8.669   4.250   8.090
26170WAT     H178752   8.741   4.181   8.091
26170WAT     H278753   8.584   4.210   8.124
26171WAT      O78754   2.344   1.628   9.430
26171WAT     H178755   2.397   1.706   9.462
26171WAT     H278756   2.295   1.586   9.507
26172WAT      O78757   9.093   4.470   1.701
26172WAT     H178758   9.045   4.520   1.630
26172WAT     H278759   9.150   4.533   1.754
26173WAT      O78760   5.356   3.320   6.582
26173WAT     H178761   5.372   3.343   6.679
26173WAT     H278762   5.258   3.328   6.563
26174WAT      O78763   1.680   3.563   6.587
26174WAT     H178764   1.731   3.484   6.623
26174WAT     H278765   1.741   3.641   6.579
26175WAT      O78766   9.774   5.167   4.357
26175WAT     H178767   9.706   5.119   4.302
26175WAT     H278768   9.729   5.213   4.434
26176WAT      O78769   4.688   8.992   8.698
26176WAT     H178770   4.625   8.916   8.680
26176WAT     H278771   4.699   9.046   8.615
26177WAT      O78772   5.077   7.271   7.797
26177WAT     H178773   5.144   7.197   7.789
26177WAT     H278774   5.009   7.247   7.867
26178WAT      O78775   2.304   1.887   6.057
26178WAT     H178776   2.304   1.790   6.034
26178WAT     H278777   2.394   1.913   6.093
26179WAT      O78778   6.516   9.836   3.215
26179WAT     H178779   6.594   9.775   3.224
26179WAT     H278780   6.439   9.787   3.174
26180WAT      O78781   7.167   3.657   6.323
26180WAT     H178782   7.202   3.725   6.259
26180WAT     H278783   7.090   3.609   6.282
26181WAT      O78784   5.475   2.069   1.126
26181WAT     H178785   5.510   2.135   1.192
26181WAT     H278786   5.516   2.087   1.036
26182WAT      O78787   4.334   4.939   4.446
26182WAT     H178788   4.421   4.988   4.448
26182WAT     H278789   4.311   4.908   4.539
26183WAT      O78790   0.017   0.115   4.381
26183WAT     H178791   0.041   0.147   4.290
26183WAT     H278792   0.101   0.095   4.433
26184WAT      O78793   7.328   5.549   2.564
26184WAT     H178794   7.298   5.573   2.472
26184WAT     H278795   7.292   5.458   2.587
26185WAT      O78796   7.847   2.115   9.096
26185WAT     H178797   7.914   2.123   9.022
26185WAT     H278798   7.759   2.086   9.058
26186WAT      O78799   6.284   4.994   6.176
26186WAT     H178800   6.323   4.903   6.169
26186WAT     H278801   6.250   5.010   6.269
26187WAT      O78802   2.824   0.554   6.454
26187WAT     H178803   2.769   0.622   6.502
26187WAT     H278804   2.910   0.541   6.503
26188WAT      O78805   5.256   3.056   1.780
26188WAT     H178806   5.254   3.042   1.879
26188WAT     H278807   5.260   2.968   1.734
26189WAT      O78808   1.122   3.602   0.189
26189WAT     H178809   1.222   3.592   0.192
26189WAT     H278810   1.090   3.645   0.273
26190WAT      O78811   7.159   6.207   8.980
26190WAT     H178812   7.158   6.272   8.904
26190WAT     H278813   7.252   6.173   8.994
26191WAT      O78814   6.823   6.768   0.115
26191WAT     H178815   6.913   6.771   0.158
26191WAT     H278816   6.752   6.770   0.186
26192WAT      O78817   2.947   4.075   4.706
26192WAT     H178818   2.937   3.977   4.687
26192WAT     H278819   2.987   4.121   4.627
26193WAT      O78820   6.064   9.096   6.522
26193WAT     H178821   5.990   9.053   6.574
26193WAT     H278822   6.135   9.127   6.585
26194WAT      O78823   5.510   5.412   8.912
26194WAT     H178824   5.486   5.466   8.992
26194WAT     H278825   5.586   5.456   8.864
26195WAT      O78826   2.025   8.784   4.889
26195WAT     H178827   1.985   8.778   4.797
26195WAT     H278828   1.974   8.725   4.952
26196WAT      O78829   4.847   0.421   6.302
26196WAT     H178830   4.860   0.334   6.351
26196WAT     H278831   4.810   0.403   6.211
26197WAT      O78832   4.288   0.300   5.725
26197WAT     H178833   4.258   0.228   5.788
26197WAT     H278834   4.380   0.330   5.749
26198WAT      O78835   9.583   6.703   6.161
26198WAT     H178836   9.497   6.753   6.150
26198WAT     H278837   9.626   6.691   6.072
26199WAT      O78838   4.730   4.241   2.586
26199WAT     H178839   4.820   4.279   2.606
26199WAT     H278840   4.724   4.221   2.488
26200WAT      O78841   5.265   3.673   3.744
26200WAT     H178842   5.296   3.760   3.705
26200WAT     H278843   5.340   3.628   3.791
26201WAT      O78844   6.696   2.150   7.357
26201WAT     H178845   6.690   2.084   7.432
26201WAT     H278846   6.768   2.121   7.293
26202WAT      O78847   2.670   0.024   8.142
26202WAT     H178848   2.628   0.087   8.077
26202WAT     H278849   2.616   0.022   8.226
26203WAT      O78850   6.674   4.089   5.765
26203WAT     H178851   6.588   4.119   5.724
26203WAT     H278852   6.743   4.160   5.752
26204WAT      O78853   1.191   1.349   0.346
26204WAT     H178854   1.259   1.297   0.399
26204WAT     H278855   1.106   1.297   0.341
26205WAT      O78856   8.852   1.753   2.349
26205WAT     H178857   8.889   1.726   2.260
26205WAT     H278858   8.855   1.853   2.356
26206WAT      O78859   8.913   0.228   5.820
26206WAT     H178860   8.991   0.276   5.859
26206WAT     H278861   8.835   0.291   5.813
26207WAT      O78862   4.414   6.056   6.866
26207WAT     H178863   4.493   6.041   6.925
26207WAT     H278864   4.435   6.128   6.799
26208WAT      O78865   1.443   9.568   3.362
26208WAT     H178866   1.521   9.621   3.332
26208WAT     H278867   1.464   9.470   3.356
26209WAT      O78868   8.151   8.333   1.793
26209WAT     H178869   8.219   8.259   1.784
26209WAT     H278870   8.190   8.407   1.847
26210WAT      O78871   8.972   3.277   0.080
26210WAT     H178872   8.913   3.324   0.145
26210WAT     H278873   9.063   3.265   0.120
26211WAT      O78874   9.739   3.337   9.265
26211WAT     H178875   9.819   3.367   9.212
26211WAT     H278876   9.656   3.374   9.224
26212WAT      O78877   2.578  -0.005   1.521
26212WAT     H178878   2.505   0.057   1.549
26212WAT     H278879   2.629   0.035   1.445
26213WAT      O78880   7.727   9.234   6.394
26213WAT     H178881   7.725   9.285   6.308
26213WAT     H278882   7.762   9.142   6.377
26214WAT      O78883   1.462   7.876   6.908
26214WAT     H178884   1.560   7.887   6.925
26214WAT     H278885   1.438   7.918   6.821
26215WAT      O78886   6.454   3.732   4.076
26215WAT     H178887   6.469   3.637   4.102
26215WAT     H278888   6.357   3.755   4.086
26216WAT      O78889   2.547   9.623   3.624
26216WAT     H178890   2.577   9.708   3.668
26216WAT     H278891   2.523   9.556   3.694
26217WAT      O78892   7.857   5.002   0.344
26217WAT     H178893   7.761   4.976   0.329
26217WAT     H278894   7.873   5.093   0.307
26218WAT      O78895   9.802   6.757   7.850
26218WAT     H178896   9.718   6.762   7.903
26218WAT     H278897   9.797   6.822   7.774
26219WAT      O78898   4.628   6.120   0.745
26219WAT     H178899   4.533   6.095   0.764
26219WAT     H278900   4.649   6.100   0.650
26220WAT      O78901   5.999   3.916   7.701
26220WAT     H178902   5.946   3.991   7.738
26220WAT     H278903   5.940   3.855   7.649
26221WAT      O78904   1.145   9.733   9.713
26221WAT     H178905   1.069   9.698   9.768
26221WAT     H278906   1.231   9.719   9.764
26222WAT      O78907   3.993   7.045   6.262
26222WAT     H178908   4.050   7.115   6.220
26222WAT     H278909   3.959   6.983   6.192
26223WAT      O78910   7.575   9.576   7.715
26223WAT     H178911   7.666   9.587   7.753
26223WAT     H278912   7.513   9.645   7.754
26224WAT      O78913   9.293   0.992   6.871
26224WAT     H178914   9.376   1.030   6.830
26224WAT     H278915   9.318   0.922   6.938
26225WAT      O78916   7.589   4.352   1.922
26225WAT     H178917   7.651   4.300   1.864
26225WAT     H278918   7.633   4.436   1.952
26226WAT      O78919   4.144   8.478   8.761
26226WAT     H178920   4.204   8.417   8.812
26226WAT     H278921   4.059   8.430   8.739
26227WAT      O78922   8.023   3.488   7.490
26227WAT     H178923   8.111   3.452   7.459
26227WAT     H278924   8.009   3.579   7.451
26228WAT      O78925   7.054   9.435   2.731
26228WAT     H178926   7.069   9.527   2.696
26228WAT     H278927   7.072   9.368   2.658
26229WAT      O78928   3.155   0.035   8.481
26229WAT     H178929   3.145  -0.052   8.528
26229WAT     H278930   3.127   0.109   8.542
26230WAT      O78931   4.692   5.410   6.694
26230WAT     H178932   4.726   5.402   6.600
26230WAT     H278933   4.739   5.343   6.752
26231WAT      O78934   0.464   9.426   4.082
26231WAT     H178935   0.459   9.366   4.003
26231WAT     H278936   0.384   9.486   4.084
26232WAT      O78937   1.009   2.920   5.925
26232WAT     H178938   1.106   2.941   5.915
26232WAT     H278939   0.970   2.902   5.834
26233WAT      O78940   9.788   9.544   1.379
26233WAT     H178941   9.696   9.556   1.415
26233WAT     H278942   9.855   9.578   1.444
26234WAT      O78943   1.469   3.778   5.138
26234WAT     H178944   1.427   3.691   5.112
26234WAT     H278945   1.415   3.853   5.100
26235WAT      O78946   9.846   5.231   1.640
26235WAT     H178947   9.761   5.220   1.690
26235WAT     H278948   9.873   5.144   1.599
26236WAT      O78949   1.356   4.040   4.256
26236WAT     H178950   1.410   4.059   4.175
26236WAT     H278951   1.305   4.122   4.283
26237WAT      O78952   7.718   8.269   7.842
26237WAT     H178953   7.691   8.176   7.816
26237WAT     H278954   7.809   8.267   7.882
26238WAT      O78955   8.344   5.270   8.061
26238WAT     H178956   8.378   5.254   8.153
26238WAT     H278957   8.416   5.313   8.006
26239WAT      O78958   2.051   9.247   6.136
26239WAT     H178959   1.953   9.237   6.153
26239WAT     H278960   2.102   9.189   6.201
26240WAT      O78961   2.913   7.113   7.492
26240WAT     H178962   2.831   7.059   7.472
26240WAT     H278963   2.907   7.149   7.585
26241WAT      O78964   1.024   6.444   8.892
26241WAT     H178965   0.959   6.431   8.817
26241WAT     H278966   0.973   6.468   8.975
26242WAT      O78967   2.967   6.152   7.503
26242WAT     H178968   2.976   6.134   7.601
26242WAT     H278969   3.044   6.208   7.472
26243WAT      O78970   2.665   4.565   5.268
26243WAT     H178971   2.721   4.516   5.202
26243WAT     H278972   2.572   4.529   5.267
26244WAT      O78973   8.178   9.182   1.674
26244WAT     H178974   8.181   9.220   1.582
26244WAT     H278975   8.083   9.165   1.700
26245WAT      O78976   5.544   9.314   1.983
26245WAT     H178977   5.499   9.235   2.026
26245WAT     H278978   5.584   9.286   1.896
26246WAT      O78979   4.059   2.107   2.367
26246WAT     H178980   4.101   2.023   2.402
26246WAT     H278981   4.108   2.137   2.285
26247WAT      O78982   7.590   2.580   9.266
26247WAT     H178983   7.628   2.495   9.302
26247WAT     H278984   7.662   2.649   9.262
26248WAT      O78985   9.527   3.737   4.059
26248WAT     H178986   9.444   3.788   4.083
26248WAT     H278987   9.503   3.642   4.038
26249WAT      O78988   3.691   6.233   8.356
26249WAT     H178989   3.698   6.192   8.266
26249WAT     H278990   3.780   6.230   8.402
26250WAT      O78991   6.896   4.015   8.267
26250WAT     H178992   6.974   4.005   8.329
26250WAT     H278993   6.820   3.960   8.300
26251WAT      O78994   3.671   7.776   8.336
26251WAT     H178995   3.677   7.740   8.243
26251WAT     H278996   3.597   7.731   8.385
26252WAT      O78997   1.046   7.833   8.077
26252WAT     H178998   0.949   7.815   8.094
26252WAT     H278999   1.091   7.747   8.051
26253WAT      O79000   1.702   3.884   5.959
26253WAT     H179001   1.687   3.837   6.046
26253WAT     H279002   1.630   3.952   5.945
26254WAT      O79003   5.590   5.353   1.090
26254WAT     H179004   5.503   5.351   1.140
26254WAT     H279005   5.635   5.440   1.106
26255WAT      O79006   5.191   8.651   2.977
26255WAT     H179007   5.161   8.557   2.964
26255WAT     H279008   5.291   8.656   2.971
26256WAT      O79009   7.012   1.283   2.452
26256WAT     H179010   7.027   1.230   2.535
26256WAT     H279011   7.038   1.228   2.373
26257WAT      O79012   8.227   5.463   6.893
26257WAT     H179013   8.188   5.379   6.855
26257WAT     H279014   8.321   5.446   6.921
26258WAT      O79015   2.268   0.727   7.702
26258WAT     H179016   2.355   0.771   7.679
26258WAT     H279017   2.224   0.695   7.618
26259WAT      O79018   0.552   0.470   4.739
26259WAT     H179019   0.595   0.428   4.660
26259WAT     H279020   0.503   0.400   4.792
26260WAT      O79021   0.060   6.603   6.369
26260WAT     H179022   0.111   6.535   6.423
26260WAT     H279023  -0.023   6.562   6.333
26261WAT      O79024   1.281   7.173   2.751
26261WAT     H179025   1.228   7.257   2.748
26261WAT     H279026   1.356   7.182   2.816
26262WAT      O79027   7.762   3.748   2.539
26262WAT     H179028   7.846   3.796   2.517
26262WAT     H279029   7.762   3.658   2.495
26263WAT      O79030   4.596   7.606   5.914
26263WAT     H179031   4.539   7.659   5.977
26263WAT     H279032   4.592   7.510   5.938
26264WAT      O79033   2.263   7.209   3.645
26264WAT     H179034   2.328   7.166   3.708
26264WAT     H279035   2.217   7.285   3.691
26265WAT      O79036   9.078   3.379   4.202
26265WAT     H179037   9.089   3.308   4.271
26265WAT     H279038   9.106   3.344   4.113
26266WAT      O79039   8.450   0.806   2.190
26266WAT     H179040   8.401   0.750   2.122
26266WAT     H279041   8.413   0.786   2.281
26267WAT      O79042   2.065   0.167   8.779
26267WAT     H179043   2.127   0.245   8.775
26267WAT     H279044   2.118   0.082   8.784
26268WAT      O79045   4.107   8.428   8.009
26268WAT     H179046   4.055   8.440   7.925
26268WAT     H279047   4.123   8.331   8.026
26269WAT      O79048   7.258   9.169   1.747
26269WAT     H179049   7.302   9.119   1.821
26269WAT     H279050   7.313   9.162   1.664
26270WAT      O79051   4.702   1.905   8.993
26270WAT     H179052   4.747   1.848   8.923
26270WAT     H279053   4.686   1.850   9.075
26271WAT      O79054   6.828   7.947   9.719
26271WAT     H179055   6.831   8.046   9.713
26271WAT     H279056   6.829   7.919   9.816
26272WAT      O79057   4.678   7.048   3.936
26272WAT     H179058   4.691   7.071   4.032
26272WAT     H279059   4.610   6.975   3.928
26273WAT      O79060   7.117   8.121   8.378
26273WAT     H179061   7.168   8.176   8.444
26273WAT     H279062   7.121   8.025   8.405
26274WAT      O79063   9.317   0.847   2.621
26274WAT     H179064   9.361   0.773   2.570
26274WAT     H279065   9.384   0.890   2.681
26275WAT      O79066   4.377   7.619   7.416
26275WAT     H179067   4.385   7.625   7.515
26275WAT     H279068   4.299   7.560   7.392
26276WAT      O79069   4.077   4.955   1.187
26276WAT     H179070   4.146   5.001   1.242
26276WAT     H279071   3.986   4.985   1.215
26277WAT      O79072   4.130   6.048   5.560
26277WAT     H179073   4.082   6.062   5.647
26277WAT     H279074   4.107   6.122   5.497
26278WAT      O79075   9.117   5.711   3.147
26278WAT     H179076   9.183   5.643   3.178
26278WAT     H279077   9.123   5.792   3.205
26279WAT      O79078   4.841   4.305   9.088
26279WAT     H179079   4.844   4.288   8.989
26279WAT     H279080   4.921   4.358   9.115
26280WAT      O79081   0.219   1.161   8.568
26280WAT     H179082   0.254   1.254   8.562
26280WAT     H279083   0.120   1.163   8.578
26281WAT      O79084   5.365   3.566   6.267
26281WAT     H179085   5.293   3.626   6.235
26281WAT     H279086   5.369   3.484   6.209
26282WAT      O79087   2.962   2.926   3.193
26282WAT     H179088   2.917   2.878   3.117
26282WAT     H279089   3.007   2.859   3.252
26283WAT      O79090   6.323   5.724   0.685
26283WAT     H179091   6.286   5.638   0.651
26283WAT     H279092   6.401   5.705   0.745
26284WAT      O79093   5.254   8.272   1.330
26284WAT     H179094   5.310   8.231   1.258
26284WAT     H279095   5.185   8.332   1.289
26285WAT      O79096   9.636   0.833   0.672
26285WAT     H179097   9.693   0.765   0.626
26285WAT     H279098   9.633   0.813   0.770
26286WAT      O79099   3.470   7.525   0.889
26286WAT     H179100   3.428   7.500   0.802
26286WAT     H279101   3.569   7.528   0.878
26287WAT      O79102   2.323   8.006   8.044
26287WAT     H179103   2.240   8.056   8.067
26287WAT     H279104   2.350   8.027   7.950
26288WAT      O79105   1.075   9.062   4.206
26288WAT     H179106   1.099   8.983   4.264
26288WAT     H279107   0.981   9.090   4.226
26289WAT      O79108   3.213   6.365   0.777
26289WAT     H179109   3.169   6.452   0.799
26289WAT     H279110   3.300   6.382   0.729
26290WAT      O79111   2.872   1.882   9.475
26290WAT     H179112   2.962   1.886   9.433
26290WAT     H279113   2.802   1.891   9.405
26291WAT      O79114   9.259   7.193   5.866
26291WAT     H179115   9.312   7.108   5.870
26291WAT     H279116   9.304   7.258   5.805
26292WAT      O79117   4.536   8.884   5.051
26292WAT     H179118   4.527   8.787   5.071
26292WAT     H279119   4.556   8.896   4.954
26293WAT      O79120   2.556   2.005   4.490
26293WAT     H179121   2.600   2.087   4.528
26293WAT     H279122   2.580   1.997   4.393
26294WAT      O79123   0.729   6.304   8.705
26294WAT     H179124   0.807   6.330   8.648
26294WAT     H279125   0.751   6.221   8.756
26295WAT      O79126   4.145   8.945   3.239
26295WAT     H179127   4.233   8.984   3.213
26295WAT     H279128   4.160   8.862   3.292
26296WAT      O79129   3.040   2.691   0.942
26296WAT     H179130   3.084   2.698   0.852
26296WAT     H279131   2.956   2.636   0.934
26297WAT      O79132   9.150   7.220   8.065
26297WAT     H179133   9.171   7.302   8.012
26297WAT     H279134   9.097   7.246   8.146
26298WAT      O79135   4.648   1.990   6.742
26298WAT     H179136   4.619   2.016   6.650
26298WAT     H279137   4.571   1.949   6.791
26299WAT      O79138   3.976   9.433   3.027
26299WAT     H179139   3.929   9.375   2.960
26299WAT     H279140   3.992   9.524   2.987
26300WAT      O79141   4.402   9.811   0.422
26300WAT     H179142   4.495   9.838   0.397
26300WAT     H279143   4.384   9.839   0.516
26301WAT      O79144   9.065   1.982   9.021
26301WAT     H179145   9.129   2.037   9.074
26301WAT     H279146   9.095   1.979   8.925
26302WAT      O79147   7.774   4.299   2.259
26302WAT     H179148   7.867   4.263   2.257
26302WAT     H279149   7.709   4.223   2.264
26303WAT      O79150   5.622   2.245   5.026
26303WAT     H179151   5.643   2.177   4.956
26303WAT     H279152   5.707   2.278   5.067
26304WAT      O79153   3.262   6.475   4.570
26304WAT     H179154   3.352   6.434   4.555
26304WAT     H279155   3.246   6.487   4.668
26305WAT      O79156   8.955   2.954   0.162
26305WAT     H179157   8.969   2.964   0.064
26305WAT     H279158   8.901   2.871   0.180
26306WAT      O79159   8.928   2.358   9.013
26306WAT     H179160   8.908   2.436   9.073
26306WAT     H279161   8.937   2.275   9.067
26307WAT      O79162   0.666   2.455   6.112
26307WAT     H179163   0.633   2.414   6.027
26307WAT     H279164   0.664   2.555   6.103
26308WAT      O79165   1.145   6.973   4.108
26308WAT     H179166   1.218   6.936   4.050
26308WAT     H279167   1.069   7.002   4.050
26309WAT      O79168   5.033   0.480   1.662
26309WAT     H179169   5.067   0.419   1.590
26309WAT     H279170   5.065   0.447   1.751
26310WAT      O79171   3.036   4.262   1.716
26310WAT     H179172   2.989   4.192   1.662
26310WAT     H279173   3.114   4.221   1.762
26311WAT      O79174   9.773   3.319   7.406
26311WAT     H179175   9.692   3.366   7.441
26311WAT     H279176   9.785   3.340   7.309
26312WAT      O79177   8.887   2.566   9.182
26312WAT     H179178   8.804   2.617   9.207
26312WAT     H279179   8.968   2.618   9.209
26313WAT      O79180   9.462   4.518   6.289
26313WAT     H179181   9.530   4.581   6.328
26313WAT     H279182   9.465   4.431   6.338
26314WAT      O79183   7.295   2.980   7.231
26314WAT     H179184   7.254   2.890   7.216
26314WAT     H279185   7.394   2.974   7.222
26315WAT      O79186   3.543   9.134   5.064
26315WAT     H179187   3.575   9.194   4.991
26315WAT     H279188   3.482   9.065   5.026
26316WAT      O79189   6.642   7.256   4.137
26316WAT     H179190   6.706   7.179   4.139
26316WAT     H279191   6.678   7.327   4.076
26317WAT      O79192   7.388   2.670   5.801
26317WAT     H179193   7.399   2.634   5.893
26317WAT     H279194   7.421   2.765   5.797
26318WAT      O79195   8.476   8.232   5.455
26318WAT     H179196   8.411   8.305   5.434
26318WAT     H279197   8.430   8.161   5.508
26319WAT      O79198   8.706   8.096   7.290
26319WAT     H179199   8.693   8.030   7.364
26319WAT     H279200   8.700   8.049   7.202
26320WAT      O79201   2.742   2.870   5.737
26320WAT     H179202   2.792   2.859   5.651
26320WAT     H279203   2.649   2.901   5.717
26321WAT      O79204   1.793   9.459   2.927
26321WAT     H179205   1.802   9.493   2.834
26321WAT     H279206   1.836   9.369   2.933
26322WAT      O79207   7.407   5.371   5.891
26322WAT     H179208   7.469   5.330   5.958
26322WAT     H279209   7.332   5.416   5.938
26323WAT      O79210   4.621   4.014   7.211
26323WAT     H179211   4.544   3.989   7.269
26323WAT     H279212   4.591   4.014   7.115
26324WAT      O79213   0.455   5.886   5.024
26324WAT     H179214   0.451   5.805   5.082
26324WAT     H279215   0.547   5.924   5.026
26325WAT      O79216   0.581   2.618   2.884
26325WAT     H179217   0.594   2.521   2.902
26325WAT     H279218   0.563   2.632   2.787
26326WAT      O79219   5.451   4.098   5.297
26326WAT     H179220   5.547   4.125   5.286
26326WAT     H279221   5.430   4.086   5.394
26327WAT      O79222   0.281   3.301   4.172
26327WAT     H179223   0.362   3.253   4.138
26327WAT     H279224   0.201   3.273   4.119
26328WAT      O79225   5.415   1.902   9.057
26328WAT     H179226   5.441   1.894   9.153
26328WAT     H279227   5.372   1.818   9.027
26329WAT      O79228   5.792   1.159   5.540
26329WAT     H179229   5.696   1.143   5.518
26329WAT     H279230   5.817   1.252   5.514
26330WAT      O79231   2.511   2.528   5.916
26330WAT     H179232   2.516   2.604   5.980
26330WAT     H279233   2.416   2.513   5.889
26331WAT      O79234   8.235   5.903   4.379
26331WAT     H179235   8.330   5.934   4.382
26331WAT     H279236   8.198   5.901   4.472
26332WAT      O79237   2.968   1.576   7.289
26332WAT     H179238   3.030   1.549   7.364
26332WAT     H279239   2.879   1.601   7.327
26333WAT      O79240   6.422   7.873   7.271
26333WAT     H179241   6.419   7.855   7.173
26333WAT     H279242   6.384   7.794   7.320
26334WAT      O79243   3.630   8.433   8.527
26334WAT     H179244   3.640   8.389   8.438
26334WAT     H279245   3.618   8.531   8.515
26335WAT      O79246   7.304   5.603   7.558
26335WAT     H179247   7.363   5.529   7.528
26335WAT     H279248   7.336   5.637   7.647
26336WAT      O79249   0.538   3.411   6.029
26336WAT     H179250   0.625   3.381   5.990
26336WAT     H279251   0.530   3.376   6.123
26337WAT      O79252   4.882   7.599   6.533
26337WAT     H179253   4.794   7.553   6.520
26337WAT     H279254   4.940   7.581   6.454
26338WAT      O79255   5.222   9.669   3.853
26338WAT     H179256   5.295   9.601   3.862
26338WAT     H279257   5.181   9.685   3.943
26339WAT      O79258   3.716   0.542   8.003
26339WAT     H179259   3.640   0.597   7.968
26339WAT     H279260   3.718   0.454   7.958
26340WAT      O79261   2.689   7.017   1.438
26340WAT     H179262   2.663   6.938   1.493
26340WAT     H279263   2.619   7.088   1.448
26341WAT      O79264   7.349   0.234   8.367
26341WAT     H179265   7.342   0.227   8.268
26341WAT     H279266   7.260   0.216   8.408
26342WAT      O79267   3.736   4.725   8.193
26342WAT     H179268   3.808   4.788   8.222
26342WAT     H279269   3.721   4.657   8.264
26343WAT      O79270   1.660   0.076   6.321
26343WAT     H179271   1.660  -0.003   6.383
26343WAT     H279272   1.696   0.048   6.232
26344WAT      O79273   9.515   8.127   2.443
26344WAT     H179274   9.515   8.032   2.412
26344WAT     H279275   9.432   8.144   2.496
26345WAT      O79276   1.603   5.070   7.828
26345WAT     H179277   1.676   5.077   7.896
26345WAT     H279278   1.632   5.116   7.743
26346WAT      O79279   7.265   3.992   2.989
26346WAT     H179280   7.295   3.979   2.894
26346WAT     H279281   7.193   4.061   2.992
26347WAT      O79282   1.163   3.292   6.899
26347WAT     H179283   1.232   3.261   6.965
26347WAT     H279284   1.208   3.346   6.827
26348WAT      O79285   1.926   2.799   2.977
26348WAT     H179286   1.952   2.715   2.928
26348WAT     H279287   1.828   2.815   2.964
26349WAT      O79288   8.656   5.674   1.117
26349WAT     H179289   8.688   5.615   1.043
26349WAT     H279290   8.636   5.765   1.082
26350WAT      O79291   9.643   6.677   8.553
26350WAT     H179292   9.565   6.686   8.615
26350WAT     H279293   9.658   6.580   8.532
26351WAT      O79294   0.029   4.137   8.696
26351WAT     H179295   0.065   4.167   8.784
26351WAT     H279296   0.007   4.040   8.700
26352WAT      O79297   1.940   2.913   2.633
26352WAT     H179298   1.969   2.910   2.538
26352WAT     H279299   2.020   2.914   2.693
26353WAT      O79300   2.126   7.629   5.568
26353WAT     H179301   2.206   7.663   5.519
26353WAT     H279302   2.086   7.703   5.623
26354WAT      O79303   7.106   8.505   8.412
26354WAT     H179304   7.102   8.415   8.454
26354WAT     H279305   7.157   8.499   8.326
26355WAT      O79306   8.271   2.770   3.014
26355WAT     H179307   8.194   2.712   2.986
26355WAT     H279308   8.248   2.814   3.101
26356WAT      O79309   9.444   7.103   8.647
26356WAT     H179310   9.413   7.100   8.552
26356WAT     H279311   9.515   7.172   8.656
26357WAT      O79312   1.288   5.686   0.930
26357WAT     H179313   1.289   5.640   0.841
26357WAT     H279314   1.195   5.691   0.964
26358WAT      O79315   3.563   0.572   4.880
26358WAT     H179316   3.607   0.657   4.910
26358WAT     H279317   3.589   0.498   4.942
26359WAT      O79318   8.650   4.320   6.767
26359WAT     H179319   8.649   4.391   6.697
26359WAT     H279320   8.564   4.322   6.818
26360WAT      O79321   2.178   0.899   5.373
26360WAT     H179322   2.173   0.945   5.284
26360WAT     H279323   2.181   0.800   5.358
26361WAT      O79324   7.759   9.324   3.536
26361WAT     H179325   7.852   9.305   3.505
26361WAT     H279326   7.697   9.324   3.457
26362WAT      O79327   7.700   3.836   0.784
26362WAT     H179328   7.643   3.758   0.761
26362WAT     H279329   7.742   3.874   0.701
26363WAT      O79330   9.451   1.301   1.041
26363WAT     H179331   9.442   1.205   1.015
26363WAT     H279332   9.429   1.359   0.963
26364WAT      O79333   4.254   5.935   0.542
26364WAT     H179334   4.260   5.837   0.562
26364WAT     H279335   4.192   5.949   0.464
26365WAT      O79336   2.474   1.629   0.384
26365WAT     H179337   2.395   1.686   0.410
26365WAT     H279338   2.441   1.547   0.337
26366WAT      O79339   1.883   8.719   8.100
26366WAT     H179340   1.861   8.719   8.197
26366WAT     H279341   1.832   8.792   8.054
26367WAT      O79342   7.151   1.584   2.163
26367WAT     H179343   7.102   1.630   2.089
26367WAT     H279344   7.249   1.591   2.148
26368WAT      O79345   7.317   4.003   3.309
26368WAT     H179346   7.336   4.010   3.211
26368WAT     H279347   7.334   3.910   3.340
26369WAT      O79348   4.007   6.882   0.634
26369WAT     H179349   4.019   6.783   0.641
26369WAT     H279350   3.917   6.901   0.595
26370WAT      O79351   9.736   4.337   7.855
26370WAT     H179352   9.650   4.336   7.906
26370WAT     H279353   9.798   4.404   7.895
26371WAT      O79354   1.076   5.818   2.073
26371WAT     H179355   1.036   5.870   1.997
26371WAT     H279356   1.128   5.880   2.132
26372WAT      O79357   0.857   3.189   2.102
26372WAT     H179358   0.873   3.286   2.084
26372WAT     H279359   0.762   3.167   2.082
26373WAT      O79360   0.233   1.222   6.452
26373WAT     H179361   0.173   1.245   6.529
26373WAT     H279362   0.210   1.280   6.373
26374WAT      O79363   4.742   9.219   2.732
26374WAT     H179364   4.826   9.184   2.692
26374WAT     H279365   4.666   9.205   2.668
26375WAT      O79366   4.328   1.423   6.628
26375WAT     H179367   4.360   1.517   6.644
26375WAT     H279368   4.405   1.360   6.634
26376WAT      O79369   0.876   3.809   6.771
26376WAT     H179370   0.794   3.802   6.715
26376WAT     H279371   0.920   3.719   6.778
26377WAT      O79372   0.250   7.215   2.614
26377WAT     H179373   0.177   7.263   2.564
26377WAT     H279374   0.256   7.121   2.582
26378WAT      O79375   4.826   2.458   8.059
26378WAT     H179376   4.802   2.444   7.963
26378WAT     H279377   4.775   2.393   8.116
26379WAT      O79378   7.852   8.194   9.102
26379WAT     H179379   7.768   8.230   9.143
26379WAT     H279380   7.871   8.242   9.016
26380WAT      O79381   7.169   0.880   4.152
26380WAT     H179382   7.088   0.857   4.098
26380WAT     H279383   7.242   0.911   4.092
26381WAT      O79384   9.363   6.086   4.824
26381WAT     H179385   9.421   6.167   4.814
26381WAT     H279386   9.405   6.009   4.776
26382WAT      O79387   0.745   8.669   7.394
26382WAT     H179388   0.650   8.663   7.362
26382WAT     H279389   0.756   8.749   7.452
26383WAT      O79390   5.700   5.732   2.499
26383WAT     H179391   5.673   5.644   2.458
26383WAT     H279392   5.657   5.740   2.589
26384WAT      O79393   2.273   0.532   6.883
26384WAT     H179394   2.184   0.574   6.899
26384WAT     H279395   2.260   0.440   6.846
26385WAT      O79396   0.834   2.959   8.138
26385WAT     H179397   0.761   2.941   8.204
26385WAT     H279398   0.923   2.956   8.185
26386WAT      O79399   3.455   8.283   3.145
26386WAT     H179400   3.500   8.241   3.224
26386WAT     H279401   3.384   8.221   3.111
26387WAT      O79402   8.733   7.478   2.743
26387WAT     H179403   8.800   7.433   2.684
26387WAT     H279404   8.740   7.577   2.732
26388WAT      O79405   2.939   6.064   0.549
26388WAT     H179406   2.910   5.968   0.555
26388WAT     H279407   2.863   6.124   0.575
26389WAT      O79408   6.967   1.543   7.964
26389WAT     H179409   6.974   1.550   7.864
26389WAT     H279410   7.048   1.587   8.005
26390WAT      O79411   0.691   7.044   1.940
26390WAT     H179412   0.752   7.118   1.971
26390WAT     H279413   0.650   7.070   1.853
26391WAT      O79414   6.129   2.201   7.249
26391WAT     H179415   6.189   2.273   7.284
26391WAT     H279416   6.109   2.136   7.322
26392WAT      O79417   6.882   4.167   2.643
26392WAT     H179418   6.931   4.105   2.703
26392WAT     H279419   6.940   4.244   2.619
26393WAT      O79420   4.323   0.724   4.876
26393WAT     H179421   4.311   0.823   4.890
26393WAT     H279422   4.235   0.684   4.851
26394WAT      O79423   8.470   9.471   0.848
26394WAT     H179424   8.443   9.555   0.800
26394WAT     H279425   8.426   9.469   0.938
26395WAT      O79426   4.383   4.693   6.259
26395WAT     H179427   4.380   4.754   6.339
26395WAT     H279428   4.431   4.739   6.184
26396WAT      O79429   1.260   6.230   2.073
26396WAT     H179430   1.189   6.245   2.141
26396WAT     H279431   1.263   6.307   2.009
26397WAT      O79432   4.019   3.561   5.669
26397WAT     H179433   4.060   3.649   5.645
26397WAT     H279434   3.963   3.571   5.750
26398WAT      O79435   6.750   6.813   4.284
26398WAT     H179436   6.789   6.888   4.338
26398WAT     H279437   6.807   6.732   4.293
26399WAT      O79438   7.190   2.705   1.075
26399WAT     H179439   7.267   2.728   1.135
26399WAT     H279440   7.220   2.710   0.980
26400WAT      O79441   4.626   1.593   6.240
26400WAT     H179442   4.679   1.515   6.206
26400WAT     H279443   4.595   1.574   6.333
26401WAT      O79444   7.165   8.383   1.876
26401WAT     H179445   7.106   8.374   1.956
26401WAT     H279446   7.214   8.470   1.880
26402WAT      O79447   6.012   7.892   0.451
26402WAT     H179448   6.003   7.948   0.534
26402WAT     H279449   6.105   7.857   0.444
26403WAT      O79450   1.934   8.318   0.671
26403WAT     H179451   1.846   8.280   0.701
26403WAT     H279452   1.917   8.395   0.609
26404WAT      O79453   3.207   5.231   3.581
26404WAT     H179454   3.178   5.310   3.636
26404WAT     H279455   3.286   5.257   3.525
26405WAT      O79456   5.422   4.036   4.188
26405WAT     H179457   5.396   4.130   4.211
26405WAT     H279458   5.512   4.036   4.144
26406WAT      O79459   8.901   1.744   2.875
26406WAT     H179460   8.896   1.653   2.834
26406WAT     H279461   8.914   1.812   2.803
26407WAT      O79462   8.288   6.262   9.758
26407WAT     H179463   8.348   6.215   9.694
26407WAT     H279464   8.342   6.293   9.837
26408WAT      O79465   2.322   3.677   2.847
26408WAT     H179466   2.334   3.659   2.945
26408WAT     H279467   2.395   3.738   2.815
26409WAT      O79468   2.009   0.285   1.611
26409WAT     H179469   2.100   0.320   1.636
26409WAT     H279470   1.971   0.234   1.688
26410WAT      O79471   0.298   7.736   0.401
26410WAT     H179472   0.285   7.794   0.320
26410WAT     H279473   0.283   7.641   0.376
26411WAT      O79474   6.565   2.617   9.513
26411WAT     H179475   6.472   2.650   9.525
26411WAT     H279476   6.574   2.574   9.423
26412WAT      O79477   5.453   9.808   4.450
26412WAT     H179478   5.540   9.840   4.414
26412WAT     H279479   5.403   9.885   4.489
26413WAT      O79480   9.632   9.542   7.005
26413WAT     H179481   9.672   9.482   7.074
26413WAT     H279482   9.705   9.586   6.952
26414WAT      O79483   5.969   6.725   5.690
26414WAT     H179484   5.912   6.785   5.746
26414WAT     H279485   6.015   6.658   5.748
26415WAT      O79486   1.869   4.360   7.708
26415WAT     H179487   1.775   4.381   7.680
26415WAT     H279488   1.867   4.303   7.790
26416WAT      O79489   2.890   7.259   0.850
26416WAT     H179490   2.963   7.193   0.870
26416WAT     H279491   2.896   7.335   0.914
26417WAT      O79492   6.098   5.531   7.041
26417WAT     H179493   6.175   5.555   7.100
26417WAT     H279494   6.132   5.509   6.949
26418WAT      O79495   9.857   2.509   5.706
26418WAT     H179496   9.909   2.551   5.631
26418WAT     H279497   9.897   2.537   5.793
26419WAT      O79498   9.042   3.868   9.321
26419WAT     H179499   9.029   3.794   9.386
26419WAT     H279500   8.960   3.880   9.266
26420WAT      O79501   2.876   8.272   8.851
26420WAT     H179502   2.832   8.361   8.838
26420WAT     H279503   2.967   8.274   8.810
26421WAT      O79504   0.529   0.645   2.105
26421WAT     H179505   0.473   0.601   2.035
26421WAT     H279506   0.474   0.660   2.187
26422WAT      O79507   1.768   6.633   8.013
26422WAT     H179508   1.708   6.702   7.972
26422WAT     H279509   1.767   6.642   8.113
26423WAT      O79510   0.777   8.936   5.520
26423WAT     H179511   0.755   8.857   5.577
26423WAT     H279512   0.694   8.968   5.474
26424WAT      O79513   7.377   7.239   2.675
26424WAT     H179514   7.463   7.268   2.717
26424WAT     H279515   7.394   7.217   2.579
26425WAT      O79516   7.451   4.887   8.792
26425WAT     H179517   7.402   4.812   8.836
26425WAT     H279518   7.512   4.850   8.721
26426WAT      O79519   8.116   8.222   0.747
26426WAT     H179520   8.052   8.290   0.712
26426WAT     H279521   8.092   8.132   0.712
26427WAT      O79522   5.900   5.342   7.726
26427WAT     H179523   5.834   5.303   7.661
26427WAT     H279524   5.865   5.429   7.761
26428WAT      O79525   9.396   4.227   5.229
26428WAT     H179526   9.344   4.161   5.283
26428WAT     H279527   9.378   4.320   5.263
26429WAT      O79528   4.304   0.003   1.111
26429WAT     H179529   4.381  -0.021   1.169
26429WAT     H279530   4.332  -0.001   1.015
26430WAT      O79531   3.970   2.435   0.875
26430WAT     H179532   4.062   2.458   0.905
26430WAT     H279533   3.927   2.374   0.942
26431WAT      O79534   7.261   4.932   4.244
26431WAT     H179535   7.277   4.925   4.343
26431WAT     H279536   7.236   4.842   4.208
26432WAT      O79537   2.615   9.131   9.888
26432WAT     H179538   2.540   9.066   9.875
26432WAT     H279539   2.577   9.221   9.909
26433WAT      O79540   8.285   8.076   8.756
26433WAT     H179541   8.301   7.977   8.752
26433WAT     H279542   8.231   8.098   8.837
26434WAT      O79543   8.359   8.483   0.581
26434WAT     H179544   8.354   8.549   0.507
26434WAT     H279545   8.369   8.391   0.543
26435WAT      O79546   2.640   6.401   3.486
26435WAT     H179547   2.670   6.443   3.400
26435WAT     H279548   2.562   6.451   3.522
26436WAT      O79549   8.140   4.637   8.986
26436WAT     H179550   8.205   4.711   8.971
26436WAT     H279551   8.180   4.569   9.048
26437WAT      O79552   3.214   9.453   4.396
26437WAT     H179553   3.234   9.518   4.469
26437WAT     H279554   3.272   9.473   4.316
26438WAT      O79555   8.036   0.111   2.475
26438WAT     H179556   8.062   0.111   2.571
26438WAT     H279557   8.118   0.124   2.418
26439WAT      O79558   0.458   5.560   7.120
26439WAT     H179559   0.377   5.510   7.089
26439WAT     H279560   0.467   5.643   7.065
26440WAT      O79561   6.664   6.336   4.085
26440WAT     H179562   6.631   6.394   4.159
26440WAT     H279563   6.601   6.260   4.070
26441WAT      O79564   8.438   6.315   4.186
26441WAT     H179565   8.394   6.350   4.104
26441WAT     H279566   8.380   6.332   4.266
26442WAT      O79567   8.762   6.111   5.897
26442WAT     H179568   8.748   6.088   5.801
26442WAT     H279569   8.676   6.145   5.936
26443WAT      O79570   8.147   6.220   8.674
26443WAT     H179571   8.160   6.244   8.771
26443WAT     H279572   8.164   6.301   8.618
26444WAT      O79573   3.293   9.251   0.218
26444WAT     H179574   3.212   9.220   0.167
26444WAT     H279575   3.302   9.350   0.208
26445WAT      O79576   2.481   2.783   3.828
26445WAT     H179577   2.543   2.714   3.791
26445WAT     H279578   2.511   2.810   3.919
26446WAT      O79579   7.939   9.433   5.976
26446WAT     H179580   7.979   9.507   6.030
26446WAT     H279581   7.866   9.389   6.028
26447WAT      O79582   9.241   1.493   6.802
26447WAT     H179583   9.262   1.530   6.892
26447WAT     H279584   9.322   1.501   6.743
26448WAT      O79585   4.575   6.495   4.186
26448WAT     H179586   4.599   6.431   4.113
26448WAT     H279587   4.624   6.470   4.269
26449WAT      O79588   8.194   6.543   4.520
26449WAT     H179589   8.282   6.573   4.482
26449WAT     H279590   8.196   6.552   4.619
26450WAT      O79591   3.810   2.159   2.666
26450WAT     H179592   3.723   2.193   2.702
26450WAT     H279593   3.795   2.070   2.623
26451WAT      O79594   1.807   1.557   4.128
26451WAT     H179595   1.785   1.654   4.124
26451WAT     H279596   1.906   1.545   4.118
26452WAT      O79597   8.215   0.184   4.646
26452WAT     H179598   8.169   0.237   4.717
26452WAT     H279599   8.240   0.094   4.683
26453WAT      O79600   6.534   1.369   9.467
26453WAT     H179601   6.462   1.363   9.398
26453WAT     H279602   6.500   1.334   9.554
26454WAT      O79603   7.147   4.188   6.643
26454WAT     H179604   7.140   4.089   6.634
26454WAT     H279605   7.236   4.212   6.682
26455WAT      O79606   8.956   6.585   2.318
26455WAT     H179607   8.954   6.675   2.362
26455WAT     H279608   9.016   6.524   2.370
26456WAT      O79609   7.447   3.366   1.683
26456WAT     H179610   7.465   3.406   1.773
26456WAT     H279611   7.362   3.404   1.647
26457WAT      O79612   4.965   5.347   3.859
26457WAT     H179613   5.005   5.405   3.929
26457WAT     H279614   4.871   5.377   3.840
26458WAT      O79615   4.619   9.520   3.142
26458WAT     H179616   4.628   9.448   3.073
26458WAT     H279617   4.676   9.497   3.221
26459WAT      O79618   8.034   2.029   1.730
26459WAT     H179619   8.052   2.023   1.632
26459WAT     H279620   7.936   2.015   1.746
26460WAT      O79621   2.410   2.396   2.895
26460WAT     H179622   2.318   2.361   2.880
26460WAT     H279623   2.462   2.392   2.810
26461WAT      O79624   9.807   2.455   6.431
26461WAT     H179625   9.874   2.380   6.429
26461WAT     H279626   9.819   2.508   6.515
26462WAT      O79627   9.041   4.466   9.654
26462WAT     H179628   9.018   4.509   9.567
26462WAT     H279629   8.957   4.439   9.702
26463WAT      O79630   2.440   6.360   0.931
26463WAT     H179631   2.494   6.289   0.977
26463WAT     H279632   2.499   6.413   0.871
26464WAT      O79633   2.552   8.743   6.102
26464WAT     H179634   2.455   8.749   6.125
26464WAT     H279635   2.574   8.651   6.071
26465WAT      O79636   7.839   4.806   8.607
26465WAT     H179637   7.810   4.817   8.702
26465WAT     H279638   7.769   4.844   8.546
26466WAT      O79639   3.476   8.027   8.062
26466WAT     H179640   3.558   8.021   8.120
26466WAT     H279641   3.502   8.007   7.967
26467WAT      O79642   8.676   2.766   4.958
26467WAT     H179643   8.686   2.812   5.046
26467WAT     H279644   8.599   2.807   4.908
26468WAT      O79645   3.644   9.397   7.287
26468WAT     H179646   3.732   9.387   7.334
26468WAT     H279647   3.658   9.385   7.189
26469WAT      O79648   3.854   4.314   5.327
26469WAT     H179649   3.776   4.276   5.277
26469WAT     H279650   3.900   4.382   5.270
26470WAT      O79651   1.199   3.928   0.489
26470WAT     H179652   1.165   3.979   0.410
26470WAT     H279653   1.122   3.887   0.538
26471WAT      O79654   7.786   9.247   6.124
26471WAT     H179655   7.817   9.159   6.090
26471WAT     H279656   7.691   9.262   6.095
26472WAT      O79657   2.484   1.268   9.660
26472WAT     H179658   2.541   1.316   9.593
26472WAT     H279659   2.406   1.325   9.684
26473WAT      O79660   1.657   9.439   4.897
26473WAT     H179661   1.611   9.408   4.814
26473WAT     H279662   1.756   9.424   4.887
26474WAT      O79663   8.464   5.140   6.168
26474WAT     H179664   8.433   5.045   6.166
26474WAT     H279665   8.547   5.150   6.114
26475WAT      O79666   7.587   7.957   8.873
26475WAT     H179667   7.576   8.056   8.868
26475WAT     H279668   7.562   7.925   8.964
26476WAT      O79669   7.823   2.015   1.184
26476WAT     H179670   7.909   2.059   1.207
26476WAT     H279671   7.754   2.085   1.164
26477WAT      O79672   7.644   8.462   0.956
26477WAT     H179673   7.694   8.473   1.043
26477WAT     H279674   7.553   8.424   0.974
26478WAT      O79675   5.213   5.964   4.056
26478WAT     H179676   5.276   6.023   4.107
26478WAT     H279677   5.234   5.968   3.959
26479WAT      O79678   4.040   5.142   4.016
26479WAT     H179679   4.086   5.098   4.094
26479WAT     H279680   3.957   5.187   4.048
26480WAT      O79681   7.193   9.088   5.762
26480WAT     H179682   7.174   9.010   5.702
26480WAT     H279683   7.147   9.076   5.850
26481WAT      O79684   7.397   3.410   9.321
26481WAT     H179685   7.357   3.337   9.266
26481WAT     H279686   7.458   3.465   9.264
26482WAT      O79687   2.819   6.581   2.441
26482WAT     H179688   2.846   6.488   2.416
26482WAT     H279689   2.796   6.633   2.358
26483WAT      O79690   8.791   2.974   0.434
26483WAT     H179691   8.697   2.993   0.462
26483WAT     H279692   8.840   2.927   0.507
26484WAT      O79693   7.851   1.307   4.595
26484WAT     H179694   7.939   1.329   4.553
26484WAT     H279695   7.790   1.386   4.588
26485WAT      O79696   3.087   7.796   4.330
26485WAT     H179697   3.048   7.786   4.239
26485WAT     H279698   3.187   7.793   4.324
26486WAT      O79699   0.841   0.701   7.512
26486WAT     H179700   0.819   0.649   7.429
26486WAT     H279701   0.823   0.798   7.495
26487WAT      O79702   0.345   1.004   6.345
26487WAT     H179703   0.304   1.086   6.385
26487WAT     H279704   0.445   1.011   6.352
26488WAT      O79705   1.041   5.153   7.851
26488WAT     H179706   0.961   5.213   7.849
26488WAT     H279707   1.061   5.129   7.946
26489WAT      O79708   5.920   9.123   0.822
26489WAT     H179709   6.004   9.099   0.871
26489WAT     H279710   5.872   9.194   0.871
26490WAT      O79711   9.739   7.363   4.261
26490WAT     H179712   9.706   7.308   4.185
26490WAT     H279713   9.826   7.407   4.236
26491WAT      O79714   2.392   1.100   5.311
26491WAT     H179715   2.378   1.051   5.397
26491WAT     H279716   2.306   1.101   5.259
26492WAT      O79717   5.585   1.431   2.818
26492WAT     H179718   5.626   1.520   2.796
26492WAT     H279719   5.527   1.401   2.742
26493WAT      O79720   0.949   2.884   7.151
26493WAT     H179721   0.931   2.869   7.054
26493WAT     H279722   0.948   2.982   7.170
26494WAT      O79723   4.054   8.684   0.144
26494WAT     H179724   4.017   8.726   0.227
26494WAT     H279725   3.984   8.686   0.072
26495WAT      O79726   8.705   6.561   9.718
26495WAT     H179727   8.631   6.558   9.785
26495WAT     H279728   8.767   6.484   9.733
26496WAT      O79729   6.270   3.039   2.662
26496WAT     H179730   6.260   3.091   2.577
26496WAT     H279731   6.199   2.969   2.666
26497WAT      O79732   4.493   5.836   5.658
26497WAT     H179733   4.437   5.910   5.697
26497WAT     H279734   4.553   5.874   5.588
26498WAT      O79735   9.633   1.699   3.324
26498WAT     H179736   9.727   1.726   3.303
26498WAT     H279737   9.633   1.607   3.364
26499WAT      O79738   8.452   1.257   0.406
26499WAT     H179739   8.538   1.263   0.456
26499WAT     H279740   8.381   1.219   0.466
26500WAT      O79741   7.280   5.477   8.359
26500WAT     H179742   7.286   5.393   8.305
26500WAT     H279743   7.356   5.481   8.424
26501WAT      O79744   9.894   8.258   3.667
26501WAT     H179745   9.868   8.164   3.692
26501WAT     H279746   9.819   8.320   3.687
26502WAT      O79747   0.442   0.414   8.821
26502WAT     H179748   0.359   0.383   8.774
26502WAT     H279749   0.425   0.503   8.863
26503WAT      O79750   7.401   1.910   4.721
26503WAT     H179751   7.356   1.844   4.661
26503WAT     H279752   7.457   1.972   4.667
26504WAT      O79753   3.723   5.125   9.307
26504WAT     H179754   3.815   5.164   9.304
26504WAT     H279755   3.682   5.128   9.216
26505WAT      O79756   2.507   2.070   8.734
26505WAT     H179757   2.604   2.095   8.735
26505WAT     H279758   2.454   2.141   8.687
26506WAT      O79759   1.707   3.458   8.671
26506WAT     H179760   1.692   3.547   8.714
26506WAT     H279761   1.804   3.434   8.678
26507WAT      O79762   8.503   6.200   0.110
26507WAT     H179763   8.493   6.263   0.187
26507WAT     H279764   8.597   6.203   0.076
26508WAT      O79765   0.379   5.072   9.379
26508WAT     H179766   0.287   5.060   9.415
26508WAT     H279767   0.383   5.037   9.285
26509WAT      O79768   3.468   9.751   8.719
26509WAT     H179769   3.477   9.825   8.652
26509WAT     H279770   3.377   9.710   8.710
26510WAT      O79771   7.232   2.812   2.273
26510WAT     H179772   7.137   2.830   2.297
26510WAT     H279773   7.253   2.858   2.186
26511WAT      O79774   4.933   2.629   8.425
26511WAT     H179775   4.954   2.535   8.398
26511WAT     H279776   4.991   2.692   8.374
26512WAT      O79777   8.392   5.330   7.673
26512WAT     H179778   8.355   5.383   7.750
26512WAT     H279779   8.489   5.351   7.661
26513WAT      O79780   1.130   7.393   2.791
26513WAT     H179781   1.207   7.456   2.792
26513WAT     H279782   1.094   7.383   2.884
26514WAT      O79783   6.047   1.056   5.869
26514WAT     H179784   6.107   1.135   5.857
26514WAT     H279785   6.090   0.992   5.933
26515WAT      O79786   2.717   7.741   4.622
26515WAT     H179787   2.675   7.827   4.595
26515WAT     H279788   2.813   7.741   4.594
26516WAT      O79789   6.248   2.270   1.521
26516WAT     H179790   6.263   2.321   1.436
26516WAT     H279791   6.335   2.235   1.555
26517WAT      O79792   4.693   2.706   7.128
26517WAT     H179793   4.700   2.709   7.028
26517WAT     H279794   4.613   2.757   7.158
26518WAT      O79795   0.175   5.517   6.706
26518WAT     H179796   0.080   5.519   6.736
26518WAT     H279797   0.214   5.609   6.713
26519WAT      O79798   0.923   0.469   2.227
26519WAT     H179799   0.865   0.391   2.204
26519WAT     H279800   1.011   0.437   2.261
26520WAT      O79801   1.100   9.008   2.953
26520WAT     H179802   1.162   8.974   3.024
26520WAT     H279803   1.115   8.957   2.868
26521WAT      O79804   7.503   3.247   9.496
26521WAT     H179805   7.431   3.197   9.544
26521WAT     H279806   7.462   3.308   9.428
26522WAT      O79807   8.928   4.567   7.502
26522WAT     H179808   8.993   4.524   7.440
26522WAT     H279809   8.852   4.607   7.450
26523WAT      O79810   7.986   8.322   9.324
26523WAT     H179811   8.065   8.380   9.305
26523WAT     H279812   7.981   8.249   9.255
26524WAT      O79813   0.687   5.590   4.591
26524WAT     H179814   0.619   5.560   4.524
26524WAT     H279815   0.773   5.540   4.575
26525WAT      O79816   4.149   4.248   0.372
26525WAT     H179817   4.125   4.281   0.281
26525WAT     H279818   4.155   4.148   0.372
26526WAT      O79819   5.998   4.835   1.675
26526WAT     H179820   5.947   4.918   1.699
26526WAT     H279821   5.939   4.755   1.688
26527WAT      O79822   5.200   8.871   1.177
26527WAT     H179823   5.247   8.954   1.206
26527WAT     H279824   5.245   8.834   1.096
26528WAT      O79825   9.102   9.670   0.403
26528WAT     H179826   9.181   9.637   0.351
26528WAT     H279827   9.113   9.767   0.423
26529WAT      O79828   0.604   9.826   2.213
26529WAT     H179829   0.655   9.791   2.135
26529WAT     H279830   0.553   9.908   2.186
26530WAT      O79831   7.018   5.877   1.526
26530WAT     H179832   7.007   5.896   1.623
26530WAT     H279833   7.079   5.799   1.514
26531WAT      O79834   6.671   7.714   4.105
26531WAT     H179835   6.729   7.789   4.071
26531WAT     H279836   6.728   7.634   4.121
26532WAT      O79837   9.779   0.180   1.174
26532WAT     H179838   9.723   0.100   1.197
26532WAT     H279839   9.771   0.248   1.247
26533WAT      O79840   4.954   3.245   0.629
26533WAT     H179841   4.985   3.230   0.535
26533WAT     H279842   5.027   3.220   0.693
26534WAT      O79843   5.014   9.122   1.728
26534WAT     H179844   4.959   9.205   1.721
26534WAT     H279845   5.020   9.078   1.638
26535WAT      O79846   5.622   2.878   7.166
26535WAT     H179847   5.675   2.948   7.213
26535WAT     H279848   5.536   2.864   7.214
26536WAT      O79849   1.555   1.599   2.027
26536WAT     H179850   1.524   1.527   2.089
26536WAT     H279851   1.479   1.659   2.004
26537WAT      O79852   9.513   7.817   4.216
26537WAT     H179853   9.511   7.906   4.262
26537WAT     H279854   9.606   7.782   4.213
26538WAT      O79855   1.018   4.467   2.552
26538WAT     H179856   0.968   4.390   2.592
26538WAT     H279857   0.957   4.521   2.495
26539WAT      O79858   1.777   9.237   8.099
26539WAT     H179859   1.871   9.204   8.111
26539WAT     H279860   1.730   9.236   8.187
26540WAT      O79861   4.206   1.646   7.096
26540WAT     H179862   4.186   1.744   7.091
26540WAT     H279863   4.292   1.627   7.049
26541WAT      O79864   8.546   0.659   4.435
26541WAT     H179865   8.450   0.662   4.466
26541WAT     H279866   8.584   0.752   4.436
26542WAT      O79867   9.155   2.262   6.378
26542WAT     H179868   9.206   2.216   6.305
26542WAT     H279869   9.172   2.360   6.373
26543WAT      O79870   7.848   1.958   0.420
26543WAT     H179871   7.864   2.056   0.436
26543WAT     H279872   7.833   1.942   0.322
26544WAT      O79873   5.672   6.270   0.765
26544WAT     H179874   5.633   6.362   0.753
26544WAT     H279875   5.631   6.208   0.698
26545WAT      O79876   2.773   3.878   1.440
26545WAT     H179877   2.717   3.957   1.464
26545WAT     H279878   2.804   3.833   1.524
26546WAT      O79879   8.844   0.904   5.622
26546WAT     H179880   8.924   0.950   5.661
26546WAT     H279881   8.830   0.817   5.669
26547WAT      O79882   1.376   5.936   5.582
26547WAT     H179883   1.287   5.965   5.618
26547WAT     H279884   1.448   5.995   5.620
26548WAT      O79885   4.763   0.370   9.112
26548WAT     H179886   4.693   0.343   9.046
26548WAT     H279887   4.851   0.381   9.066
26549WAT      O79888   5.894   1.744   6.468
26549WAT     H179889   5.967   1.712   6.407
26549WAT     H279890   5.824   1.791   6.415
26550WAT      O79891   3.264   2.201   0.633
26550WAT     H179892   3.271   2.199   0.732
26550WAT     H279893   3.312   2.281   0.597
26551WAT      O79894   0.547   1.299   5.746
26551WAT     H179895   0.475   1.358   5.710
26551WAT     H279896   0.625   1.354   5.773
26552WAT      O79897   4.189   2.919   5.432
26552WAT     H179898   4.235   2.921   5.521
26552WAT     H279899   4.247   2.872   5.366
26553WAT      O79900   2.465   3.578   2.582
26553WAT     H179901   2.461   3.649   2.653
26553WAT     H279902   2.427   3.493   2.619
26554WAT      O79903   8.768   1.443   1.579
26554WAT     H179904   8.833   1.493   1.636
26554WAT     H279905   8.809   1.358   1.547
26555WAT      O79906   4.733   1.798   1.570
26555WAT     H179907   4.646   1.755   1.595
26555WAT     H279908   4.752   1.782   1.473
26556WAT      O79909   4.304   7.536   5.640
26556WAT     H179910   4.286   7.629   5.610
26556WAT     H279911   4.279   7.526   5.737
26557WAT      O79912   4.163   3.923   5.888
26557WAT     H179913   4.226   3.882   5.954
26557WAT     H279914   4.076   3.944   5.933
26558WAT      O79915   3.588   4.114   1.301
26558WAT     H179916   3.543   4.108   1.212
26558WAT     H279917   3.520   4.098   1.373
26559WAT      O79918   6.067   5.754   1.270
26559WAT     H179919   6.118   5.838   1.291
26559WAT     H279920   6.125   5.694   1.215
26560WAT      O79921   8.783   7.076   6.328
26560WAT     H179922   8.818   7.024   6.249
26560WAT     H279923   8.770   7.015   6.405
26561WAT      O79924   4.874   0.169   8.867
26561WAT     H179925   4.870   0.076   8.830
26561WAT     H279926   4.943   0.221   8.818
26562WAT      O79927   2.876   5.049   4.899
26562WAT     H179928   2.857   5.125   4.961
26562WAT     H279929   2.940   5.080   4.828
26563WAT      O79930   8.874   2.447   7.829
26563WAT     H179931   8.969   2.469   7.807
26563WAT     H279932   8.815   2.521   7.799
26564WAT      O79933   6.647   7.897   7.402
26564WAT     H179934   6.704   7.977   7.383
26564WAT     H279935   6.564   7.901   7.346
26565WAT      O79936   2.529   7.238   1.590
26565WAT     H179937   2.434   7.270   1.589
26565WAT     H279938   2.589   7.313   1.564
26566WAT      O79939   4.960   2.663   4.017
26566WAT     H179940   4.956   2.568   3.986
26566WAT     H279941   5.029   2.713   3.964
26567WAT      O79942   1.331   4.289   3.130
26567WAT     H179943   1.403   4.278   3.199
26567WAT     H279944   1.364   4.350   3.057
26568WAT      O79945   1.246   4.300   5.739
26568WAT     H179946   1.169   4.359   5.712
26568WAT     H279947   1.222   4.250   5.822
26569WAT      O79948   2.217   3.113   1.608
26569WAT     H179949   2.289   3.179   1.586
26569WAT     H279950   2.218   3.093   1.706
26570WAT      O79951   8.668   0.193   9.764
26570WAT     H179952   8.675   0.221   9.860
26570WAT     H279953   8.760   0.181   9.726
26571WAT      O79954   8.278   7.939   2.605
26571WAT     H179955   8.372   7.909   2.593
26571WAT     H279956   8.263   8.025   2.555
26572WAT      O79957   7.611   3.559   7.817
26572WAT     H179958   7.625   3.527   7.723
26572WAT     H279959   7.514   3.553   7.839
26573WAT      O79960   3.651   0.026   7.104
26573WAT     H179961   3.703  -0.050   7.066
26573WAT     H279962   3.553   0.005   7.100
26574WAT      O79963   6.186   9.630   8.821
26574WAT     H179964   6.246   9.684   8.879
26574WAT     H279965   6.208   9.533   8.832
26575WAT      O79966   9.596   7.012   3.464
26575WAT     H179967   9.552   6.953   3.531
26575WAT     H279968   9.554   7.102   3.466
26576WAT      O79969   8.033   3.026   1.136
26576WAT     H179970   8.002   3.051   1.044
26576WAT     H279971   8.111   2.963   1.129
26577WAT      O79972   4.226   0.581   2.473
26577WAT     H179973   4.196   0.621   2.560
26577WAT     H279974   4.272   0.494   2.491
26578WAT      O79975   2.047   2.343   5.037
26578WAT     H179976   2.126   2.316   4.983
26578WAT     H279977   2.072   2.422   5.095
26579WAT      O79978   7.719   3.852   6.555
26579WAT     H179979   7.757   3.784   6.493
26579WAT     H279980   7.791   3.914   6.585
26580WAT      O79981   1.230   0.434   8.121
26580WAT     H179982   1.184   0.476   8.199
26580WAT     H279983   1.279   0.504   8.069
26581WAT      O79984   3.038   8.857   9.482
26581WAT     H179985   2.986   8.919   9.423
26581WAT     H279986   3.007   8.763   9.467
26582WAT      O79987   4.676   6.605   9.618
26582WAT     H179988   4.680   6.522   9.674
26582WAT     H279989   4.656   6.683   9.677
26583WAT      O79990   3.300   7.598   9.326
26583WAT     H179991   3.250   7.551   9.399
26583WAT     H279992   3.382   7.641   9.363
26584WAT      O79993   2.834   4.362   5.138
26584WAT     H179994   2.901   4.423   5.181
26584WAT     H279995   2.825   4.279   5.193
26585WAT      O79996   2.329   3.624   1.167
26585WAT     H179997   2.235   3.629   1.202
26585WAT     H279998   2.381   3.703   1.200
26586WAT      O79999   5.614   3.336   8.306
26586WAT     H180000   5.535   3.318   8.365
26586WAT     H280001   5.684   3.266   8.322
26587WAT      O80002   0.785   8.191   2.845
26587WAT     H180003   0.768   8.259   2.917
26587WAT     H280004   0.841   8.231   2.774
26588WAT      O80005   0.045   2.464   4.237
26588WAT     H180006   0.067   2.388   4.175
26588WAT     H280007  -0.032   2.516   4.200
26589WAT      O80008   6.350   7.783   0.916
26589WAT     H180009   6.260   7.744   0.895
26589WAT     H280010   6.356   7.799   1.015
26590WAT      O80011   7.709   5.593   6.214
26590WAT     H180012   7.706   5.560   6.308
26590WAT     H280013   7.801   5.578   6.177
26591WAT      O80014   5.583   3.503   9.628
26591WAT     H180015   5.638   3.476   9.549
26591WAT     H280016   5.499   3.449   9.632
26592WAT      O80017   5.694   2.636   7.015
26592WAT     H180018   5.701   2.573   7.092
26592WAT     H280019   5.689   2.730   7.049
26593WAT      O80020   1.122   5.241   4.180
26593WAT     H180021   1.181   5.185   4.237
26593WAT     H280022   1.091   5.188   4.101
26594WAT      O80023   5.418   0.280   5.405
26594WAT     H180024   5.426   0.379   5.398
26594WAT     H280025   5.452   0.238   5.320
26595WAT      O80026   1.608   1.576   3.221
26595WAT     H180027   1.572   1.521   3.296
26595WAT     H280028   1.708   1.577   3.225
26596WAT      O80029   4.611   4.194   8.675
26596WAT     H180030   4.514   4.217   8.681
26596WAT     H280031   4.623   4.095   8.684
26597WAT      O80032   0.854   9.432   7.385
26597WAT     H180033   0.846   9.338   7.351
26597WAT     H280034   0.770   9.482   7.365
26598WAT      O80035   7.882   7.684   3.348
26598WAT     H180036   7.922   7.749   3.412
26598WAT     H280037   7.789   7.713   3.324
26599WAT      O80038   6.971   6.032   1.118
26599WAT     H180039   7.032   6.109   1.096
26599WAT     H280040   6.898   6.028   1.050
26600WAT      O80041   3.741   9.505   0.909
26600WAT     H180042   3.824   9.513   0.853
26600WAT     H280043   3.763   9.530   1.004
26601WAT      O80044   1.147   3.967   8.751
26601WAT     H180045   1.100   3.894   8.702
26601WAT     H280046   1.219   3.928   8.809
26602WAT      O80047   2.529   9.479   9.812
26602WAT     H180048   2.468   9.556   9.826
26602WAT     H280049   2.569   9.451   9.900
26603WAT      O80050   4.642   5.683   8.019
26603WAT     H180051   4.672   5.620   7.948
26603WAT     H280052   4.548   5.711   8.002
26604WAT      O80053   0.652   2.807   8.269
26604WAT     H180054   0.593   2.732   8.297
26604WAT     H280055   0.736   2.771   8.228
26605WAT      O80056   7.168   8.728   1.616
26605WAT     H180057   7.199   8.816   1.581
26605WAT     H280058   7.158   8.664   1.540
26606WAT      O80059   4.161   6.831   3.631
26606WAT     H180060   4.206   6.869   3.712
26606WAT     H280061   4.067   6.806   3.654
26607WAT      O80062   0.364   3.182   1.167
26607WAT     H180063   0.387   3.100   1.219
26607WAT     H280064   0.436   3.199   1.099
26608WAT      O80065   1.453   0.243   6.891
26608WAT     H180066   1.494   0.300   6.820
26608WAT     H280067   1.428   0.301   6.969
26609WAT      O80068   5.400   0.057   2.930
26609WAT     H180069   5.432  -0.031   2.897
26609WAT     H280070   5.328   0.091   2.869
26610WAT      O80071   5.787   9.412   4.575
26610WAT     H180072   5.849   9.350   4.528
26610WAT     H280073   5.825   9.505   4.574
26611WAT      O80074   8.389   4.743   7.908
26611WAT     H180075   8.384   4.807   7.984
26611WAT     H280076   8.450   4.779   7.837
26612WAT      O80077   2.485   6.492   2.318
26612WAT     H180078   2.472   6.584   2.355
26612WAT     H280079   2.423   6.429   2.366
26613WAT      O80080   7.392   1.706   4.071
26613WAT     H180081   7.418   1.617   4.107
26613WAT     H280082   7.297   1.726   4.097
26614WAT      O80083   1.073   0.726   2.783
26614WAT     H180084   1.145   0.766   2.840
26614WAT     H280085   0.989   0.718   2.836
26615WAT      O80086   7.837   2.406   7.243
26615WAT     H180087   7.803   2.495   7.211
26615WAT     H280088   7.935   2.413   7.262
26616WAT      O80089   1.529   3.432   4.645
26616WAT     H180090   1.540   3.512   4.586
26616WAT     H280091   1.619   3.397   4.671
26617WAT      O80092   4.939   1.190   1.425
26617WAT     H180093   4.945   1.129   1.504
26617WAT     H280094   4.890   1.274   1.451
26618WAT      O80095   7.514   2.181   4.523
26618WAT     H180096   7.606   2.180   4.563
26618WAT     H280097   7.518   2.222   4.432
26619WAT      O80098   3.168   3.530   9.255
26619WAT     H180099   3.119   3.612   9.285
26619WAT     H280100   3.102   3.464   9.219
26620WAT      O80101   5.629   8.624   5.104
26620WAT     H180102   5.618   8.634   5.203
26620WAT     H280103   5.661   8.710   5.065
26621WAT      O80104   7.493   3.827   0.523
26621WAT     H180105   7.547   3.755   0.567
26621WAT     H280106   7.540   3.859   0.441
26622WAT      O80107   2.995   8.602   8.931
26622WAT     H180108   3.073   8.560   8.885
26622WAT     H280109   2.975   8.690   8.889
26623WAT      O80110   5.412   2.383   1.971
26623WAT     H180111   5.314   2.401   1.977
26623WAT     H280112   5.455   2.402   2.059
26624WAT      O80113   2.553   1.638   8.456
26624WAT     H180114   2.602   1.573   8.399
26624WAT     H280115   2.488   1.690   8.400
26625WAT      O80116   7.283   8.795   0.292
26625WAT     H180117   7.199   8.840   0.322
26625WAT     H280118   7.275   8.696   0.306
26626WAT      O80119   0.699   6.157   4.221
26626WAT     H180120   0.744   6.219   4.158
26626WAT     H280121   0.768   6.112   4.279
26627WAT      O80122   7.848   9.275   7.524
26627WAT     H180123   7.890   9.329   7.596
26627WAT     H280124   7.773   9.222   7.562
26628WAT      O80125   1.431   7.514   4.832
26628WAT     H180126   1.429   7.466   4.920
26628WAT     H280127   1.462   7.451   4.761
26629WAT      O80128   0.557   5.968   2.379
26629WAT     H180129   0.621   5.933   2.448
26629WAT     H280130   0.573   5.922   2.292
26630WAT      O80131   0.648   5.564   0.993
26630WAT     H180132   0.709   5.519   1.058
26630WAT     H280133   0.679   5.658   0.978
26631WAT      O80134   5.756   2.678   9.483
26631WAT     H180135   5.826   2.607   9.477
26631WAT     H280136   5.800   2.768   9.482
26632WAT      O80137   5.799   3.886   5.797
26632WAT     H180138   5.826   3.894   5.701
26632WAT     H280139   5.802   3.977   5.839
26633WAT      O80140   5.455   3.775   6.027
26633WAT     H180141   5.363   3.743   6.051
26633WAT     H280142   5.494   3.826   6.103
26634WAT      O80143   9.711   7.931   6.037
26634WAT     H180144   9.717   8.030   6.025
26634WAT     H280145   9.623   7.907   6.079
26635WAT      O80146   6.719   1.647   7.764
26635WAT     H180147   6.717   1.623   7.861
26635WAT     H280148   6.800   1.703   7.745
26636WAT      O80149   6.985   3.199   3.957
26636WAT     H180150   7.022   3.256   3.883
26636WAT     H280151   6.994   3.247   4.044
26637WAT      O80152   8.214   5.935   9.628
26637WAT     H180153   8.308   5.932   9.664
26637WAT     H280154   8.201   6.019   9.575
26638WAT      O80155   3.231   8.108   3.092
26638WAT     H180156   3.207   8.027   3.037
26638WAT     H280157   3.222   8.087   3.189
26639WAT      O80158   8.788   4.765   7.810
26639WAT     H180159   8.848   4.845   7.815
26639WAT     H280160   8.832   4.694   7.756
26640WAT      O80161   6.712   4.049   4.281
26640WAT     H180162   6.625   4.013   4.247
26640WAT     H280163   6.771   3.973   4.308
26641WAT      O80164   8.051   5.992   8.586
26641WAT     H180165   8.064   6.078   8.636
26641WAT     H280166   7.981   5.938   8.633
26642WAT      O80167   4.866   7.770   8.638
26642WAT     H180168   4.850   7.867   8.655
26642WAT     H280169   4.785   7.718   8.663
26643WAT      O80170   3.987   6.328   2.079
26643WAT     H180171   4.013   6.416   2.117
26643WAT     H280172   3.900   6.299   2.118
26644WAT      O80173   4.754   8.544   4.840
26644WAT     H180174   4.721   8.592   4.758
26644WAT     H280175   4.719   8.450   4.840
26645WAT      O80176   1.240   9.462   2.123
26645WAT     H180177   1.159   9.407   2.103
26645WAT     H280178   1.322   9.405   2.117
26646WAT      O80179   6.801   9.806   4.321
26646WAT     H180180   6.771   9.901   4.316
26646WAT     H280181   6.722   9.746   4.322
26647WAT      O80182   6.672   5.593   3.446
26647WAT     H180183   6.654   5.536   3.367
26647WAT     H280184   6.740   5.663   3.423
26648WAT      O80185   6.450   9.153   1.024
26648WAT     H180186   6.516   9.226   1.041
26648WAT     H280187   6.409   9.123   1.110
26649WAT      O80188   0.682   2.139   5.756
26649WAT     H180189   0.655   2.133   5.852
26649WAT     H280190   0.603   2.167   5.700
26650WAT      O80191   0.396   7.617   3.073
26650WAT     H180192   0.323   7.572   3.022
26650WAT     H280193   0.463   7.654   3.009
26651WAT      O80194   4.371   2.214   8.246
26651WAT     H180195   4.380   2.199   8.147
26651WAT     H280196   4.309   2.291   8.262
26652WAT      O80197   6.375   1.518   1.726
26652WAT     H180198   6.277   1.519   1.744
26652WAT     H280199   6.421   1.460   1.793
26653WAT      O80200   3.153   4.818   6.542
26653WAT     H180201   3.062   4.779   6.527
26653WAT     H280202   3.153   4.870   6.627
26654WAT      O80203   8.819   8.939   4.402
26654WAT     H180204   8.915   8.960   4.415
26654WAT     H280205   8.809   8.875   4.326
26655WAT      O80206   0.270   7.507   0.264
26655WAT     H180207   0.315   7.437   0.319
26655WAT     H280208   0.179   7.474   0.238
26656WAT      O80209   1.752   6.208   1.211
26656WAT     H180210   1.797   6.285   1.165
26656WAT     H280211   1.815   6.131   1.216
26657WAT      O80212   2.360   8.619   2.576
26657WAT     H180213   2.428   8.668   2.630
26657WAT     H280214   2.321   8.680   2.508
26658WAT      O80215   3.026   6.274   8.850
26658WAT     H180216   3.097   6.231   8.793
26658WAT     H280217   3.030   6.237   8.942
26659WAT      O80218   8.141   8.166   9.581
26659WAT     H180219   8.162   8.228   9.656
26659WAT     H280220   8.075   8.209   9.520
26660WAT      O80221   5.079   3.390   8.196
26660WAT     H180222   5.106   3.351   8.284
26660WAT     H280223   4.998   3.342   8.162
26661WAT      O80224   4.436   3.956   4.784
26661WAT     H180225   4.516   3.905   4.816
26661WAT     H280226   4.355   3.925   4.834
26662WAT      O80227   4.388   5.252   0.031
26662WAT     H180228   4.306   5.217  -0.014
26662WAT     H280229   4.437   5.313  -0.032
26663WAT      O80230   3.056   7.700   0.662
26663WAT     H180231   3.046   7.604   0.636
26663WAT     H280232   2.991   7.722   0.734
26664WAT      O80233   7.955   5.732   6.929
26664WAT     H180234   7.886   5.666   6.959
26664WAT     H280235   7.989   5.783   7.008
26665WAT      O80236   1.848   6.148   6.313
26665WAT     H180237   1.760   6.159   6.358
26665WAT     H280238   1.906   6.228   6.332
26666WAT      O80239   7.246   1.571   4.374
26666WAT     H180240   7.215   1.503   4.308
26666WAT     H280241   7.205   1.553   4.463
26667WAT      O80242   2.587   6.466   4.180
26667WAT     H180243   2.668   6.517   4.151
26667WAT     H280244   2.614   6.396   4.246
26668WAT      O80245   0.088   7.195   7.405
26668WAT     H180246   0.025   7.174   7.479
26668WAT     H280247   0.070   7.134   7.327
26669WAT      O80248   3.911   6.010   9.577
26669WAT     H180249   3.976   6.076   9.539
26669WAT     H280250   3.918   6.010   9.677
26670WAT      O80251   1.763   3.766   2.456
26670WAT     H180252   1.788   3.860   2.435
26670WAT     H280253   1.801   3.741   2.546
26671WAT      O80254   8.888   1.081   7.707
26671WAT     H180255   8.871   1.128   7.621
26671WAT     H280256   8.821   1.007   7.719
26672WAT      O80257   6.790   3.937   9.289
26672WAT     H180258   6.712   3.876   9.280
26672WAT     H280259   6.772   4.022   9.239
26673WAT      O80260   2.221   2.955   6.669
26673WAT     H180261   2.238   3.040   6.718
26673WAT     H280262   2.224   2.878   6.733
26674WAT      O80263   0.364   2.965   1.374
26674WAT     H180264   0.402   2.885   1.420
26674WAT     H280265   0.349   3.038   1.441
26675WAT      O80266   8.649   7.143   1.197
26675WAT     H180267   8.607   7.229   1.227
26675WAT     H280268   8.637   7.133   1.098
26676WAT      O80269   4.585   2.067   2.409
26676WAT     H180270   4.679   2.039   2.390
26676WAT     H280271   4.537   2.084   2.323
26677WAT      O80272   1.629   1.130   8.629
26677WAT     H180273   1.553   1.195   8.631
26677WAT     H280274   1.691   1.155   8.555
26678WAT      O80275   8.735   1.819   9.752
26678WAT     H180276   8.640   1.809   9.723
26678WAT     H280277   8.757   1.748   9.819
26679WAT      O80278   4.617   2.193   2.899
26679WAT     H180279   4.646   2.268   2.840
26679WAT     H280280   4.693   2.128   2.910
26680WAT      O80281   4.869   2.637   0.843
26680WAT     H180282   4.890   2.649   0.745
26680WAT     H280283   4.886   2.723   0.891
26681WAT      O80284   3.673   0.462   1.863
26681WAT     H180285   3.639   0.553   1.837
26681WAT     H280286   3.657   0.447   1.961
26682WAT      O80287   7.675   3.779   9.654
26682WAT     H180288   7.642   3.867   9.687
26682WAT     H280289   7.667   3.775   9.554
26683WAT      O80290   2.444   7.402   1.236
26683WAT     H180291   2.420   7.491   1.197
26683WAT     H280292   2.488   7.416   1.325
26684WAT      O80293   8.451   9.241   0.512
26684WAT     H180294   8.364   9.193   0.509
26684WAT     H280295   8.441   9.330   0.468
26685WAT      O80296   9.184   9.169   8.189
26685WAT     H180297   9.175   9.096   8.256
26685WAT     H280298   9.093   9.201   8.162
26686WAT      O80299   4.649   8.078   4.494
26686WAT     H180300   4.579   8.036   4.552
26686WAT     H280301   4.616   8.081   4.400
26687WAT      O80302   9.728   3.323   2.261
26687WAT     H180303   9.791   3.255   2.223
26687WAT     H280304   9.737   3.409   2.212
26688WAT      O80305   3.634   1.889   7.350
26688WAT     H180306   3.645   1.987   7.334
26688WAT     H280307   3.614   1.872   7.446
26689WAT      O80308   8.609   6.070   8.752
26689WAT     H180309   8.629   6.122   8.835
26689WAT     H280310   8.518   6.028   8.762
26690WAT      O80311   5.881   3.362   5.661
26690WAT     H180312   5.839   3.282   5.619
26690WAT     H280313   5.951   3.399   5.600
26691WAT      O80314   0.371   9.213   8.236
26691WAT     H180315   0.297   9.261   8.188
26691WAT     H280316   0.370   9.116   8.210
26692WAT      O80317   1.721   2.194   8.064
26692WAT     H180318   1.686   2.117   8.117
26692WAT     H280319   1.762   2.160   7.980
26693WAT      O80320   2.679   2.843   2.750
26693WAT     H180321   2.655   2.904   2.674
26693WAT     H280322   2.597   2.793   2.779
26694WAT      O80323   0.304   3.791   7.994
26694WAT     H180324   0.331   3.706   7.950
26694WAT     H280325   0.318   3.784   8.093
26695WAT      O80326   6.065   1.901   0.515
26695WAT     H180327   6.031   1.935   0.603
26695WAT     H280328   6.061   1.801   0.514
26696WAT      O80329   1.700   2.689   8.851
26696WAT     H180330   1.767   2.726   8.786
26696WAT     H280331   1.743   2.617   8.905
26697WAT      O80332   2.375   0.091   3.927
26697WAT     H180333   2.389   0.083   4.025
26697WAT     H280334   2.372   0.187   3.901
26698WAT      O80335   5.009   7.719   9.610
26698WAT     H180336   5.033   7.626   9.583
26698WAT     H280337   4.916   7.720   9.648
26699WAT      O80338   5.833   4.407   7.842
26699WAT     H180339   5.902   4.479   7.857
26699WAT     H280340   5.742   4.446   7.852
26700WAT      O80341   7.723   3.522   2.390
26700WAT     H180342   7.660   3.445   2.390
26700WAT     H280343   7.817   3.488   2.394
26701WAT      O80344   1.671   8.164   3.393
26701WAT     H180345   1.757   8.166   3.341
26701WAT     H280346   1.692   8.163   3.491
26702WAT      O80347   5.848   0.053   9.363
26702WAT     H180348   5.851  -0.038   9.403
26702WAT     H280349   5.907   0.056   9.282
26703WAT      O80350   8.473   2.413   4.885
26703WAT     H180351   8.459   2.507   4.854
26703WAT     H280352   8.394   2.383   4.938
26704WAT      O80353   0.627   4.219   5.272
26704WAT     H180354   0.659   4.167   5.351
26704WAT     H280355   0.659   4.174   5.188
26705WAT      O80356   8.600   1.035   8.554
26705WAT     H180357   8.536   0.966   8.588
26705WAT     H280358   8.693   1.009   8.578
26706WAT      O80359   4.606   5.158   6.442
26706WAT     H180360   4.638   5.080   6.495
26706WAT     H280361   4.681   5.223   6.430
26707WAT      O80362   5.562   3.655   6.423
26707WAT     H180363   5.493   3.627   6.356
26707WAT     H280364   5.639   3.592   6.419
26708WAT      O80365   5.754   1.406   6.183
26708WAT     H180366   5.811   1.327   6.158
26708WAT     H280367   5.773   1.482   6.120
26709WAT      O80368   7.405   8.448   9.632
26709WAT     H180369   7.316   8.403   9.632
26709WAT     H280370   7.404   8.526   9.695
26710WAT      O80371   4.107   9.364   9.587
26710WAT     H180372   4.129   9.461   9.580
26710WAT     H280373   4.116   9.321   9.496
26711WAT      O80374   6.108   3.112   1.585
26711WAT     H180375   6.205   3.094   1.565
26711WAT     H280376   6.100   3.146   1.679
26712WAT      O80377   4.466   2.244   5.015
26712WAT     H180378   4.377   2.241   5.061
26712WAT     H280379   4.494   2.339   5.002
26713WAT      O80380   8.344   8.707   6.064
26713WAT     H180381   8.295   8.780   6.111
26713WAT     H280382   8.356   8.629   6.125
26714WAT      O80383   1.727   0.718   1.804
26714WAT     H180384   1.731   0.619   1.816
26714WAT     H280385   1.675   0.759   1.879
26715WAT      O80386   7.595   7.809   3.357
26715WAT     H180387   7.584   7.828   3.260
26715WAT     H280388   7.540   7.873   3.411
26716WAT      O80389   3.932   3.175   9.746
26716WAT     H180390   3.876   3.241   9.795
26716WAT     H280391   4.000   3.224   9.690
26717WAT      O80392   5.414   9.335   2.649
26717WAT     H180393   5.501   9.341   2.602
26717WAT     H280394   5.344   9.385   2.597
26718WAT      O80395   3.078   6.067   6.429
26718WAT     H180396   3.053   6.122   6.349
26718WAT     H280397   3.009   6.080   6.500
26719WAT      O80398   2.632   6.922   5.912
26719WAT     H180399   2.688   6.912   5.830
26719WAT     H280400   2.670   6.995   5.970
26720WAT      O80401   2.799   9.686   4.284
26720WAT     H180402   2.704   9.654   4.286
26720WAT     H280403   2.831   9.701   4.378
26721WAT      O80404   6.708   7.478   3.404
26721WAT     H180405   6.745   7.570   3.409
26721WAT     H280406   6.666   7.454   3.491
26722WAT      O80407   2.284   4.615   7.531
26722WAT     H180408   2.341   4.577   7.459
26722WAT     H280409   2.196   4.568   7.532
26723WAT      O80410   9.864   3.358   5.088
26723WAT     H180411   9.791   3.290   5.090
26723WAT     H280412   9.899   3.373   5.181
26724WAT      O80413   4.738   4.240   0.032
26724WAT     H180414   4.767   4.185  -0.046
26724WAT     H280415   4.682   4.184   0.093
26725WAT      O80416   2.257   4.481   4.515
26725WAT     H180417   2.203   4.398   4.501
26725WAT     H280418   2.343   4.458   4.560
26726WAT      O80419   7.544   7.552   3.393
26726WAT     H180420   7.451   7.553   3.430
26726WAT     H280421   7.571   7.645   3.368
26727WAT      O80422   2.380   0.797   3.393
26727WAT     H180423   2.469   0.819   3.432
26727WAT     H280424   2.389   0.724   3.325
26728WAT      O80425   1.871   5.018   3.716
26728WAT     H180426   1.859   4.942   3.653
26728WAT     H280427   1.798   5.016   3.785
26729WAT      O80428   6.506   6.727   3.332
26729WAT     H180429   6.523   6.641   3.285
26729WAT     H280430   6.493   6.710   3.429
26730WAT      O80431   6.978   3.138   3.569
26730WAT     H180432   6.998   3.040   3.579
26730WAT     H280433   6.894   3.149   3.515
26731WAT      O80434   5.958   3.735   2.469
26731WAT     H180435   5.955   3.763   2.565
26731WAT     H280436   5.884   3.779   2.419
26732WAT      O80437   6.247   8.500   2.507
26732WAT     H180438   6.242   8.412   2.460
26732WAT     H280439   6.181   8.563   2.466
26733WAT      O80440   5.928   8.443   7.763
26733WAT     H180441   5.978   8.529   7.751
26733WAT     H280442   5.922   8.396   7.675
26734WAT      O80443   5.372   2.636   6.237
26734WAT     H180444   5.299   2.646   6.170
26734WAT     H280445   5.433   2.714   6.232
26735WAT      O80446   1.641   0.651   2.911
26735WAT     H180447   1.734   0.668   2.878
26735WAT     H280448   1.644   0.623   3.007
26736WAT      O80449   8.362   4.158   4.596
26736WAT     H180450   8.308   4.143   4.678
26736WAT     H280451   8.451   4.196   4.620
26737WAT      O80452   0.869   8.668   6.943
26737WAT     H180453   0.867   8.670   7.043
26737WAT     H280454   0.848   8.759   6.908
26738WAT      O80455   8.551   6.169   3.433
26738WAT     H180456   8.585   6.081   3.468
26738WAT     H280457   8.453   6.176   3.453
26739WAT      O80458   0.977   6.615   2.577
26739WAT     H180459   1.051   6.617   2.509
26739WAT     H280460   0.967   6.705   2.618
26740WAT      O80461   1.497   0.679   0.799
26740WAT     H180462   1.441   0.733   0.861
26740WAT     H280463   1.499   0.723   0.709
26741WAT      O80464   4.490   2.151   2.160
26741WAT     H180465   4.461   2.157   2.065
26741WAT     H280466   4.542   2.233   2.185
26742WAT      O80467   8.385   0.838   8.368
26742WAT     H180468   8.346   0.905   8.431
26742WAT     H280469   8.454   0.882   8.311
26743WAT      O80470   8.901   0.631   3.132
26743WAT     H180471   8.867   0.725   3.127
26743WAT     H280472   8.951   0.618   3.217
26744WAT      O80473   5.668   0.220   3.199
26744WAT     H180474   5.709   0.306   3.168
26744WAT     H280475   5.570   0.221   3.179
26745WAT      O80476   4.597   4.437   7.310
26745WAT     H180477   4.582   4.409   7.405
26745WAT     H280478   4.662   4.374   7.267
26746WAT      O80479   5.988   7.304   9.057
26746WAT     H180480   6.081   7.280   9.083
26746WAT     H280481   5.939   7.221   9.029
26747WAT      O80482   0.051   6.564   7.709
26747WAT     H180483   0.117   6.614   7.653
26747WAT     H280484  -0.001   6.628   7.766
26748WAT      O80485   4.857   3.057   0.125
26748WAT     H180486   4.811   3.139   0.160
26748WAT     H280487   4.796   2.978   0.132
26749WAT      O80488   5.351   1.004   4.787
26749WAT     H180489   5.442   0.993   4.745
26749WAT     H280490   5.310   1.089   4.755
26750WAT      O80491   8.368   1.551   6.668
26750WAT     H180492   8.282   1.602   6.670
26750WAT     H280493   8.356   1.463   6.713
26751WAT      O80494   3.668   9.646   4.337
26751WAT     H180495   3.729   9.642   4.258
26751WAT     H280496   3.573   9.634   4.307
26752WAT      O80497   8.029   3.450   3.920
26752WAT     H180498   7.951   3.408   3.873
26752WAT     H280499   8.048   3.399   4.004
26753WAT      O80500   6.999   7.446   3.353
26753WAT     H180501   6.902   7.462   3.372
26753WAT     H280502   7.042   7.532   3.327
26754WAT      O80503   7.803   9.206   2.924
26754WAT     H180504   7.767   9.261   2.999
26754WAT     H280505   7.730   9.148   2.887
26755WAT      O80506   3.721   7.379   1.445
26755WAT     H180507   3.722   7.395   1.543
26755WAT     H280508   3.646   7.430   1.402
26756WAT      O80509   3.022   1.514   0.273
26756WAT     H180510   3.033   1.588   0.340
26756WAT     H280511   2.926   1.508   0.246
26757WAT      O80512   5.493   4.897   8.302
26757WAT     H180513   5.496   4.915   8.400
26757WAT     H280514   5.498   4.983   8.252
26758WAT      O80515   1.492   4.452   7.208
26758WAT     H180516   1.395   4.442   7.186
26758WAT     H280517   1.510   4.548   7.233
26759WAT      O80518   6.410   6.037   3.072
26759WAT     H180519   6.445   5.991   2.991
26759WAT     H280520   6.327   6.088   3.049
26760WAT      O80521   9.395   6.845   9.690
26760WAT     H180522   9.360   6.931   9.727
26760WAT     H280523   9.319   6.792   9.652
26761WAT      O80524   2.078   5.093   1.213
26761WAT     H180525   2.178   5.088   1.208
26761WAT     H280526   2.043   5.141   1.132
26762WAT      O80527   3.008   1.680   2.465
26762WAT     H180528   3.019   1.664   2.563
26762WAT     H280529   3.096   1.664   2.419
26763WAT      O80530   0.581   5.525   6.120
26763WAT     H180531   0.535   5.450   6.074
26763WAT     H280532   0.643   5.571   6.057
26764WAT      O80533   7.406   3.481   0.077
26764WAT     H180534   7.431   3.567   0.031
26764WAT     H280535   7.440   3.404   0.024
26765WAT      O80536   8.309   7.256   2.760
26765WAT     H180537   8.291   7.343   2.715
26765WAT     H280538   8.346   7.190   2.694
26766WAT      O80539   2.762   1.242   2.919
26766WAT     H180540   2.683   1.287   2.877
26766WAT     H280541   2.828   1.217   2.849
26767WAT      O80542   6.583   6.505   2.207
26767WAT     H180543   6.558   6.419   2.251
26767WAT     H280544   6.517   6.576   2.232
26768WAT      O80545   7.772   0.332   5.870
26768WAT     H180546   7.789   0.379   5.783
26768WAT     H280547   7.677   0.301   5.872
26769WAT      O80548   6.629   8.844   2.434
26769WAT     H180549   6.531   8.839   2.454
26769WAT     H280550   6.643   8.836   2.335
26770WAT      O80551   6.020   6.300   3.937
26770WAT     H180552   6.014   6.215   3.884
26770WAT     H280553   5.992   6.283   4.031
26771WAT      O80554   2.212   9.837   2.602
26771WAT     H180555   2.112   9.834   2.593
26771WAT     H280556   2.237   9.910   2.666
26772WAT      O80557   9.317   8.893   7.091
26772WAT     H180558   9.326   8.870   6.994
26772WAT     H280559   9.408   8.907   7.130
26773WAT      O80560   8.978   2.297   6.089
26773WAT     H180561   8.946   2.336   6.175
26773WAT     H280562   9.056   2.237   6.107
26774WAT      O80563   1.674   0.910   8.975
26774WAT     H180564   1.617   0.827   8.974
26774WAT     H280565   1.643   0.971   9.047
26775WAT      O80566   6.752   0.129   3.111
26775WAT     H180567   6.746   0.196   3.037
26775WAT     H280568   6.661   0.112   3.148
26776WAT      O80569   7.824   2.765   0.183
26776WAT     H180570   7.870   2.852   0.201
26776WAT     H280571   7.890   2.690   0.191
26777WAT      O80572   8.266   5.979   2.398
26777WAT     H180573   8.327   6.043   2.351
26777WAT     H280574   8.318   5.898   2.425
26778WAT      O80575   1.601   3.301   9.014
26778WAT     H180576   1.676   3.366   9.000
26778WAT     H280577   1.563   3.315   9.105
26779WAT      O80578   8.312   9.296   3.489
26779WAT     H180579   8.385   9.233   3.514
26779WAT     H280580   8.265   9.327   3.572
26780WAT      O80581   4.002   6.931   1.565
26780WAT     H180582   4.012   6.966   1.472
26780WAT     H280583   4.056   6.848   1.576
26781WAT      O80584   0.899   1.914   4.906
26781WAT     H180585   0.907   1.826   4.953
26781WAT     H280586   0.829   1.969   4.951
26782WAT      O80587   6.374   2.932   4.337
26782WAT     H180588   6.365   2.832   4.337
26782WAT     H280589   6.343   2.968   4.249
26783WAT      O80590   3.720   1.210   7.071
26783WAT     H180591   3.760   1.287   7.120
26783WAT     H280592   3.651   1.166   7.128
26784WAT      O80593   4.497   0.937   8.350
26784WAT     H180594   4.541   0.866   8.404
26784WAT     H280595   4.401   0.945   8.378
26785WAT      O80596   9.407   5.950   7.733
26785WAT     H180597   9.326   5.919   7.782
26785WAT     H280598   9.480   5.972   7.799
26786WAT      O80599   2.066   7.331   3.445
26786WAT     H180600   2.154   7.305   3.484
26786WAT     H280601   2.022   7.400   3.504
26787WAT      O80602   7.294   6.421   4.232
26787WAT     H180603   7.323   6.471   4.151
26787WAT     H280604   7.220   6.358   4.208
26788WAT      O80605   9.652   3.608   3.509
26788WAT     H180606   9.681   3.694   3.467
26788WAT     H280607   9.730   3.562   3.551
26789WAT      O80608   9.633   1.266   5.193
26789WAT     H180609   9.654   1.173   5.223
26789WAT     H280610   9.699   1.330   5.234
26790WAT      O80611   1.058   5.858   2.821
26790WAT     H180612   1.043   5.955   2.802
26790WAT     H280613   0.971   5.815   2.846
26791WAT      O80614   0.974   6.056   3.992
26791WAT     H180615   1.059   6.036   4.039
26791WAT     H280616   0.971   6.007   3.905
26792WAT      O80617   3.449   6.827   8.698
26792WAT     H180618   3.543   6.860   8.696
26792WAT     H280619   3.386   6.903   8.684
26793WAT      O80620   3.914   9.397   1.419
26793WAT     H180621   3.921   9.401   1.320
26793WAT     H280622   3.826   9.358   1.446
26794WAT      O80623   6.349   4.699   2.650
26794WAT     H180624   6.344   4.639   2.570
26794WAT     H280625   6.274   4.677   2.713
26795WAT      O80626   1.418   2.751   8.860
26795WAT     H180627   1.374   2.791   8.780
26795WAT     H280628   1.517   2.746   8.845
26796WAT      O80629   7.426   7.308   5.403
26796WAT     H180630   7.424   7.228   5.343
26796WAT     H280631   7.339   7.357   5.397
26797WAT      O80632   7.859   5.330   7.197
26797WAT     H180633   7.848   5.425   7.223
26797WAT     H280634   7.791   5.306   7.128
26798WAT      O80635   1.384   4.987   1.106
26798WAT     H180636   1.385   5.050   1.028
26798WAT     H280637   1.407   5.036   1.190
26799WAT      O80638   6.518   9.455   7.813
26799WAT     H180639   6.519   9.549   7.847
26799WAT     H280640   6.489   9.393   7.886
26800WAT      O80641   8.976   4.431   6.057
26800WAT     H180642   8.892   4.418   6.005
26800WAT     H280643   8.966   4.511   6.117
26801WAT      O80644   1.064   0.176   1.330
26801WAT     H180645   1.046   0.274   1.335
26801WAT     H280646   1.154   0.157   1.369
26802WAT      O80647   7.952   4.478   2.773
26802WAT     H180648   7.884   4.531   2.724
26802WAT     H280649   7.915   4.450   2.862
26803WAT      O80650   8.702   2.764   3.458
26803WAT     H180651   8.655   2.802   3.379
26803WAT     H280652   8.792   2.806   3.467
26804WAT      O80653   3.979   9.719   2.322
26804WAT     H180654   3.915   9.669   2.380
26804WAT     H280655   4.057   9.660   2.301
26805WAT      O80656   0.806   7.876   9.298
26805WAT     H180657   0.782   7.927   9.380
26805WAT     H280658   0.768   7.784   9.303
26806WAT      O80659   6.054   6.754   8.879
26806WAT     H180660   6.018   6.662   8.860
26806WAT     H280661   6.109   6.751   8.963
26807WAT      O80662   8.549   9.232   7.577
26807WAT     H180663   8.517   9.224   7.672
26807WAT     H280664   8.542   9.327   7.547
26808WAT      O80665   4.300   0.998   5.925
26808WAT     H180666   4.314   1.095   5.906
26808WAT     H280667   4.378   0.946   5.893
26809WAT      O80668   5.587   6.570   9.550
26809WAT     H180669   5.590   6.595   9.453
26809WAT     H280670   5.561   6.474   9.558
26810WAT      O80671   8.215   4.969   9.163
26810WAT     H180672   8.238   5.060   9.196
26810WAT     H280673   8.119   4.966   9.138
26811WAT      O80674   1.027   9.778   8.035
26811WAT     H180675   1.043   9.838   7.956
26811WAT     H280676   1.091   9.701   8.030
26812WAT      O80677   3.764   3.816   4.794
26812WAT     H180678   3.761   3.832   4.695
26812WAT     H280679   3.828   3.742   4.813
26813WAT      O80680   9.399   0.819   0.345
26813WAT     H180681   9.410   0.743   0.281
26813WAT     H280682   9.465   0.810   0.419
26814WAT      O80683   7.344   7.497   8.386
26814WAT     H180684   7.251   7.532   8.383
26814WAT     H280685   7.365   7.453   8.298
26815WAT      O80686   6.107   4.577   3.503
26815WAT     H180687   6.009   4.580   3.524
26815WAT     H280688   6.149   4.664   3.531
26816WAT      O80689   1.286   7.947   0.800
26816WAT     H180690   1.239   8.035   0.807
26816WAT     H280691   1.356   7.941   0.872
26817WAT      O80692   6.101   0.549   5.433
26817WAT     H180693   6.035   0.484   5.471
26817WAT     H280694   6.055   0.634   5.410
26818WAT      O80695   7.599   8.228   2.187
26818WAT     H180696   7.563   8.151   2.135
26818WAT     H280697   7.692   8.209   2.216
26819WAT      O80698   7.114   3.473   1.769
26819WAT     H180699   7.070   3.400   1.820
26819WAT     H280700   7.109   3.454   1.671
26820WAT      O80701   0.675   0.104   5.008
26820WAT     H180702   0.733   0.181   4.982
26820WAT     H280703   0.612   0.133   5.080
26821WAT      O80704   6.834   3.633   3.339
26821WAT     H180705   6.827   3.687   3.256
26821WAT     H280706   6.909   3.567   3.330
26822WAT      O80707   6.195   5.136   4.850
26822WAT     H180708   6.162   5.137   4.945
26822WAT     H280709   6.121   5.165   4.789
26823WAT      O80710   8.278   7.826   3.641
26823WAT     H180711   8.209   7.889   3.677
26823WAT     H280712   8.344   7.805   3.713
26824WAT      O80713   4.248   3.418   2.592
26824WAT     H180714   4.273   3.496   2.649
26824WAT     H280715   4.204   3.450   2.508
26825WAT      O80716   5.729   4.388   9.273
26825WAT     H180717   5.713   4.290   9.257
26825WAT     H280718   5.777   4.400   9.360
26826WAT      O80719   3.892   7.110   8.416
26826WAT     H180720   3.793   7.106   8.400
26826WAT     H280721   3.935   7.167   8.347
26827WAT      O80722   5.367   4.688   4.701
26827WAT     H180723   5.401   4.753   4.634
26827WAT     H280724   5.413   4.600   4.690
26828WAT      O80725   1.623   8.143   2.370
26828WAT     H180726   1.562   8.222   2.372
26828WAT     H280727   1.577   8.065   2.327
26829WAT      O80728   9.450   0.702   6.844
26829WAT     H180729   9.542   0.742   6.842
26829WAT     H280730   9.458   0.602   6.844
26830WAT      O80731   1.610   0.558   9.375
26830WAT     H180732   1.529   0.512   9.409
26830WAT     H280733   1.664   0.594   9.452
26831WAT      O80734   2.296   0.855   6.496
26831WAT     H180735   2.349   0.781   6.454
26831WAT     H280736   2.235   0.818   6.566
26832WAT      O80737   8.840   9.440   5.490
26832WAT     H180738   8.871   9.477   5.403
26832WAT     H280739   8.783   9.507   5.537
26833WAT      O80740   2.635   8.405   7.101
26833WAT     H180741   2.613   8.371   7.192
26833WAT     H280742   2.637   8.329   7.036
26834WAT      O80743   2.690   5.047   0.326
26834WAT     H180744   2.773   5.059   0.270
26834WAT     H280745   2.633   5.128   0.318
26835WAT      O80746   2.105   8.421   9.819
26835WAT     H180747   2.007   8.408   9.826
26835WAT     H280748   2.126   8.471   9.735
26836WAT      O80749   1.455   6.263   1.088
26836WAT     H180750   1.542   6.304   1.115
26836WAT     H280751   1.451   6.169   1.122
26837WAT      O80752   3.368   4.235   8.811
26837WAT     H180753   3.313   4.198   8.886
26837WAT     H280754   3.367   4.335   8.815
26838WAT      O80755   1.914   2.472   4.210
26838WAT     H180756   1.901   2.500   4.115
26838WAT     H280757   2.012   2.456   4.227
26839WAT      O80758   4.699   1.712   9.209
26839WAT     H180759   4.602   1.722   9.226
26839WAT     H280760   4.735   1.637   9.265
26840WAT      O80761   3.150   3.565   0.469
26840WAT     H180762   3.196   3.652   0.452
26840WAT     H280763   3.219   3.492   0.479
26841WAT      O80764   1.400   4.678   5.508
26841WAT     H180765   1.414   4.587   5.547
26841WAT     H280766   1.315   4.679   5.454
26842WAT      O80767   3.780   8.028   2.504
26842WAT     H180768   3.720   7.959   2.544
26842WAT     H280769   3.754   8.119   2.538
26843WAT      O80770   3.293   6.936   8.998
26843WAT     H180771   3.346   7.013   8.963
26843WAT     H280772   3.344   6.851   8.982
26844WAT      O80773   5.891   0.753   6.644
26844WAT     H180774   5.909   0.654   6.642
26844WAT     H280775   5.960   0.798   6.700
26845WAT      O80776   9.115   6.612   4.460
26845WAT     H180777   9.077   6.604   4.552
26845WAT     H280778   9.199   6.559   4.453
26846WAT      O80779   3.157   2.260   6.107
26846WAT     H180780   3.071   2.267   6.056
26846WAT     H280781   3.203   2.348   6.106
26847WAT      O80782   5.596   3.200   2.068
26847WAT     H180783   5.690   3.182   2.098
26847WAT     H280784   5.532   3.165   2.136
26848WAT      O80785   1.425   1.414   8.467
26848WAT     H180786   1.344   1.357   8.450
26848WAT     H280787   1.486   1.410   8.388
26849WAT      O80788   6.792   8.702   6.482
26849WAT     H180789   6.775   8.765   6.406
26849WAT     H280790   6.779   8.608   6.451
26850WAT      O80791   8.066   1.934   7.496
26850WAT     H180792   8.157   1.955   7.531
26850WAT     H280793   8.070   1.923   7.397
26851WAT      O80794   6.632   9.004   1.261
26851WAT     H180795   6.579   9.088   1.246
26851WAT     H280796   6.575   8.937   1.308
26852WAT      O80797   7.708   1.553   1.609
26852WAT     H180798   7.796   1.507   1.600
26852WAT     H280799   7.673   1.577   1.519
26853WAT      O80800   2.938   4.785   0.138
26853WAT     H180801   3.010   4.803   0.072
26853WAT     H280802   2.974   4.793   0.231
26854WAT      O80803   3.950   9.358   3.993
26854WAT     H180804   4.050   9.360   4.004
26854WAT     H280805   3.927   9.301   3.914
26855WAT      O80806   1.735   5.623   0.718
26855WAT     H180807   1.747   5.551   0.786
26855WAT     H280808   1.684   5.699   0.758
26856WAT      O80809   6.944   8.830   3.898
26856WAT     H180810   6.999   8.833   3.981
26856WAT     H280811   6.976   8.756   3.839
26857WAT      O80812   8.632   4.667   4.133
26857WAT     H180813   8.623   4.766   4.122
26857WAT     H280814   8.545   4.623   4.110
26858WAT      O80815   7.299   4.551   0.320
26858WAT     H180816   7.281   4.453   0.326
26858WAT     H280817   7.227   4.601   0.369
26859WAT      O80818   7.335   5.573   6.778
26859WAT     H180819   7.244   5.579   6.820
26859WAT     H280820   7.326   5.576   6.679
26860WAT      O80821   1.644   9.663   1.446
26860WAT     H180822   1.570   9.630   1.505
26860WAT     H280823   1.696   9.733   1.495
26861WAT      O80824   0.050   4.838   7.459
26861WAT     H180825  -0.006   4.893   7.521
26861WAT     H280826   0.104   4.898   7.401
26862WAT      O80827   0.835   5.959   8.190
26862WAT     H180828   0.886   6.025   8.245
26862WAT     H280829   0.811   5.879   8.246
26863WAT      O80830   4.295   4.210   3.427
26863WAT     H180831   4.199   4.216   3.453
26863WAT     H280832   4.302   4.178   3.333
26864WAT      O80833   6.285   4.154   7.423
26864WAT     H180834   6.330   4.184   7.507
26864WAT     H280835   6.228   4.073   7.442
26865WAT      O80836   7.613   5.317   7.109
26865WAT     H180837   7.558   5.262   7.172
26865WAT     H280838   7.562   5.331   7.024
26866WAT      O80839   9.053   2.547   1.156
26866WAT     H180840   9.037   2.547   1.255
26866WAT     H280841   9.021   2.460   1.118
26867WAT      O80842   9.699   7.032   8.047
26867WAT     H180843   9.797   7.033   8.024
26867WAT     H280844   9.686   6.986   8.134
26868WAT      O80845   4.590   5.834   8.651
26868WAT     H180846   4.548   5.850   8.562
26868WAT     H280847   4.591   5.919   8.704
26869WAT      O80848   5.758   2.274   5.641
26869WAT     H180849   5.666   2.236   5.649
26869WAT     H280850   5.820   2.204   5.606
26870WAT      O80851   3.135   7.630   2.659
26870WAT     H180852   3.215   7.624   2.718
26870WAT     H280853   3.052   7.616   2.713
26871WAT      O80854   1.243   6.057   0.864
26871WAT     H180855   1.294   6.084   0.946
26871WAT     H280856   1.299   5.994   0.809
26872WAT      O80857   9.599   6.576   4.946
26872WAT     H180858   9.662   6.592   5.022
26872WAT     H280859   9.623   6.638   4.870
26873WAT      O80860   4.596   0.200   1.117
26873WAT     H180861   4.600   0.156   1.028
26873WAT     H280862   4.570   0.296   1.106
26874WAT      O80863   8.271   1.492   4.085
26874WAT     H180864   8.338   1.419   4.100
26874WAT     H280865   8.274   1.522   3.990
26875WAT      O80866   6.860   3.842   1.055
26875WAT     H180867   6.784   3.794   1.100
26875WAT     H280868   6.879   3.927   1.104
26876WAT      O80869   9.668   9.207   8.605
26876WAT     H180870   9.639   9.175   8.515
26876WAT     H280871   9.766   9.187   8.617
26877WAT      O80872   3.970   9.686   6.343
26877WAT     H180873   4.011   9.777   6.337
26877WAT     H280874   3.948   9.666   6.439
26878WAT      O80875   6.093   6.247   7.858
26878WAT     H180876   6.065   6.161   7.900
26878WAT     H280877   6.056   6.253   7.765
26879WAT      O80878   8.518   6.998   4.950
26879WAT     H180879   8.556   7.089   4.966
26879WAT     H280880   8.531   6.972   4.855
26880WAT      O80881   1.728   5.075   8.633
26880WAT     H180882   1.766   5.072   8.725
26880WAT     H280883   1.792   5.120   8.571
26881WAT      O80884   7.962   0.207   1.861
26881WAT     H180885   7.867   0.205   1.830
26881WAT     H280886   7.993   0.302   1.866
26882WAT      O80887   6.786   2.230   1.677
26882WAT     H180888   6.786   2.186   1.767
26882WAT     H280889   6.748   2.322   1.686
26883WAT      O80890   7.721   1.322   3.670
26883WAT     H180891   7.641   1.371   3.635
26883WAT     H280892   7.746   1.250   3.606
26884WAT      O80893   0.723   5.798   3.710
26884WAT     H180894   0.765   5.707   3.702
26884WAT     H280895   0.626   5.792   3.685
26885WAT      O80896   6.398   6.572   4.980
26885WAT     H180897   6.412   6.486   4.932
26885WAT     H280898   6.408   6.557   5.078
26886WAT      O80899   9.703   0.732   8.396
26886WAT     H180900   9.792   0.688   8.384
26886WAT     H280901   9.662   0.701   8.482
26887WAT      O80902   8.480   6.231   6.018
26887WAT     H180903   8.420   6.286   5.961
26887WAT     H280904   8.473   6.261   6.113
26888WAT      O80905   5.446   4.586   8.329
26888WAT     H180906   5.451   4.685   8.336
26888WAT     H280907   5.350   4.557   8.337
26889WAT      O80908   9.419   7.606   4.861
26889WAT     H180909   9.405   7.699   4.895
26889WAT     H280910   9.511   7.599   4.822
26890WAT      O80911   4.312   8.020   2.817
26890WAT     H180912   4.216   8.023   2.847
26890WAT     H280913   4.370   7.989   2.893
26891WAT      O80914   1.157   3.903   7.973
26891WAT     H180915   1.076   3.960   7.957
26891WAT     H280916   1.183   3.857   7.887
26892WAT      O80917   3.260   2.527   6.069
26892WAT     H180918   3.212   2.553   5.986
26892WAT     H280919   3.357   2.517   6.051
26893WAT      O80920   9.831   1.007   0.434
26893WAT     H180921   9.735   0.999   0.460
26893WAT     H280922   9.873   1.081   0.487
26894WAT      O80923   7.593   6.963   7.367
26894WAT     H180924   7.674   7.020   7.355
26894WAT     H280925   7.601   6.910   7.452
26895WAT      O80926   5.644   1.222   3.486
26895WAT     H180927   5.564   1.253   3.436
26895WAT     H280928   5.727   1.248   3.437
26896WAT      O80929   2.768   3.915   8.371
26896WAT     H180930   2.833   3.952   8.305
26896WAT     H280931   2.759   3.816   8.357
26897WAT      O80932   7.075   7.167   1.152
26897WAT     H180933   6.983   7.129   1.158
26897WAT     H280934   7.128   7.140   1.233
26898WAT      O80935   4.903   0.984   3.983
26898WAT     H180936   4.979   1.004   3.921
26898WAT     H280937   4.937   0.935   4.063
26899WAT      O80938   7.417   0.777   2.064
26899WAT     H180939   7.496   0.798   2.007
26899WAT     H280940   7.338   0.760   2.005
26900WAT      O80941   4.247   5.655   7.186
26900WAT     H180942   4.173   5.648   7.120
26900WAT     H280943   4.268   5.751   7.204
26901WAT      O80944   7.000   7.510   5.185
26901WAT     H180945   6.926   7.496   5.119
26901WAT     H280946   6.987   7.597   5.233
26902WAT      O80947   5.675   4.560   4.054
26902WAT     H180948   5.658   4.506   3.972
26902WAT     H280949   5.623   4.522   4.131
26903WAT      O80950   9.609   0.356   8.471
26903WAT     H180951   9.673   0.410   8.526
26903WAT     H280952   9.620   0.259   8.492
26904WAT      O80953   4.122   6.502   7.271
26904WAT     H180954   4.107   6.527   7.175
26904WAT     H280955   4.201   6.553   7.306
26905WAT      O80956   4.825   5.158   6.137
26905WAT     H180957   4.847   5.112   6.051
26905WAT     H280958   4.727   5.179   6.140
26906WAT      O80959   0.820   1.687   9.542
26906WAT     H180960   0.743   1.750   9.551
26906WAT     H280961   0.878   1.716   9.465
26907WAT      O80962   6.616   7.401   3.166
26907WAT     H180963   6.676   7.437   3.237
26907WAT     H280964   6.669   7.343   3.103
26908WAT      O80965   3.064   4.423   7.886
26908WAT     H180966   3.047   4.333   7.846
26908WAT     H280967   3.052   4.417   7.986
26909WAT      O80968   5.444   4.381   8.695
26909WAT     H180969   5.474   4.381   8.600
26909WAT     H280970   5.466   4.469   8.737
26910WAT      O80971   1.723   1.977   0.317
26910WAT     H180972   1.753   2.050   0.378
26910WAT     H280973   1.626   1.991   0.294
26911WAT      O80974   3.670   4.932   4.490
26911WAT     H180975   3.722   5.016   4.503
26911WAT     H280976   3.596   4.948   4.424
26912WAT      O80977   9.344   5.451   8.951
26912WAT     H180978   9.361   5.549   8.939
26912WAT     H280979   9.301   5.415   8.869
26913WAT      O80980   7.696   5.890   5.050
26913WAT     H180981   7.792   5.905   5.072
26913WAT     H280982   7.640   5.960   5.093
26914WAT      O80983   6.873   0.089   1.984
26914WAT     H180984   6.787   0.089   2.035
26914WAT     H280985   6.868   0.020   1.912
26915WAT      O80986   6.028   4.697   2.487
26915WAT     H180987   5.967   4.757   2.538
26915WAT     H280988   6.097   4.660   2.548
26916WAT      O80989   2.128   9.148   1.680
26916WAT     H180990   2.203   9.186   1.625
26916WAT     H280991   2.147   9.052   1.700
26917WAT      O80992   0.568   6.165   1.555
26917WAT     H180993   0.478   6.144   1.594
26917WAT     H280994   0.563   6.251   1.504
26918WAT      O80995   2.404   5.143   0.560
26918WAT     H180996   2.410   5.049   0.595
26918WAT     H280997   2.419   5.143   0.461
26919WAT      O80998   1.429   5.689   5.876
26919WAT     H180999   1.496   5.757   5.906
26919WAT     H281000   1.442   5.604   5.928
26920WAT      O81001   9.739   9.118   4.230
26920WAT     H181002   9.753   9.122   4.131
26920WAT     H281003   9.827   9.126   4.277
26921WAT      O81004   9.207   9.180   8.777
26921WAT     H181005   9.283   9.240   8.751
26921WAT     H281006   9.218   9.091   8.733
26922WAT      O81007   9.613   5.999   8.552
26922WAT     H181008   9.713   5.999   8.541
26922WAT     H281009   9.584   6.087   8.587
26923WAT      O81010   6.491   4.055   1.361
26923WAT     H181011   6.436   4.014   1.288
26923WAT     H281012   6.563   3.991   1.388
26924WAT      O81013   1.129   1.944   1.453
26924WAT     H181014   1.075   1.879   1.506
26924WAT     H281015   1.087   1.956   1.362
26925WAT      O81016   0.994   2.545   8.718
26925WAT     H181017   0.915   2.495   8.754
26925WAT     H281018   1.028   2.498   8.636
26926WAT      O81019   0.127   5.780   3.109
26926WAT     H181020   0.125   5.710   3.038
26926WAT     H281021   0.034   5.803   3.136
26927WAT      O81022   5.326   0.884   7.739
26927WAT     H181023   5.256   0.818   7.766
26927WAT     H281024   5.313   0.910   7.643
26928WAT      O81025   2.911   0.838   5.287
26928WAT     H181026   2.986   0.773   5.300
26928WAT     H281027   2.934   0.899   5.211
26929WAT      O81028   0.918   1.189   0.117
26929WAT     H181029   1.011   1.159   0.097
26929WAT     H281030   0.864   1.112   0.151
26930WAT      O81031   2.900   6.649   4.581
26930WAT     H181032   2.824   6.617   4.638
26930WAT     H281033   2.943   6.571   4.536
26931WAT      O81034   8.895   1.429   9.202
26931WAT     H181035   8.897   1.429   9.302
26931WAT     H281036   8.894   1.523   9.168
26932WAT      O81037   6.908   2.855   1.864
26932WAT     H181038   7.001   2.887   1.844
26932WAT     H281039   6.843   2.928   1.846
26933WAT      O81040   6.279   0.278   1.925
26933WAT     H181041   6.240   0.284   2.016
26933WAT     H281042   6.224   0.216   1.869
26934WAT      O81043   1.478   6.764   7.997
26934WAT     H181044   1.488   6.736   8.092
26934WAT     H281045   1.392   6.728   7.960
26935WAT      O81046   2.904   5.965   8.495
26935WAT     H181047   2.815   5.957   8.541
26935WAT     H281048   2.956   5.881   8.510
26936WAT      O81049   4.492   4.850   9.112
26936WAT     H181050   4.408   4.824   9.064
26936WAT     H281051   4.560   4.778   9.101
26937WAT      O81052   8.374   7.687   7.533
26937WAT     H181053   8.440   7.758   7.555
26937WAT     H281054   8.376   7.669   7.435
26938WAT      O81055   9.446   1.437   1.949
26938WAT     H181056   9.492   1.350   1.932
26938WAT     H281057   9.442   1.454   2.048
26939WAT      O81058   5.916   6.238   0.867
26939WAT     H181059   5.911   6.281   0.957
26939WAT     H281060   5.826   6.243   0.823
26940WAT      O81061   8.886   1.274   5.216
26940WAT     H181062   8.866   1.178   5.199
26940WAT     H281063   8.924   1.316   5.133
26941WAT      O81064   5.767   6.474   9.731
26941WAT     H181065   5.845   6.537   9.724
26941WAT     H281066   5.688   6.513   9.685
26942WAT      O81067   0.369   1.560   5.940
26942WAT     H181068   0.367   1.607   6.028
26942WAT     H281069   0.301   1.600   5.879
26943WAT      O81070   6.304   3.500   0.401
26943WAT     H181071   6.386   3.505   0.459
26943WAT     H281072   6.331   3.499   0.305
26944WAT      O81073   2.667   7.716   4.135
26944WAT     H181074   2.638   7.679   4.047
26944WAT     H281075   2.767   7.709   4.143
26945WAT      O81076   8.999   4.593   2.341
26945WAT     H181077   8.945   4.536   2.280
26945WAT     H281078   8.939   4.645   2.401
26946WAT      O81079   2.459   8.405   7.584
26946WAT     H181080   2.381   8.348   7.610
26946WAT     H281081   2.443   8.499   7.613
26947WAT      O81082   5.859   0.753   5.710
26947WAT     H181083   5.892   0.745   5.803
26947WAT     H281084   5.875   0.846   5.676
26948WAT      O81085   0.165   3.320   1.763
26948WAT     H181086   0.098   3.384   1.801
26948WAT     H281087   0.182   3.344   1.667
26949WAT      O81088   0.135   0.480   9.322
26949WAT     H181089   0.160   0.493   9.227
26949WAT     H281090   0.161   0.561   9.375
26950WAT      O81091   3.967   3.087   6.387
26950WAT     H181092   3.922   3.023   6.325
26950WAT     H281093   4.058   3.108   6.353
26951WAT      O81094   7.302   9.651   9.103
26951WAT     H181095   7.239   9.574   9.102
26951WAT     H281096   7.317   9.684   9.010
26952WAT      O81097   9.054   0.685   9.103
26952WAT     H181098   8.965   0.729   9.090
26952WAT     H281099   9.076   0.631   9.021
26953WAT      O81100   2.248   0.501   1.905
26953WAT     H181101   2.245   0.600   1.886
26953WAT     H281102   2.342   0.473   1.920
26954WAT      O81103   9.147   5.859   8.066
26954WAT     H181104   9.182   5.926   8.131
26954WAT     H281105   9.220   5.794   8.043
26955WAT      O81106   2.029   6.130   2.763
26955WAT     H181107   2.042   6.156   2.667
26955WAT     H281108   1.935   6.148   2.791
26956WAT      O81109   6.447   8.037   1.462
26956WAT     H181110   6.448   7.962   1.395
26956WAT     H281111   6.519   8.103   1.439
26957WAT      O81112   1.989   7.883   8.701
26957WAT     H181113   1.957   7.914   8.791
26957WAT     H281114   2.086   7.904   8.692
26958WAT      O81115   5.886   2.860   7.399
26958WAT     H181116   5.872   2.769   7.440
26958WAT     H281117   5.803   2.914   7.410
26959WAT      O81118   4.803   9.650   1.751
26959WAT     H181119   4.845   9.679   1.837
26959WAT     H281120   4.859   9.682   1.674
26960WAT      O81121   4.088   3.836   6.464
26960WAT     H181122   4.025   3.833   6.386
26960WAT     H281123   4.101   3.744   6.501
26961WAT      O81124   1.043   8.837   3.289
26961WAT     H181125   1.126   8.805   3.244
26961WAT     H281126   1.021   8.929   3.256
26962WAT      O81127   0.775   7.560   1.331
26962WAT     H181128   0.851   7.533   1.390
26962WAT     H281129   0.748   7.482   1.275
26963WAT      O81130   7.375   8.663   2.451
26963WAT     H181131   7.312   8.606   2.399
26963WAT     H281132   7.342   8.757   2.452
26964WAT      O81133   7.328   8.073   1.483
26964WAT     H181134   7.413   8.126   1.484
26964WAT     H281135   7.347   7.978   1.509
26965WAT      O81136   3.136   3.650   5.108
26965WAT     H181137   3.049   3.621   5.069
26965WAT     H281138   3.210   3.632   5.044
26966WAT      O81139   6.215   0.273   2.183
26966WAT     H181140   6.153   0.213   2.234
26966WAT     H281141   6.304   0.276   2.228
26967WAT      O81142   2.147   0.674   5.086
26967WAT     H181143   2.201   0.745   5.041
26967WAT     H281144   2.054   0.673   5.047
26968WAT      O81145   7.744   5.547   9.775
26968WAT     H181146   7.767   5.479   9.845
26968WAT     H281147   7.823   5.563   9.716
26969WAT      O81148   0.060   5.510   1.319
26969WAT     H181149  -0.003   5.541   1.249
26969WAT     H281150   0.016   5.515   1.409
26970WAT      O81151   2.316   8.655   4.139
26970WAT     H181152   2.369   8.570   4.129
26970WAT     H281153   2.335   8.695   4.229
26971WAT      O81154   6.320   2.772   2.926
26971WAT     H181155   6.315   2.678   2.893
26971WAT     H281156   6.243   2.825   2.890
26972WAT      O81157   8.255   5.141   6.742
26972WAT     H181158   8.201   5.095   6.812
26972WAT     H281159   8.213   5.125   6.652
26973WAT      O81160   9.511   8.497   7.175
26973WAT     H181161   9.580   8.443   7.128
26973WAT     H281162   9.428   8.501   7.119
26974WAT      O81163   3.663   0.222   5.612
26974WAT     H181164   3.604   0.162   5.559
26974WAT     H281165   3.717   0.169   5.677
26975WAT      O81166   0.744   2.992   1.125
26975WAT     H181167   0.694   3.011   1.040
26975WAT     H281168   0.842   2.990   1.106
26976WAT      O81169   6.009   0.434   3.541
26976WAT     H181170   5.927   0.387   3.509
26976WAT     H281171   6.078   0.367   3.569
26977WAT      O81172   5.139   6.625   0.273
26977WAT     H181173   5.238   6.615   0.290
26977WAT     H281174   5.116   6.722   0.268
26978WAT      O81175   2.797   0.302   4.642
26978WAT     H181176   2.836   0.245   4.569
26978WAT     H281177   2.860   0.377   4.662
26979WAT      O81178   0.350   1.784   7.085
26979WAT     H181179   0.426   1.849   7.071
26979WAT     H281180   0.307   1.803   7.173
26980WAT      O81181   3.315   1.106   2.155
26980WAT     H181182   3.341   1.063   2.242
26980WAT     H281183   3.245   1.174   2.172
26981WAT      O81184   2.249   3.768   7.424
26981WAT     H181185   2.243   3.830   7.503
26981WAT     H281186   2.345   3.749   7.405
26982WAT      O81187   7.513   0.865   6.341
26982WAT     H181188   7.550   0.920   6.416
26982WAT     H281189   7.539   0.905   6.254
26983WAT      O81190   2.083   4.987   2.673
26983WAT     H181191   2.169   5.026   2.642
26983WAT     H281192   2.016   5.061   2.688
26984WAT      O81193   1.568   0.027   0.941
26984WAT     H181194   1.621   0.112   0.926
26984WAT     H281195   1.493   0.023   0.875
26985WAT      O81196   5.557   0.144   7.824
26985WAT     H181197   5.603   0.096   7.749
26985WAT     H281198   5.528   0.235   7.792
26986WAT      O81199   2.837   6.754   0.252
26986WAT     H181200   2.804   6.826   0.191
26986WAT     H281201   2.848   6.790   0.344
26987WAT      O81202   8.269   0.680   4.540
26987WAT     H181203   8.194   0.732   4.582
26987WAT     H281204   8.233   0.629   4.462
26988WAT      O81205   9.664   6.465   7.332
26988WAT     H181206   9.600   6.414   7.275
26988WAT     H281207   9.691   6.548   7.285
26989WAT      O81208   6.877   7.018   0.730
26989WAT     H181209   6.782   7.002   0.705
26989WAT     H281210   6.909   6.943   0.788
26990WAT      O81211   0.254   7.343   1.793
26990WAT     H181212   0.276   7.392   1.708
26990WAT     H281213   0.157   7.352   1.813
26991WAT      O81214   0.459   3.053   7.087
26991WAT     H181215   0.541   3.079   7.139
26991WAT     H281216   0.457   3.105   7.002
26992WAT      O81217   6.835   6.425   3.666
26992WAT     H181218   6.739   6.398   3.656
26992WAT     H281219   6.894   6.347   3.643
26993WAT      O81220   5.304   0.596   8.458
26993WAT     H181221   5.238   0.593   8.383
26993WAT     H281222   5.303   0.509   8.507
26994WAT      O81223   1.902   3.674   4.187
26994WAT     H181224   1.848   3.665   4.103
26994WAT     H281225   1.993   3.709   4.166
26995WAT      O81226   7.866   4.171   1.236
26995WAT     H181227   7.797   4.239   1.210
26995WAT     H281228   7.825   4.080   1.237
26996WAT      O81229   7.954   5.901   3.092
26996WAT     H181230   8.000   5.899   3.003
26996WAT     H281231   8.018   5.933   3.162
26997WAT      O81232   1.755   7.497   4.464
26997WAT     H181233   1.822   7.435   4.424
26997WAT     H281234   1.704   7.543   4.391
26998WAT      O81235   9.826   0.458   4.687
26998WAT     H181236   9.860   0.384   4.745
26998WAT     H281237   9.903   0.514   4.657
26999WAT      O81238   8.373   9.537   1.118
26999WAT     H181239   8.455   9.579   1.158
26999WAT     H281240   8.297   9.602   1.123
27000WAT      O81241   5.196   1.042   9.060
27000WAT     H181242   5.200   1.140   9.081
27000WAT     H281243   5.108   1.021   9.019
27001WAT      O81244   0.495   6.670   9.242
27001WAT     H181245   0.414   6.664   9.183
27001WAT     H281246   0.558   6.595   9.219
27002WAT      O81247   0.784   0.540   9.225
27002WAT     H181248   0.803   0.584   9.313
27002WAT     H281249   0.686   0.518   9.219
27003WAT      O81250   0.102   6.006   6.654
27003WAT     H181251   0.018   6.058   6.670
27003WAT     H281252   0.179   6.052   6.698
27004WAT      O81253   0.790   7.033   7.882
27004WAT     H181254   0.748   7.123   7.869
27004WAT     H281255   0.838   7.006   7.798
27005WAT      O81256   2.335   4.584   0.953
27005WAT     H181257   2.308   4.516   1.021
27005WAT     H281258   2.349   4.539   0.865
27006WAT      O81259   9.385   0.310   8.094
27006WAT     H181260   9.402   0.400   8.054
27006WAT     H281261   9.287   0.290   8.090
27007WAT      O81262   9.047   3.912   3.894
27007WAT     H181263   9.136   3.883   3.859
27007WAT     H281264   9.047   3.906   3.994
27008WAT      O81265   3.706   0.754   5.389
27008WAT     H181266   3.765   0.828   5.421
27008WAT     H281267   3.761   0.672   5.374
27009WAT      O81268   2.204   9.511   2.806
27009WAT     H181269   2.134   9.577   2.777
27009WAT     H281270   2.231   9.532   2.900
27010WAT      O81271   8.040   6.740   1.817
27010WAT     H181272   7.943   6.749   1.838
27010WAT     H281273   8.094   6.788   1.886
27011WAT      O81274   5.315   6.281   1.777
27011WAT     H181275   5.226   6.274   1.820
27011WAT     H281276   5.344   6.191   1.745
27012WAT      O81277   7.235   7.507   8.042
27012WAT     H181278   7.145   7.463   8.041
27012WAT     H281279   7.231   7.590   7.985
27013WAT      O81280   5.664   7.058   3.233
27013WAT     H181281   5.591   7.060   3.165
27013WAT     H281282   5.667   7.145   3.281
27014WAT      O81283   2.593   0.202   7.632
27014WAT     H181284   2.591   0.302   7.637
27014WAT     H281285   2.687   0.170   7.625
27015WAT      O81286   8.639   6.773   5.054
27015WAT     H181287   8.733   6.806   5.057
27015WAT     H281288   8.578   6.849   5.030
27016WAT      O81289   7.915   1.330   5.062
27016WAT     H181290   7.863   1.312   4.979
27016WAT     H281291   7.901   1.255   5.126
27017WAT      O81292   8.171   2.683   0.120
27017WAT     H181293   8.234   2.606   0.124
27017WAT     H281294   8.110   2.673   0.042
27018WAT      O81295   0.388   4.660   6.595
27018WAT     H181296   0.338   4.587   6.549
27018WAT     H281297   0.457   4.620   6.656
27019WAT      O81298   0.524   5.039   3.508
27019WAT     H181299   0.505   5.066   3.602
27019WAT     H281300   0.520   4.939   3.501
27020WAT      O81301   5.257   4.973   4.104
27020WAT     H181302   5.158   4.963   4.106
27020WAT     H281303   5.281   5.069   4.089
27021WAT      O81304   5.677   6.532   0.285
27021WAT     H181305   5.731   6.545   0.369
27021WAT     H281306   5.738   6.526   0.206
27022WAT      O81307   7.056   3.716   8.419
27022WAT     H181308   6.965   3.689   8.451
27022WAT     H281309   7.063   3.701   8.321
27023WAT      O81310   3.063   3.912   8.866
27023WAT     H181311   3.135   3.944   8.928
27023WAT     H281312   3.063   3.812   8.865
27024WAT      O81313   8.687   8.976   1.556
27024WAT     H181314   8.588   8.974   1.570
27024WAT     H281315   8.710   9.046   1.488
27025WAT      O81316   7.601   4.515   2.403
27025WAT     H181317   7.520   4.562   2.367
27025WAT     H281318   7.625   4.439   2.343
27026WAT      O81319   2.326   2.405   6.639
27026WAT     H181320   2.369   2.421   6.551
27026WAT     H281321   2.255   2.474   6.655
27027WAT      O81322   3.571   6.610   5.933
27027WAT     H181323   3.555   6.676   5.860
27027WAT     H281324   3.491   6.609   5.994
27028WAT      O81325   2.649   5.900   4.384
27028WAT     H181326   2.596   5.852   4.454
27028WAT     H281327   2.736   5.853   4.369
27029WAT      O81328   3.928   7.923   6.880
27029WAT     H181329   4.019   7.961   6.897
27029WAT     H281330   3.883   7.976   6.808
27030WAT      O81331   1.650   9.245   8.617
27030WAT     H181332   1.641   9.343   8.597
27030WAT     H281333   1.617   9.227   8.710
27031WAT      O81334   4.669   5.806   9.812
27031WAT     H181335   4.715   5.768   9.893
27031WAT     H281336   4.573   5.822   9.833
27032WAT      O81337   0.678   9.751   5.216
27032WAT     H181338   0.705   9.824   5.153
27032WAT     H281339   0.756   9.727   5.274
27033WAT      O81340   2.155   8.949   5.249
27033WAT     H181341   2.115   8.900   5.171
27033WAT     H281342   2.186   9.039   5.220
27034WAT      O81343   1.710   8.346   8.453
27034WAT     H181344   1.727   8.340   8.355
27034WAT     H281345   1.617   8.382   8.469
27035WAT      O81346   6.437   4.125   5.990
27035WAT     H181347   6.427   4.080   6.079
27035WAT     H281348   6.418   4.059   5.917
27036WAT      O81349   8.899   9.581   5.246
27036WAT     H181350   8.831   9.653   5.261
27036WAT     H281351   8.988   9.611   5.280
27037WAT      O81352   4.571   8.339   8.021
27037WAT     H181353   4.593   8.241   8.020
27037WAT     H281354   4.490   8.356   7.964
27038WAT      O81355   6.048   2.237   0.818
27038WAT     H181356   5.994   2.308   0.773
27038WAT     H281357   6.013   2.147   0.793
27039WAT      O81358   8.006   5.973   2.525
27039WAT     H181359   7.931   5.924   2.482
27039WAT     H281360   8.087   5.968   2.466
27040WAT      O81361   2.502   6.327   2.720
27040WAT     H181362   2.521   6.423   2.697
27040WAT     H281363   2.510   6.314   2.818
27041WAT      O81364   9.502   6.838   0.477
27041WAT     H181365   9.409   6.870   0.457
27041WAT     H281366   9.506   6.738   0.469
27042WAT      O81367   9.852   6.902   7.608
27042WAT     H181368   9.923   6.970   7.629
27042WAT     H281369   9.797   6.935   7.531
27043WAT      O81370   8.944   1.965   1.833
27043WAT     H181371   8.949   1.995   1.928
27043WAT     H281372   8.850   1.942   1.809
27044WAT      O81373   2.818   4.146   2.070
27044WAT     H181374   2.908   4.184   2.095
27044WAT     H281375   2.762   4.138   2.152
27045WAT      O81376   8.746   6.717   6.768
27045WAT     H181377   8.669   6.670   6.724
27045WAT     H281378   8.711   6.793   6.823
27046WAT      O81379   7.070   3.244   9.337
27046WAT     H181380   7.138   3.220   9.267
27046WAT     H281381   6.988   3.188   9.324
27047WAT      O81382   1.763   2.341   7.729
27047WAT     H181383   1.765   2.246   7.760
27047WAT     H281384   1.670   2.365   7.701
27048WAT      O81385   4.650   8.502   2.953
27048WAT     H181386   4.590   8.424   2.970
27048WAT     H281387   4.742   8.480   2.984
27049WAT      O81388   4.270   7.210   9.178
27049WAT     H181389   4.335   7.134   9.191
27049WAT     H281390   4.288   7.281   9.246
27050WAT      O81391   7.421   9.501   7.128
27050WAT     H181392   7.507   9.482   7.174
27050WAT     H281393   7.346   9.455   7.177
27051WAT      O81394   6.681   1.976   7.060
27051WAT     H181395   6.596   2.021   7.090
27051WAT     H281396   6.659   1.887   7.021
27052WAT      O81397   1.526   5.102   7.017
27052WAT     H181398   1.449   5.142   7.067
27052WAT     H281399   1.611   5.125   7.063
27053WAT      O81400   5.268   1.485   9.776
27053WAT     H181401   5.305   1.444   9.693
27053WAT     H281402   5.288   1.583   9.777
27054WAT      O81403   4.279   5.790   1.458
27054WAT     H181404   4.187   5.824   1.477
27054WAT     H281405   4.338   5.806   1.537
27055WAT      O81406   9.663   1.259   0.775
27055WAT     H181407   9.650   1.179   0.833
27055WAT     H281408   9.748   1.305   0.798
27056WAT      O81409   8.052   2.463   2.102
27056WAT     H181410   8.026   2.413   2.019
27056WAT     H281411   7.988   2.440   2.176
27057WAT      O81412   8.589   6.116   4.143
27057WAT     H181413   8.675   6.140   4.097
27057WAT     H281414   8.532   6.198   4.151
27058WAT      O81415   0.880   3.327   7.565
27058WAT     H181416   0.783   3.307   7.559
27058WAT     H281417   0.914   3.360   7.477
27059WAT      O81418   5.011   7.993   9.563
27059WAT     H181419   4.999   7.893   9.557
27059WAT     H281420   5.013   8.020   9.659
27060WAT      O81421   7.516   0.726   7.502
27060WAT     H181422   7.490   0.630   7.505
27060WAT     H281423   7.434   0.783   7.497
27061WAT      O81424   6.762   6.990   5.433
27061WAT     H181425   6.714   6.958   5.351
27061WAT     H281426   6.841   6.932   5.450
27062WAT      O81427   4.745   8.071   1.828
27062WAT     H181428   4.793   8.071   1.915
27062WAT     H281429   4.647   8.074   1.844
27063WAT      O81430   5.328   1.496   1.030
27063WAT     H181431   5.314   1.584   1.075
27063WAT     H281432   5.410   1.501   0.973
27064WAT      O81433   8.882   5.697   8.380
27064WAT     H181434   8.949   5.669   8.311
27064WAT     H281435   8.859   5.793   8.367
27065WAT      O81436   0.997   3.597   5.887
27065WAT     H181437   0.926   3.596   5.816
27065WAT     H281438   0.960   3.638   5.970
27066WAT      O81439   1.044   7.762   1.456
27066WAT     H181440   1.142   7.773   1.475
27066WAT     H281441   1.016   7.669   1.480
27067WAT      O81442   3.570   2.896   6.533
27067WAT     H181443   3.617   2.966   6.587
27067WAT     H281444   3.616   2.808   6.544
27068WAT      O81445   5.176   8.352   2.969
27068WAT     H181446   5.131   8.268   2.998
27068WAT     H281447   5.274   8.345   2.985
27069WAT      O81448   2.062   1.499   4.189
27069WAT     H181449   2.128   1.494   4.264
27069WAT     H281450   2.110   1.502   4.102
27070WAT      O81451   1.353   1.167   7.251
27070WAT     H181452   1.275   1.108   7.270
27070WAT     H281453   1.398   1.137   7.167
27071WAT      O81454   3.563   4.413   8.542
27071WAT     H181455   3.654   4.456   8.550
27071WAT     H281456   3.504   4.472   8.487
27072WAT      O81457   0.907   1.554   1.423
27072WAT     H181458   0.923   1.588   1.330
27072WAT     H281459   0.992   1.517   1.460
27073WAT      O81460   0.073   9.315   3.976
27073WAT     H181461  -0.003   9.254   3.953
27073WAT     H281462   0.158   9.279   3.938
27074WAT      O81463   5.804   3.914   8.367
27074WAT     H181464   5.845   3.828   8.396
27074WAT     H281465   5.704   3.905   8.364
27075WAT      O81466   5.301   3.360   5.050
27075WAT     H181467   5.260   3.270   5.036
27075WAT     H281468   5.276   3.394   5.141
27076WAT      O81469   1.696   3.172   4.705
27076WAT     H181470   1.775   3.185   4.646
27076WAT     H281471   1.719   3.201   4.798
27077WAT      O81472   0.880   4.244   3.393
27077WAT     H181473   0.973   4.228   3.362
27077WAT     H281474   0.846   4.330   3.355
27078WAT      O81475   0.497   5.346   8.795
27078WAT     H181476   0.458   5.329   8.704
27078WAT     H281477   0.498   5.444   8.813
27079WAT      O81478   3.649   2.162   1.549
27079WAT     H181479   3.741   2.194   1.528
27079WAT     H281480   3.587   2.188   1.474
27080WAT      O81481   3.426   7.999   9.141
27080WAT     H181482   3.388   8.078   9.093
27080WAT     H281483   3.356   7.928   9.150
27081WAT      O81484   3.455   8.199   3.699
27081WAT     H181485   3.440   8.106   3.667
27081WAT     H281486   3.419   8.209   3.792
27082WAT      O81487   1.313   2.711   5.658
27082WAT     H181488   1.368   2.785   5.695
27082WAT     H281489   1.282   2.652   5.733
27083WAT      O81490   4.353   8.238   6.027
27083WAT     H181491   4.368   8.172   5.954
27083WAT     H281492   4.438   8.287   6.046
27084WAT      O81493   9.867   7.232   1.500
27084WAT     H181494   9.915   7.180   1.570
27084WAT     H281495   9.924   7.239   1.418
27085WAT      O81496   9.450   5.200   8.684
27085WAT     H181497   9.379   5.206   8.614
27085WAT     H281498   9.501   5.286   8.688
27086WAT      O81499   4.892   8.355   3.055
27086WAT     H181500   4.949   8.279   3.023
27086WAT     H281501   4.871   8.343   3.152
27087WAT      O81502   2.421   1.716   6.293
27087WAT     H181503   2.491   1.663   6.342
27087WAT     H281504   2.465   1.770   6.222
27088WAT      O81505   0.501   6.937   9.293
27088WAT     H181506   0.569   6.979   9.233
27088WAT     H281507   0.496   6.839   9.274
27089WAT      O81508   3.245   4.631   5.495
27089WAT     H181509   3.297   4.551   5.524
27089WAT     H281510   3.215   4.682   5.575
27090WAT      O81511   2.207   6.863   3.602
27090WAT     H181512   2.114   6.855   3.567
27090WAT     H281513   2.204   6.880   3.701
27091WAT      O81514   7.544   4.158   3.419
27091WAT     H181515   7.455   4.152   3.374
27091WAT     H281516   7.583   4.066   3.429
27092WAT      O81517   1.830   7.040   3.235
27092WAT     H181518   1.797   6.959   3.186
27092WAT     H281519   1.796   7.122   3.189
27093WAT      O81520   3.749   7.155   0.340
27093WAT     H181521   3.656   7.189   0.349
27093WAT     H281522   3.773   7.148   0.243
27094WAT      O81523   2.287   9.037   7.061
27094WAT     H181524   2.361   9.093   7.098
27094WAT     H281525   2.281   9.052   6.962
27095WAT      O81526   0.853   7.063   2.312
27095WAT     H181527   0.804   6.999   2.252
27095WAT     H281528   0.931   7.101   2.263
27096WAT      O81529   5.450   5.987   7.646
27096WAT     H181530   5.442   5.932   7.563
27096WAT     H281531   5.361   6.026   7.669
27097WAT      O81532   0.943   6.156   1.199
27097WAT     H181533   0.933   6.077   1.139
27097WAT     H281534   0.981   6.232   1.147
27098WAT      O81535   4.422   1.042   2.838
27098WAT     H181536   4.387   0.998   2.755
27098WAT     H281537   4.402   1.140   2.836
27099WAT      O81538   6.980   6.183   3.643
27099WAT     H181539   6.933   6.098   3.619
27099WAT     H281540   7.026   6.219   3.561
27100WAT      O81541   2.718   6.590   3.026
27100WAT     H181542   2.662   6.651   2.972
27100WAT     H281543   2.809   6.581   2.984
27101WAT      O81544   5.681   8.737   4.527
27101WAT     H181545   5.610   8.744   4.457
27101WAT     H281546   5.734   8.822   4.529
27102WAT      O81547   1.472   9.266   0.393
27102WAT     H181548   1.427   9.349   0.427
27102WAT     H281549   1.404   9.205   0.353
27103WAT      O81550   8.104   1.988   0.027
27103WAT     H181551   8.026   2.050   0.027
27103WAT     H281552   8.167   2.014  -0.047
27104WAT      O81553   2.620   6.874   5.466
27104WAT     H181554   2.526   6.908   5.458
27104WAT     H281555   2.639   6.811   5.391
27105WAT      O81556   1.656   6.176   4.428
27105WAT     H181557   1.682   6.123   4.347
27105WAT     H281558   1.557   6.182   4.434
27106WAT      O81559   9.436   4.088   7.029
27106WAT     H181560   9.518   4.144   7.041
27106WAT     H281561   9.445   4.032   6.946
27107WAT      O81562   0.851   4.618   7.184
27107WAT     H181563   0.901   4.654   7.105
27107WAT     H281564   0.865   4.678   7.263
27108WAT      O81565   0.562   1.228   0.075
27108WAT     H181566   0.580   1.141   0.121
27108WAT     H281567   0.649   1.272   0.052
27109WAT      O81568   5.165   6.464   0.712
27109WAT     H181569   5.185   6.401   0.637
27109WAT     H281570   5.194   6.423   0.799
27110WAT      O81571   3.500   0.674   1.933
27110WAT     H181572   3.403   0.690   1.919
27110WAT     H281573   3.547   0.761   1.947
27111WAT      O81574   3.699   0.499   7.135
27111WAT     H181575   3.613   0.496   7.186
27111WAT     H281576   3.683   0.540   7.045
27112WAT      O81577   1.052   3.828   6.238
27112WAT     H181578   1.029   3.890   6.163
27112WAT     H281579   0.986   3.839   6.312
27113WAT      O81580   7.920   7.472   6.334
27113WAT     H181581   7.830   7.516   6.335
27113WAT     H281582   7.946   7.452   6.239
27114WAT      O81583   0.447   8.843   4.065
27114WAT     H181584   0.492   8.877   4.147
27114WAT     H281585   0.499   8.870   3.984
27115WAT      O81586   4.067   1.128   3.262
27115WAT     H181587   4.069   1.204   3.327
27115WAT     H281588   4.033   1.161   3.174
27116WAT      O81589   4.656   8.021   9.394
27116WAT     H181590   4.614   7.983   9.477
27116WAT     H281591   4.712   8.100   9.419
27117WAT      O81592   6.334   7.367   5.938
27117WAT     H181593   6.258   7.339   5.880
27117WAT     H281594   6.418   7.320   5.910
27118WAT      O81595   1.457   9.323   6.695
27118WAT     H181596   1.491   9.264   6.768
27118WAT     H281597   1.361   9.301   6.676
27119WAT      O81598   1.287   5.749   4.096
27119WAT     H181599   1.321   5.697   4.017
27119WAT     H281600   1.292   5.692   4.178
27120WAT      O81601   8.188   6.319   8.924
27120WAT     H181602   8.217   6.302   9.018
27120WAT     H281603   8.264   6.355   8.870
27121WAT      O81604   7.193   6.071   0.548
27121WAT     H181605   7.114   6.034   0.499
27121WAT     H281606   7.257   5.997   0.568
27122WAT      O81607   8.555   8.065   0.094
27122WAT     H181608   8.639   8.025   0.057
27122WAT     H281609   8.478   8.040   0.034
27123WAT      O81610   7.401   9.502   4.323
27123WAT     H181611   7.382   9.432   4.391
27123WAT     H281612   7.369   9.591   4.357
27124WAT      O81613   1.963   2.541   0.413
27124WAT     H181614   1.881   2.520   0.466
27124WAT     H281615   2.015   2.612   0.459
27125WAT      O81616   8.292   6.656   7.969
27125WAT     H181617   8.307   6.580   7.906
27125WAT     H281618   8.196   6.657   7.999
27126WAT      O81619   2.991   5.965   2.063
27126WAT     H181620   3.064   5.929   2.122
27126WAT     H281621   2.902   5.936   2.099
27127WAT      O81622   6.816   1.666   8.988
27127WAT     H181623   6.830   1.575   9.027
27127WAT     H281624   6.845   1.735   9.054
27128WAT      O81625   6.373   4.199   2.513
27128WAT     H181626   6.447   4.225   2.575
27128WAT     H281627   6.397   4.225   2.419
27129WAT      O81628   1.980   8.996   8.416
27129WAT     H181629   2.075   8.988   8.446
27129WAT     H281630   1.925   9.035   8.489
27130WAT      O81631   8.168   0.902   2.483
27130WAT     H181632   8.129   0.956   2.558
27130WAT     H281633   8.178   0.959   2.402
27131WAT      O81634   9.860   6.814   4.637
27131WAT     H181635   9.926   6.801   4.711
27131WAT     H281636   9.902   6.866   4.563
27132WAT      O81637   6.823   1.816   7.427
27132WAT     H181638   6.854   1.878   7.355
27132WAT     H281639   6.900   1.792   7.487
27133WAT      O81640   7.349   9.203   3.938
27133WAT     H181641   7.362   9.220   3.840
27133WAT     H281642   7.397   9.119   3.963
27134WAT      O81643   7.286   1.137   6.032
27134WAT     H181644   7.338   1.062   5.991
27134WAT     H281645   7.332   1.223   6.012
27135WAT      O81646   4.109   1.224   0.371
27135WAT     H181647   4.123   1.134   0.411
27135WAT     H281648   4.032   1.269   0.416
27136WAT      O81649   5.256   0.517   0.982
27136WAT     H181650   5.299   0.540   1.069
27136WAT     H281651   5.188   0.445   0.995
27137WAT      O81652   4.382   9.221   6.700
27137WAT     H181653   4.313   9.164   6.655
27137WAT     H281654   4.341   9.309   6.725
27138WAT      O81655   2.898   7.906   1.218
27138WAT     H181656   2.873   7.815   1.253
27138WAT     H281657   2.919   7.967   1.294
27139WAT      O81658   7.099   1.901   7.044
27139WAT     H181659   7.165   1.955   6.992
27139WAT     H281660   7.146   1.858   7.121
27140WAT      O81661   9.347   6.734   6.963
27140WAT     H181662   9.273   6.722   6.897
27140WAT     H281663   9.430   6.691   6.929
27141WAT      O81664   2.973   2.969   7.567
27141WAT     H181665   3.033   2.922   7.632
27141WAT     H281666   2.950   2.907   7.492
27142WAT      O81667   4.553   8.751   2.845
27142WAT     H181668   4.454   8.751   2.858
27142WAT     H281669   4.592   8.668   2.886
27143WAT      O81670   5.339   4.616   2.629
27143WAT     H181671   5.391   4.585   2.709
27143WAT     H281672   5.292   4.538   2.587
27144WAT      O81673   3.572   3.810   1.158
27144WAT     H181674   3.516   3.892   1.150
27144WAT     H281675   3.520   3.730   1.127
27145WAT      O81676   8.761   0.480   9.131
27145WAT     H181677   8.672   0.456   9.171
27145WAT     H281678   8.826   0.496   9.205
27146WAT      O81679   5.922   6.719   6.588
27146WAT     H181680   5.980   6.661   6.530
27146WAT     H281681   5.927   6.814   6.556
27147WAT      O81682   0.174   0.422   3.051
27147WAT     H181683   0.121   0.414   3.135
27147WAT     H281684   0.268   0.446   3.074
27148WAT      O81685   7.784   9.146   9.070
27148WAT     H181686   7.828   9.149   8.981
27148WAT     H281687   7.700   9.092   9.064
27149WAT      O81688   3.442   6.422   0.567
27149WAT     H181689   3.448   6.512   0.524
27149WAT     H281690   3.532   6.380   0.570
27150WAT      O81691   0.924   4.040   2.724
27150WAT     H181692   0.904   3.954   2.772
27150WAT     H281693   1.022   4.057   2.726
27151WAT      O81694   1.928   2.048   9.275
27151WAT     H181695   1.857   2.117   9.286
27151WAT     H281696   1.886   1.960   9.252
27152WAT      O81697   7.372   1.262   9.338
27152WAT     H181698   7.350   1.337   9.400
27152WAT     H281699   7.299   1.193   9.342
27153WAT      O81700   0.963   8.797   8.533
27153WAT     H181701   0.900   8.722   8.511
27153WAT     H281702   1.024   8.813   8.456
27154WAT      O81703   0.258   1.767   8.736
27154WAT     H181704   0.279   1.830   8.811
27154WAT     H281705   0.160   1.748   8.735
27155WAT      O81706   0.507   3.566   9.807
27155WAT     H181707   0.418   3.569   9.761
27155WAT     H281708   0.535   3.470   9.816
27156WAT      O81709   7.073   4.659   3.638
27156WAT     H181710   7.036   4.623   3.723
27156WAT     H281711   7.170   4.634   3.631
27157WAT      O81712   7.083   2.385   3.457
27157WAT     H181713   7.171   2.432   3.449
27157WAT     H281714   7.009   2.451   3.441
27158WAT      O81715   2.234   8.115   0.616
27158WAT     H181716   2.256   8.030   0.663
27158WAT     H281717   2.171   8.169   0.673
27159WAT      O81718   1.130   1.959   8.497
27159WAT     H181719   1.164   2.051   8.518
27159WAT     H281720   1.207   1.895   8.493
27160WAT      O81721   0.608   0.005   7.911
27160WAT     H181722   0.586  -0.021   7.817
27160WAT     H281723   0.689   0.064   7.910
27161WAT      O81724   3.886   0.964   3.695
27161WAT     H181725   3.973   0.978   3.648
27161WAT     H281726   3.889   1.010   3.784
27162WAT      O81727   7.898   4.569   2.313
27162WAT     H181728   7.980   4.558   2.369
27162WAT     H281729   7.857   4.480   2.297
27163WAT      O81730   3.829   6.800   7.054
27163WAT     H181731   3.766   6.878   7.050
27163WAT     H281732   3.788   6.728   7.111
27164WAT      O81733   5.103   9.246   3.358
27164WAT     H181734   5.178   9.297   3.316
27164WAT     H281735   5.119   9.236   3.456
27165WAT      O81736   1.764   7.053   2.208
27165WAT     H181737   1.843   6.998   2.231
27165WAT     H281738   1.780   7.099   2.120
27166WAT      O81739   0.044   4.461   4.156
27166WAT     H181740   0.029   4.488   4.061
27166WAT     H281741   0.138   4.484   4.183
27167WAT      O81742   6.487   3.294   5.972
27167WAT     H181743   6.502   3.204   6.014
27167WAT     H281744   6.571   3.348   5.980
27168WAT      O81745   5.386   6.984   5.334
27168WAT     H181746   5.471   6.950   5.294
27168WAT     H281747   5.309   6.927   5.304
27169WAT      O81748   8.988   5.541   2.959
27169WAT     H181749   9.017   5.618   3.015
27169WAT     H281750   9.059   5.521   2.891
27170WAT      O81751   3.942   5.399   3.573
27170WAT     H181752   3.923   5.301   3.576
27170WAT     H281753   4.013   5.421   3.639
27171WAT      O81754   9.488   4.818   3.435
27171WAT     H181755   9.454   4.763   3.512
27171WAT     H281756   9.460   4.775   3.349
27172WAT      O81757   7.084   9.051   4.001
27172WAT     H181758   7.091   9.139   3.954
27172WAT     H281759   7.047   9.065   4.093
27173WAT      O81760   8.701   2.480   7.124
27173WAT     H181761   8.757   2.461   7.204
27173WAT     H281762   8.759   2.514   7.049
27174WAT      O81763   0.045   1.530   1.792
27174WAT     H181764   0.109   1.466   1.835
27174WAT     H281765   0.091   1.580   1.719
27175WAT      O81766   2.409   2.097   1.231
27175WAT     H181767   2.375   2.117   1.323
27175WAT     H281768   2.508   2.089   1.234
27176WAT      O81769   7.773   4.586   2.609
27176WAT     H181770   7.731   4.554   2.523
27176WAT     H281771   7.818   4.673   2.594
27177WAT      O81772   2.464   2.176   6.718
27177WAT     H181773   2.425   2.268   6.708
27177WAT     H281774   2.411   2.112   6.663
27178WAT      O81775   1.349   1.329   9.651
27178WAT     H181776   1.290   1.397   9.693
27178WAT     H281777   1.443   1.364   9.648
27179WAT      O81778   2.568   0.165   7.349
27179WAT     H181779   2.553   0.139   7.444
27179WAT     H281780   2.642   0.110   7.310
27180WAT      O81781   7.991   0.651   6.616
27180WAT     H181782   8.079   0.650   6.568
27180WAT     H281783   7.995   0.718   6.690
27181WAT      O81784   8.577   4.174   1.432
27181WAT     H181785   8.563   4.106   1.504
27181WAT     H281786   8.562   4.132   1.343
27182WAT      O81787   0.630   3.775   2.884
27182WAT     H181788   0.574   3.830   2.822
27182WAT     H281789   0.593   3.682   2.888
27183WAT      O81790   4.737   9.181   8.498
27183WAT     H181791   4.741   9.275   8.531
27183WAT     H281792   4.800   9.169   8.422
27184WAT      O81793   5.716   7.666   4.248
27184WAT     H181794   5.667   7.732   4.305
27184WAT     H281795   5.678   7.574   4.263
27185WAT      O81796   4.574   1.866   6.298
27185WAT     H181797   4.652   1.807   6.320
27185WAT     H281798   4.519   1.823   6.227
27186WAT      O81799   0.472   7.075   6.955
27186WAT     H181800   0.406   7.109   7.022
27186WAT     H281801   0.490   7.147   6.888
27187WAT      O81802   7.632   8.355   0.586
27187WAT     H181803   7.615   8.257   0.577
27187WAT     H281804   7.724   8.370   0.623
27188WAT      O81805   1.050   8.242   4.188
27188WAT     H181806   1.097   8.167   4.235
27188WAT     H281807   1.103   8.269   4.107
27189WAT      O81808   5.494   9.241   4.800
27189WAT     H181809   5.438   9.272   4.877
27189WAT     H281810   5.516   9.320   4.741
27190WAT      O81811   1.377   1.420   7.170
27190WAT     H181812   1.384   1.330   7.213
27190WAT     H281813   1.445   1.481   7.210
27191WAT      O81814   5.444   7.507   4.991
27191WAT     H181815   5.464   7.410   4.974
27191WAT     H281816   5.529   7.553   5.019
27192WAT      O81817   9.834   1.143   6.068
27192WAT     H181818   9.907   1.154   6.135
27192WAT     H281819   9.761   1.087   6.107
27193WAT      O81820   4.265   0.739   6.288
27193WAT     H181821   4.255   0.681   6.208
27193WAT     H281822   4.306   0.686   6.363
27194WAT      O81823   3.793   8.240   8.019
27194WAT     H181824   3.753   8.167   7.964
27194WAT     H281825   3.858   8.201   8.084
27195WAT      O81826   3.282   2.733   0.055
27195WAT     H181827   3.326   2.822   0.048
27195WAT     H281828   3.340   2.664   0.012
27196WAT      O81829   9.145   4.288   4.121
27196WAT     H181830   9.171   4.232   4.200
27196WAT     H281831   9.107   4.229   4.050
27197WAT      O81832   4.742   7.810   0.611
27197WAT     H181833   4.683   7.737   0.645
27197WAT     H281834   4.837   7.779   0.613
27198WAT      O81835   1.675   3.806   5.300
27198WAT     H181836   1.693   3.904   5.311
27198WAT     H281837   1.592   3.793   5.246
27199WAT      O81838   9.460   9.207   1.787
27199WAT     H181839   9.460   9.272   1.863
27199WAT     H281840   9.537   9.227   1.726
27200WAT      O81841   2.514   8.007   6.369
27200WAT     H181842   2.569   7.932   6.334
27200WAT     H281843   2.524   8.012   6.469
27201WAT      O81844   9.118   4.734   2.596
27201WAT     H181845   9.140   4.783   2.680
27201WAT     H281846   9.177   4.654   2.588
27202WAT      O81847   5.990   9.013   7.507
27202WAT     H181848   5.953   8.934   7.556
27202WAT     H281849   6.080   9.036   7.544
27203WAT      O81850   0.446   3.197   6.848
27203WAT     H181851   0.353   3.229   6.865
27203WAT     H281852   0.458   3.183   6.750
27204WAT      O81853   1.638   4.507   3.151
27204WAT     H181854   1.685   4.549   3.074
27204WAT     H281855   1.651   4.408   3.149
27205WAT      O81856   7.454   3.289   7.274
27205WAT     H181857   7.534   3.316   7.221
27205WAT     H281858   7.475   3.292   7.372
27206WAT      O81859   7.362   2.918   1.620
27206WAT     H181860   7.351   2.819   1.632
27206WAT     H281861   7.334   2.945   1.528
27207WAT      O81862   4.045   9.245   2.398
27207WAT     H181863   3.946   9.260   2.397
27207WAT     H281864   4.087   9.290   2.320
27208WAT      O81865   1.679   8.178   8.975
27208WAT     H181866   1.590   8.151   9.011
27208WAT     H281867   1.668   8.218   8.884
27209WAT      O81868   2.769   2.507   9.646
27209WAT     H181869   2.699   2.454   9.695
27209WAT     H281870   2.860   2.477   9.675
27210WAT      O81871   1.934   4.759   5.586
27210WAT     H181872   2.013   4.790   5.532
27210WAT     H281873   1.891   4.838   5.630
27211WAT      O81874   2.466   2.653   2.305
27211WAT     H181875   2.418   2.730   2.347
27211WAT     H281876   2.560   2.649   2.339
27212WAT      O81877   4.509   1.712   2.796
27212WAT     H181878   4.421   1.694   2.841
27212WAT     H281879   4.582   1.665   2.846
27213WAT      O81880   7.835   7.157   2.468
27213WAT     H181881   7.767   7.098   2.511
27213WAT     H281882   7.790   7.218   2.403
27214WAT      O81883   4.469   2.482   9.533
27214WAT     H181884   4.375   2.517   9.535
27214WAT     H281885   4.490   2.450   9.440
27215WAT      O81886   3.691   5.831   7.974
27215WAT     H181887   3.758   5.891   7.931
27215WAT     H281888   3.644   5.881   8.048
27216WAT      O81889   0.504   4.127   7.390
27216WAT     H181890   0.532   4.190   7.463
27216WAT     H281891   0.572   4.055   7.380
27217WAT      O81892   3.931   8.788   1.531
27217WAT     H181893   3.900   8.696   1.505
27217WAT     H281894   3.942   8.792   1.630
27218WAT      O81895   3.279   1.035   6.385
27218WAT     H181896   3.279   0.960   6.452
27218WAT     H281897   3.188   1.042   6.343
27219WAT      O81898   9.178   2.724   4.412
27219WAT     H181899   9.116   2.667   4.359
27219WAT     H281900   9.233   2.665   4.473
27220WAT      O81901   3.094   8.913   6.558
27220WAT     H181902   3.018   8.898   6.621
27220WAT     H281903   3.175   8.864   6.590
27221WAT      O81904   3.913   6.601   6.349
27221WAT     H181905   3.865   6.631   6.266
27221WAT     H281906   4.011   6.591   6.329
27222WAT      O81907   1.454   7.058   8.291
27222WAT     H181908   1.522   7.082   8.361
27222WAT     H281909   1.428   6.962   8.302
27223WAT      O81910   4.641   5.639   5.983
27223WAT     H181911   4.667   5.679   5.895
27223WAT     H281912   4.722   5.631   6.041
27224WAT      O81913   7.398   0.511   0.149
27224WAT     H181914   7.445   0.520   0.237
27224WAT     H281915   7.453   0.455   0.087
27225WAT      O81916   0.927   3.249   0.346
27225WAT     H181917   0.867   3.255   0.426
27225WAT     H281918   1.017   3.287   0.369
27226WAT      O81919   5.172   9.192   7.446
27226WAT     H181920   5.175   9.112   7.506
27226WAT     H281921   5.082   9.197   7.403
27227WAT      O81922   5.870   6.740   4.629
27227WAT     H181923   5.967   6.755   4.611
27227WAT     H281924   5.848   6.770   4.722
27228WAT      O81925   1.938   7.405   1.892
27228WAT     H181926   1.988   7.417   1.806
27228WAT     H281927   1.846   7.442   1.882
27229WAT      O81928   7.019   6.881   5.417
27229WAT     H181929   7.099   6.832   5.382
27229WAT     H281930   7.031   6.979   5.403
27230WAT      O81931   8.257   7.050   1.258
27230WAT     H181932   8.180   6.991   1.233
27230WAT     H281933   8.323   7.053   1.183
27231WAT      O81934   9.463   1.730   5.180
27231WAT     H181935   9.461   1.787   5.262
27231WAT     H281936   9.482   1.635   5.205
27232WAT      O81937   0.342   4.073   1.245
27232WAT     H181938   0.376   4.017   1.320
27232WAT     H281939   0.388   4.046   1.160
27233WAT      O81940   9.838   9.701   4.516
27233WAT     H181941   9.813   9.787   4.471
27233WAT     H281942   9.797   9.624   4.466
27234WAT      O81943   6.288   8.345   8.186
27234WAT     H181944   6.317   8.349   8.090
27234WAT     H281945   6.263   8.436   8.217
27235WAT      O81946   2.283   2.908   3.236
27235WAT     H181947   2.184   2.903   3.222
27235WAT     H281948   2.302   2.946   3.326
27236WAT      O81949   1.633   8.036   7.584
27236WAT     H181950   1.685   7.955   7.609
27236WAT     H281951   1.685   8.090   7.518
27237WAT      O81952   9.484   8.480   5.148
27237WAT     H181953   9.394   8.510   5.116
27237WAT     H281954   9.515   8.539   5.222
27238WAT      O81955   1.809   7.535   1.589
27238WAT     H181956   1.873   7.607   1.559
27238WAT     H281957   1.765   7.563   1.674
27239WAT      O81958   3.755   9.820   6.186
27239WAT     H181959   3.727   9.906   6.229
27239WAT     H281960   3.829   9.779   6.240
27240WAT      O81961   9.376   7.765   1.350
27240WAT     H181962   9.462   7.721   1.374
27240WAT     H281963   9.393   7.859   1.322
27241WAT      O81964   9.214   8.156   8.523
27241WAT     H181965   9.242   8.060   8.515
27241WAT     H281966   9.220   8.200   8.434
27242WAT      O81967   9.665   2.653   6.787
27242WAT     H181968   9.758   2.669   6.753
27242WAT     H281969   9.664   2.659   6.886
27243WAT      O81970   3.013   7.740   2.995
27243WAT     H181971   2.962   7.685   2.929
27243WAT     H281972   3.095   7.690   3.023
27244WAT      O81973   9.423   3.217   1.608
27244WAT     H181974   9.521   3.205   1.592
27244WAT     H281975   9.409   3.261   1.696
27245WAT      O81976   6.662   3.080   3.138
27245WAT     H181977   6.593   3.140   3.177
27245WAT     H281978   6.635   2.984   3.150
27246WAT      O81979   9.809   7.144   4.847
27246WAT     H181980   9.727   7.100   4.883
27246WAT     H281981   9.856   7.193   4.920
27247WAT      O81982   9.862   4.482   6.360
27247WAT     H181983   9.865   4.429   6.276
27247WAT     H281984   9.950   4.473   6.408
27248WAT      O81985   9.081   9.392   2.797
27248WAT     H181986   9.135   9.333   2.736
27248WAT     H281987   9.094   9.487   2.771
27249WAT      O81988   8.223   7.113   2.358
27249WAT     H181989   8.196   7.048   2.287
27249WAT     H281990   8.175   7.090   2.443
27250WAT      O81991   5.631   3.006   7.424
27250WAT     H181992   5.670   3.063   7.351
27250WAT     H281993   5.533   3.027   7.433
27251WAT      O81994   1.254   5.297   6.610
27251WAT     H181995   1.184   5.230   6.634
27251WAT     H281996   1.333   5.285   6.670
27252WAT      O81997   4.003   0.091   4.078
27252WAT     H181998   3.947   0.129   4.152
27252WAT     H281999   3.951   0.020   4.030
27253WAT      O82000   2.671   6.224   9.264
27253WAT     H182001   2.609   6.301   9.254
27253WAT     H282002   2.754   6.240   9.209
27254WAT      O82003   3.895   8.524   7.318
27254WAT     H182004   3.809   8.548   7.273
27254WAT     H282005   3.970   8.574   7.274
27255WAT      O82006   6.774   0.794   1.531
27255WAT     H182007   6.739   0.826   1.619
27255WAT     H282008   6.756   0.863   1.461
27256WAT      O82009   4.179   3.769   5.684
27256WAT     H182010   4.259   3.713   5.659
27256WAT     H282011   4.201   3.824   5.764
27257WAT      O82012   7.325   4.915   4.997
27257WAT     H182013   7.364   4.937   4.907
27257WAT     H282014   7.230   4.885   4.985
27258WAT      O82015   3.129   1.562   8.046
27258WAT     H182016   3.066   1.636   8.024
27258WAT     H282017   3.213   1.573   7.992
27259WAT      O82018   1.365   3.394   5.488
27259WAT     H182019   1.449   3.390   5.435
27259WAT     H282020   1.294   3.340   5.443
27260WAT      O82021   7.555   8.829   8.522
27260WAT     H182022   7.498   8.750   8.499
27260WAT     H282023   7.603   8.812   8.608
27261WAT      O82024   1.985   0.150   4.687
27261WAT     H182025   2.061   0.162   4.751
27261WAT     H282026   1.973   0.233   4.633
27262WAT      O82027   2.855   0.729   7.118
27262WAT     H182028   2.887   0.657   7.179
27262WAT     H282029   2.757   0.744   7.130
27263WAT      O82030   6.250   3.092   4.914
27263WAT     H182031   6.263   3.186   4.943
27263WAT     H282032   6.204   3.090   4.825
27264WAT      O82033   3.644   5.460   4.988
27264WAT     H182034   3.551   5.426   4.998
27264WAT     H282035   3.680   5.486   5.078
27265WAT      O82036   6.485   0.647   9.649
27265WAT     H182037   6.579   0.619   9.665
27265WAT     H282038   6.454   0.610   9.561
27266WAT      O82039   2.250   3.672   5.476
27266WAT     H182040   2.340   3.633   5.455
27266WAT     H282041   2.179   3.607   5.450
27267WAT      O82042   8.182   9.033   7.437
27267WAT     H182043   8.248   9.106   7.422
27267WAT     H282044   8.220   8.946   7.407
27268WAT      O82045   4.888   2.551   5.024
27268WAT     H182046   4.861   2.592   4.936
27268WAT     H282047   4.983   2.576   5.044
27269WAT      O82048   6.690   3.204   8.000
27269WAT     H182049   6.595   3.171   7.992
27269WAT     H282050   6.717   3.202   8.097
27270WAT      O82051   8.366   9.215   7.291
27270WAT     H182052   8.411   9.130   7.318
27270WAT     H282053   8.423   9.265   7.227
27271WAT      O82054   2.812   3.635   0.785
27271WAT     H182055   2.850   3.545   0.806
27271WAT     H282056   2.847   3.701   0.852
27272WAT      O82057   1.484   3.992   7.950
27272WAT     H182058   1.544   3.984   7.870
27272WAT     H282059   1.389   3.994   7.920
27273WAT      O82060   3.569   9.211   5.318
27273WAT     H182061   3.510   9.287   5.344
27273WAT     H282062   3.562   9.196   5.219
27274WAT      O82063   3.426   9.241   2.235
27274WAT     H182064   3.326   9.246   2.238
27274WAT     H282065   3.461   9.210   2.323
27275WAT      O82066   2.589   9.333   2.787
27275WAT     H182067   2.491   9.315   2.793
27275WAT     H282068   2.618   9.385   2.868
27276WAT      O82069   7.291   4.726   8.080
27276WAT     H182070   7.352   4.648   8.070
27276WAT     H282071   7.242   4.719   8.167
27277WAT      O82072   1.161   8.468   2.535
27277WAT     H182073   1.073   8.421   2.525
27277WAT     H282074   1.156   8.559   2.494
27278WAT      O82075   3.727   8.029   1.771
27278WAT     H182076   3.743   8.023   1.870
27278WAT     H282077   3.788   8.098   1.732
27279WAT      O82078   4.888   5.343   7.722
27279WAT     H182079   4.932   5.320   7.808
27279WAT     H282080   4.883   5.262   7.664
27280WAT      O82081   0.474   8.905   4.518
27280WAT     H182082   0.432   8.978   4.571
27280WAT     H282083   0.406   8.834   4.498
27281WAT      O82084   3.802   1.129   4.815
27281WAT     H182085   3.710   1.099   4.840
27281WAT     H282086   3.829   1.205   4.875
27282WAT      O82087   8.275   4.596   4.132
27282WAT     H182088   8.243   4.651   4.209
27282WAT     H282089   8.319   4.512   4.166
27283WAT      O82090   9.113   6.997   6.295
27283WAT     H182091   9.028   6.945   6.287
27283WAT     H282092   9.121   7.061   6.219
27284WAT      O82093   7.688   6.508   6.020
27284WAT     H182094   7.673   6.429   6.080
27284WAT     H282095   7.704   6.589   6.075
27285WAT      O82096   1.400   4.827   4.726
27285WAT     H182097   1.334   4.875   4.784
27285WAT     H282098   1.492   4.837   4.765
27286WAT      O82099   9.197   5.018   1.754
27286WAT     H182100   9.225   5.077   1.830
27286WAT     H282101   9.239   5.051   1.670
27287WAT      O82102   6.555   6.245   2.344
27287WAT     H182103   6.576   6.288   2.432
27287WAT     H282104   6.613   6.164   2.332
27288WAT      O82105   9.449   8.839   1.532
27288WAT     H182106   9.461   8.740   1.523
27288WAT     H282107   9.527   8.877   1.582
27289WAT      O82108   8.117   9.370   9.160
27289WAT     H182109   8.212   9.348   9.137
27289WAT     H282110   8.097   9.464   9.133
27290WAT      O82111   8.695   2.621   1.977
27290WAT     H182112   8.783   2.631   2.025
27290WAT     H282113   8.679   2.701   1.920
27291WAT      O82114   4.007   5.683   7.027
27291WAT     H182115   3.970   5.729   6.947
27291WAT     H282116   3.950   5.703   7.107
27292WAT      O82117   6.950   7.079   5.957
27292WAT     H182118   6.914   7.116   6.042
27292WAT     H282119   7.008   7.000   5.976
27293WAT      O82120   7.176   7.191   8.863
27293WAT     H182121   7.274   7.174   8.874
27293WAT     H282122   7.162   7.282   8.825
27294WAT      O82123   6.184   3.265   9.071
27294WAT     H182124   6.278   3.294   9.090
27294WAT     H282125   6.120   3.333   9.108
27295WAT      O82126   8.337   1.312   8.441
27295WAT     H182127   8.422   1.318   8.389
27295WAT     H282128   8.343   1.371   8.521
27296WAT      O82129   1.416   2.606   2.257
27296WAT     H182130   1.333   2.550   2.249
27296WAT     H282131   1.485   2.571   2.193
27297WAT      O82132   8.735   1.684   6.204
27297WAT     H182133   8.666   1.625   6.245
27297WAT     H282134   8.819   1.632   6.190
27298WAT      O82135   6.565   6.529   1.590
27298WAT     H182136   6.521   6.612   1.558
27298WAT     H282137   6.504   6.482   1.654
27299WAT      O82138   0.170   1.244   4.883
27299WAT     H182139   0.243   1.215   4.945
27299WAT     H282140   0.144   1.339   4.903
27300WAT      O82141   3.771   2.289   7.648
27300WAT     H182142   3.815   2.249   7.568
27300WAT     H282143   3.830   2.281   7.727
27301WAT      O82144   2.302   9.468   4.211
27301WAT     H182145   2.300   9.408   4.131
27301WAT     H282146   2.280   9.561   4.184
27302WAT      O82147   8.946   4.619   6.297
27302WAT     H182148   8.943   4.526   6.334
27302WAT     H282149   8.990   4.680   6.363
27303WAT      O82150   8.481   7.418   3.737
27303WAT     H182151   8.497   7.377   3.827
27303WAT     H282152   8.392   7.463   3.737
27304WAT      O82153   2.550   8.641   7.904
27304WAT     H182154   2.596   8.653   7.816
27304WAT     H282155   2.479   8.709   7.915
27305WAT      O82156   5.976   7.431   0.365
27305WAT     H182157   5.987   7.391   0.456
27305WAT     H282158   5.955   7.359   0.299
27306WAT      O82159   6.772   0.755   3.720
27306WAT     H182160   6.857   0.703   3.728
27306WAT     H282161   6.736   0.774   3.811
27307WAT      O82162   2.047   2.958   0.642
27307WAT     H182163   2.125   2.996   0.593
27307WAT     H282164   2.066   2.961   0.741
27308WAT      O82165   4.820   9.130   7.855
27308WAT     H182166   4.846   9.127   7.759
27308WAT     H282167   4.762   9.051   7.876
27309WAT      O82168   8.285   0.871   6.140
27309WAT     H182169   8.334   0.833   6.218
27309WAT     H282170   8.205   0.814   6.120
27310WAT      O82171   7.235   2.307   1.038
27310WAT     H182172   7.138   2.314   1.012
27310WAT     H282173   7.246   2.337   1.133
27311WAT      O82174   4.498   1.128   0.674
27311WAT     H182175   4.518   1.207   0.616
27311WAT     H282176   4.546   1.048   0.638
27312WAT      O82177   5.371   0.732   0.749
27312WAT     H182178   5.448   0.796   0.759
27312WAT     H282179   5.370   0.668   0.826
27313WAT      O82180   8.460   7.843   1.119
27313WAT     H182181   8.544   7.814   1.072
27313WAT     H282182   8.391   7.868   1.051
27314WAT      O82183   4.480   6.371   0.155
27314WAT     H182184   4.399   6.381   0.096
27314WAT     H282185   4.542   6.447   0.138
27315WAT      O82186   4.910   1.324   0.899
27315WAT     H182187   4.868   1.255   0.840
27315WAT     H282188   5.004   1.339   0.871
27316WAT      O82189   2.243   0.792   0.405
27316WAT     H182190   2.309   0.851   0.360
27316WAT     H282191   2.275   0.770   0.498
27317WAT      O82192   9.674   3.963   6.130
27317WAT     H182193   9.684   3.966   6.031
27317WAT     H282194   9.579   3.979   6.155
27318WAT      O82195   1.564   0.338   8.929
27318WAT     H182196   1.518   0.419   8.894
27318WAT     H282197   1.523   0.310   9.015
27319WAT      O82198   7.427   8.876   0.712
27319WAT     H182199   7.480   8.959   0.692
27319WAT     H282200   7.458   8.836   0.798
27320WAT      O82201   2.742   4.098   7.488
27320WAT     H182202   2.753   4.197   7.499
27320WAT     H282203   2.648   4.072   7.510
27321WAT      O82204   8.005   8.151   4.666
27321WAT     H182205   7.984   8.211   4.743
27321WAT     H282206   8.081   8.090   4.691
27322WAT      O82207   6.534   4.163   8.282
27322WAT     H182208   6.467   4.223   8.239
27322WAT     H282209   6.505   4.068   8.273
27323WAT      O82210   0.754   9.028   7.766
27323WAT     H182211   0.814   9.091   7.718
27323WAT     H282212   0.799   8.940   7.776
27324WAT      O82213   3.299   1.843   7.322
27324WAT     H182214   3.316   1.756   7.368
27324WAT     H282215   3.201   1.862   7.321
27325WAT      O82216   8.241   8.464   8.124
27325WAT     H182217   8.144   8.470   8.149
27325WAT     H282218   8.265   8.369   8.106
27326WAT      O82219   7.641   1.145   2.645
27326WAT     H182220   7.624   1.200   2.563
27326WAT     H282221   7.585   1.179   2.720
27327WAT      O82222   5.554   7.834   2.225
27327WAT     H182223   5.484   7.762   2.220
27327WAT     H282224   5.634   7.799   2.272
27328WAT      O82225   5.031   0.958   7.338
27328WAT     H182226   4.995   0.866   7.350
27328WAT     H282227   4.964   1.024   7.372
27329WAT      O82228   0.573   2.777   5.110
27329WAT     H182229   0.550   2.754   5.016
27329WAT     H282230   0.671   2.794   5.117
27330WAT      O82231   6.505   0.579   1.007
27330WAT     H182232   6.544   0.662   1.047
27330WAT     H282233   6.579   0.516   0.984
27331WAT      O82234   4.399   8.556   5.681
27331WAT     H182235   4.313   8.522   5.717
27331WAT     H282236   4.402   8.542   5.582
27332WAT      O82237   6.372   2.994   0.362
27332WAT     H182238   6.408   2.979   0.270
27332WAT     H282239   6.274   2.974   0.364
27333WAT      O82240   4.314   3.621   2.768
27333WAT     H182241   4.270   3.658   2.850
27333WAT     H282242   4.410   3.600   2.788
27334WAT      O82243   3.398   9.759   9.379
27334WAT     H182244   3.350   9.672   9.364
27334WAT     H282245   3.447   9.755   9.467
27335WAT      O82246   6.732   4.526   8.296
27335WAT     H182247   6.690   4.472   8.370
27335WAT     H282248   6.664   4.589   8.259
27336WAT      O82249   9.729   8.684   1.834
27336WAT     H182250   9.746   8.618   1.907
27336WAT     H282251   9.815   8.707   1.789
27337WAT      O82252   9.554   5.430   6.111
27337WAT     H182253   9.507   5.515   6.135
27337WAT     H282254   9.512   5.391   6.028
27338WAT      O82255   1.247   5.576   9.150
27338WAT     H182256   1.193   5.615   9.076
27338WAT     H282257   1.276   5.484   9.126
27339WAT      O82258   4.731   9.192   1.119
27339WAT     H182259   4.829   9.202   1.136
27339WAT     H282260   4.701   9.258   1.050
27340WAT      O82261   4.155   2.515   4.501
27340WAT     H182262   4.181   2.435   4.447
27340WAT     H282263   4.201   2.510   4.590
27341WAT      O82264   6.008   2.087   5.146
27341WAT     H182265   5.921   2.057   5.183
27341WAT     H282266   6.018   2.052   5.052
27342WAT      O82267   0.904   9.198   7.577
27342WAT     H182268   0.872   9.195   7.482
27342WAT     H282269   0.883   9.288   7.616
27343WAT      O82270   9.533   7.270   2.401
27343WAT     H182271   9.541   7.220   2.315
27343WAT     H282272   9.440   7.307   2.410
27344WAT      O82273   7.262   8.032   2.473
27344WAT     H182274   7.236   7.936   2.487
27344WAT     H282275   7.276   8.076   2.561
27345WAT      O82276   0.726   9.501   3.614
27345WAT     H182277   0.807   9.520   3.560
27345WAT     H282278   0.651   9.473   3.554
27346WAT      O82279   1.493   4.274   0.159
27346WAT     H182280   1.402   4.311   0.177
27346WAT     H282281   1.523   4.301   0.068
27347WAT      O82282   1.193   7.740   0.655
27347WAT     H182283   1.097   7.713   0.667
27347WAT     H282284   1.214   7.819   0.713
27348WAT      O82285   0.356   2.773   5.548
27348WAT     H182286   0.406   2.753   5.464
27348WAT     H282287   0.343   2.872   5.557
27349WAT      O82288   6.910   5.223   6.786
27349WAT     H182289   6.921   5.282   6.705
27349WAT     H282290   6.973   5.253   6.858
27350WAT      O82291   1.303   9.206   4.310
27350WAT     H182292   1.391   9.211   4.263
27350WAT     H282293   1.230   9.188   4.243
27351WAT      O82294   2.107   0.913   4.219
27351WAT     H182295   2.113   0.819   4.186
27351WAT     H282296   2.084   0.974   4.143
27352WAT      O82297   6.407   5.622   8.205
27352WAT     H182298   6.480   5.583   8.261
27352WAT     H282299   6.417   5.722   8.203
27353WAT      O82300   1.669   5.768   4.029
27353WAT     H182301   1.647   5.763   4.127
27353WAT     H282302   1.730   5.846   4.013
27354WAT      O82303   8.737   7.196   5.827
27354WAT     H182304   8.673   7.128   5.791
27354WAT     H282305   8.829   7.157   5.828
27355WAT      O82306   8.052   6.002   7.650
27355WAT     H182307   8.126   5.958   7.700
27355WAT     H282308   7.972   6.012   7.710
27356WAT      O82309   3.359   7.235   0.544
27356WAT     H182310   3.407   7.171   0.604
27356WAT     H282311   3.365   7.203   0.449
27357WAT      O82312   5.530   7.261   7.775
27357WAT     H182313   5.611   7.316   7.753
27357WAT     H282314   5.543   7.217   7.864
27358WAT      O82315   5.561   9.687   6.095
27358WAT     H182316   5.507   9.619   6.143
27358WAT     H282317   5.570   9.769   6.152
27359WAT      O82318   8.723   5.801   4.373
27359WAT     H182319   8.789   5.766   4.439
27359WAT     H282320   8.697   5.728   4.309
27360WAT      O82321   6.183   7.777   1.479
27360WAT     H182322   6.166   7.876   1.478
27360WAT     H282323   6.175   7.741   1.386
27361WAT      O82324   8.194   6.152   8.142
27361WAT     H182325   8.187   6.093   8.223
27361WAT     H282326   8.204   6.247   8.172
27362WAT      O82327   5.202   4.994   1.140
27362WAT     H182328   5.149   4.911   1.155
27362WAT     H282329   5.285   4.990   1.197
27363WAT      O82330   6.336   9.057   5.416
27363WAT     H182331   6.375   9.125   5.478
27363WAT     H282332   6.237   9.052   5.432
27364WAT      O82333   0.783   2.309   7.073
27364WAT     H182334   0.799   2.408   7.080
27364WAT     H282335   0.716   2.291   7.001
27365WAT      O82336   4.173   9.743   7.982
27365WAT     H182337   4.113   9.799   7.925
27365WAT     H282338   4.267   9.751   7.949
27366WAT      O82339   6.364   9.494   4.398
27366WAT     H182340   6.350   9.497   4.497
27366WAT     H282341   6.275   9.499   4.352
27367WAT      O82342   4.950   5.651   6.610
27367WAT     H182343   4.910   5.647   6.701
27367WAT     H282344   4.898   5.715   6.554
27368WAT      O82345   4.962   8.052   4.310
27368WAT     H182346   4.937   8.005   4.394
27368WAT     H282347   5.020   7.993   4.255
27369WAT      O82348   1.174   7.991   2.354
27369WAT     H182349   1.105   8.054   2.391
27369WAT     H282350   1.254   7.991   2.413
27370WAT      O82351   4.466   0.028   5.837
27370WAT     H182352   4.536   0.032   5.766
27370WAT     H282353   4.503  -0.020   5.917
27371WAT      O82354   4.731   8.920   4.360
27371WAT     H182355   4.770   8.830   4.380
27371WAT     H282356   4.703   8.924   4.264
27372WAT      O82357   6.519   6.729   5.576
27372WAT     H182358   6.610   6.766   5.592
27372WAT     H282359   6.485   6.758   5.487
27373WAT      O82360   3.751   2.752   1.673
27373WAT     H182361   3.843   2.716   1.662
27373WAT     H282362   3.732   2.818   1.600
27374WAT      O82363   1.875   6.279   6.746
27374WAT     H182364   1.927   6.354   6.707
27374WAT     H282365   1.798   6.315   6.798
27375WAT      O82366   0.637   4.044   8.009
27375WAT     H182367   0.544   4.039   8.047
27375WAT     H282368   0.639   4.000   7.920
27376WAT      O82369   6.494   7.267   2.211
27376WAT     H182370   6.435   7.198   2.172
27376WAT     H282371   6.472   7.279   2.308
27377WAT      O82372   2.560   7.003   8.354
27377WAT     H182373   2.467   6.982   8.385
27377WAT     H282374   2.581   7.099   8.375
27378WAT      O82375   1.931   9.585   3.906
27378WAT     H182376   2.020   9.594   3.861
27378WAT     H282377   1.925   9.495   3.950
27379WAT      O82378   7.386   3.136   2.934
27379WAT     H182379   7.409   3.040   2.950
27379WAT     H282380   7.286   3.145   2.930
27380WAT      O82381   6.048   8.838   0.884
27380WAT     H182382   5.963   8.822   0.834
27380WAT     H282383   6.125   8.804   0.831
27381WAT      O82384   9.800   7.942   2.222
27381WAT     H182385   9.848   7.857   2.204
27381WAT     H282386   9.707   7.938   2.185
27382WAT      O82387   2.312   4.810   6.403
27382WAT     H182388   2.330   4.712   6.397
27382WAT     H282389   2.359   4.857   6.329
27383WAT      O82390   8.079   4.398   0.982
27383WAT     H182391   8.034   4.463   1.043
27383WAT     H282392   8.012   4.337   0.941
27384WAT      O82393   8.721   4.047   6.693
27384WAT     H182394   8.761   4.035   6.602
27384WAT     H282395   8.683   4.139   6.701
27385WAT      O82396   9.041   1.737   6.401
27385WAT     H182397   9.003   1.800   6.333
27385WAT     H282398   9.079   1.789   6.477
27386WAT      O82399   5.524   5.814   2.292
27386WAT     H182400   5.580   5.803   2.375
27386WAT     H282401   5.583   5.809   2.211
27387WAT      O82402   8.402   3.481   0.712
27387WAT     H182403   8.476   3.549   0.716
27387WAT     H282404   8.426   3.403   0.770
27388WAT      O82405   4.909   0.494   2.332
27388WAT     H182406   4.887   0.432   2.257
27388WAT     H282407   4.992   0.462   2.378
27389WAT      O82408   6.536   1.197   0.002
27389WAT     H182409   6.486   1.251   0.070
27389WAT     H282410   6.494   1.210  -0.088
27390WAT      O82411   7.771   8.706   7.306
27390WAT     H182412   7.868   8.681   7.301
27390WAT     H282413   7.763   8.806   7.313
27391WAT      O82414   0.461   2.715   6.867
27391WAT     H182415   0.530   2.704   6.938
27391WAT     H282416   0.434   2.625   6.832
27392WAT      O82417   0.865   6.186   6.347
27392WAT     H182418   0.841   6.089   6.354
27392WAT     H282419   0.782   6.241   6.350
27393WAT      O82420   2.273   7.923   9.838
27393WAT     H182421   2.323   7.838   9.854
27393WAT     H282422   2.176   7.910   9.858
27394WAT      O82423   1.115   3.629   1.496
27394WAT     H182424   1.149   3.541   1.462
27394WAT     H282425   1.192   3.693   1.506
27395WAT      O82426   6.335   0.777   2.591
27395WAT     H182427   6.301   0.814   2.677
27395WAT     H282428   6.266   0.789   2.519
27396WAT      O82429   6.661   5.221   7.686
27396WAT     H182430   6.589   5.266   7.739
27396WAT     H282431   6.686   5.278   7.608
27397WAT      O82432   9.645   6.726   6.430
27397WAT     H182433   9.614   6.733   6.335
27397WAT     H282434   9.738   6.763   6.437
27398WAT      O82435   8.859   0.922   8.590
27398WAT     H182436   8.923   0.963   8.655
27398WAT     H282437   8.888   0.829   8.569
27399WAT      O82438   2.822   9.709   3.735
27399WAT     H182439   2.904   9.738   3.785
27399WAT     H282440   2.752   9.780   3.744
27400WAT      O82441   3.155   8.695   8.112
27400WAT     H182442   3.201   8.753   8.045
27400WAT     H282443   3.195   8.603   8.110
27401WAT      O82444   0.189   1.412   8.796
27401WAT     H182445   0.099   1.392   8.755
27401WAT     H282446   0.177   1.473   8.874
27402WAT      O82447   7.808   3.817   5.124
27402WAT     H182448   7.790   3.850   5.032
27402WAT     H282449   7.765   3.877   5.191
27403WAT      O82450   2.486   8.993   2.456
27403WAT     H182451   2.550   8.984   2.532
27403WAT     H282452   2.493   8.913   2.397
27404WAT      O82453   7.550   8.705   5.708
27404WAT     H182454   7.522   8.774   5.641
27404WAT     H282455   7.563   8.749   5.797
27405WAT      O82456   8.722   5.967   8.193
27405WAT     H182457   8.778   5.973   8.275
27405WAT     H282458   8.767   5.908   8.126
27406WAT      O82459   0.229   9.535   6.141
27406WAT     H182460   0.153   9.594   6.113
27406WAT     H282461   0.308   9.553   6.082
27407WAT      O82462   8.024   0.162   7.024
27407WAT     H182463   8.017   0.067   7.054
27407WAT     H282464   7.977   0.221   7.089
27408WAT      O82465   4.448   3.088   0.178
27408WAT     H182466   4.520   3.073   0.110
27408WAT     H282467   4.378   3.017   0.169
27409WAT      O82468   0.489   8.191   2.853
27409WAT     H182469   0.586   8.171   2.844
27409WAT     H282470   0.474   8.290   2.844
27410WAT      O82471   6.213   1.701   9.514
27410WAT     H182472   6.287   1.694   9.447
27410WAT     H282473   6.132   1.739   9.470
27411WAT      O82474   0.379   5.082   0.718
27411WAT     H182475   0.371   5.075   0.618
27411WAT     H282476   0.304   5.138   0.753
27412WAT      O82477   7.190   9.521   6.374
27412WAT     H182478   7.202   9.565   6.285
27412WAT     H282479   7.220   9.425   6.368
27413WAT      O82480   5.114   9.744   2.902
27413WAT     H182481   5.106   9.797   2.986
27413WAT     H282482   5.025   9.705   2.879
27414WAT      O82483   0.785   9.068   2.163
27414WAT     H182484   0.863   9.041   2.106
27414WAT     H282485   0.734   9.140   2.116
27415WAT      O82486   2.099   8.833   1.771
27415WAT     H182487   2.111   8.736   1.749
27415WAT     H282488   2.165   8.860   1.841
27416WAT      O82489   1.968   4.682   4.144
27416WAT     H182490   1.960   4.608   4.210
27416WAT     H282491   1.910   4.663   4.065
27417WAT      O82492   8.930   2.324   5.342
27417WAT     H182493   8.848   2.302   5.395
27417WAT     H282494   8.987   2.242   5.334
27418WAT      O82495   2.635   0.175   1.920
27418WAT     H182496   2.715   0.168   1.860
27418WAT     H282497   2.562   0.117   1.884
27419WAT      O82498   5.661   2.473   5.265
27419WAT     H182499   5.622   2.551   5.216
27419WAT     H282500   5.597   2.441   5.334
27420WAT      O82501   7.185   5.538   1.208
27420WAT     H182502   7.283   5.515   1.206
27420WAT     H282503   7.173   5.632   1.175
27421WAT      O82504   4.663   8.447   3.313
27421WAT     H182505   4.586   8.420   3.371
27421WAT     H282506   4.724   8.369   3.299
27422WAT      O82507   2.884   4.339   9.674
27422WAT     H182508   2.915   4.245   9.665
27422WAT     H282509   2.871   4.379   9.584
27423WAT      O82510   5.675   1.227   3.126
27423WAT     H182511   5.717   1.155   3.181
27423WAT     H282512   5.710   1.223   3.032
27424WAT      O82513   3.367   5.202   2.493
27424WAT     H182514   3.369   5.286   2.439
27424WAT     H282515   3.450   5.195   2.548
27425WAT      O82516   3.418   2.304   8.334
27425WAT     H182517   3.387   2.231   8.274
27425WAT     H282518   3.512   2.329   8.311
27426WAT      O82519   4.954   2.329   8.723
27426WAT     H182520   4.991   2.378   8.802
27426WAT     H282521   4.990   2.370   8.639
27427WAT      O82522   0.598   9.283   8.613
27427WAT     H182523   0.620   9.346   8.688
27427WAT     H282524   0.679   9.269   8.556
27428WAT      O82525   4.904   8.367   7.270
27428WAT     H182526   4.848   8.330   7.345
27428WAT     H282527   4.953   8.448   7.301
27429WAT      O82528   8.470   8.137   2.233
27429WAT     H182529   8.506   8.095   2.150
27429WAT     H282530   8.465   8.236   2.221
27430WAT      O82531   1.393   8.097   7.094
27430WAT     H182532   1.294   8.102   7.097
27430WAT     H282533   1.421   8.008   7.057
27431WAT      O82534   7.337   6.929   1.978
27431WAT     H182535   7.428   6.891   1.996
27431WAT     H282536   7.341   6.984   1.895
27432WAT      O82537   1.721   8.076   1.539
27432WAT     H182538   1.730   8.096   1.637
27432WAT     H282539   1.626   8.089   1.512
27433WAT      O82540   5.119   3.074   6.260
27433WAT     H182541   5.060   3.012   6.208
27433WAT     H282542   5.203   3.091   6.209
27434WAT      O82543   0.043   0.162   8.399
27434WAT     H182544   0.019   0.218   8.320
27434WAT     H282545  -0.022   0.179   8.474
27435WAT      O82546   9.541   9.278   6.671
27435WAT     H182547   9.508   9.211   6.604
27435WAT     H282548   9.478   9.280   6.749
27436WAT      O82549   0.087   9.187   7.240
27436WAT     H182550   0.106   9.280   7.269
27436WAT     H282551   0.166   9.149   7.192
27437WAT      O82552   0.867   1.046   0.874
27437WAT     H182553   0.779   1.075   0.911
27437WAT     H282554   0.892   0.958   0.914
27438WAT      O82555   5.601   5.286   2.754
27438WAT     H182556   5.628   5.349   2.682
27438WAT     H282557   5.555   5.207   2.714
27439WAT      O82558   4.877   8.575   3.474
27439WAT     H182559   4.913   8.497   3.424
27439WAT     H282560   4.778   8.582   3.461
27440WAT      O82561   0.325   8.055   2.655
27440WAT     H182562   0.323   7.956   2.642
27440WAT     H282563   0.375   8.077   2.738
27441WAT      O82564   2.341   0.765   9.123
27441WAT     H182565   2.434   0.797   9.143
27441WAT     H282566   2.319   0.688   9.182
27442WAT      O82567   7.068   4.423   8.094
27442WAT     H182568   7.158   4.381   8.081
27442WAT     H282569   7.016   4.369   8.160
27443WAT      O82570   7.388   8.659   6.110
27443WAT     H182571   7.378   8.638   6.207
27443WAT     H282572   7.307   8.709   6.078
27444WAT      O82573   4.625   5.509   1.739
27444WAT     H182574   4.572   5.471   1.814
27444WAT     H282575   4.637   5.439   1.668
27445WAT      O82576   0.794   4.120   6.711
27445WAT     H182577   0.706   4.129   6.759
27445WAT     H282578   0.866   4.164   6.764
27446WAT      O82579   8.329   2.708   2.510
27446WAT     H182580   8.257   2.777   2.522
27446WAT     H282581   8.342   2.691   2.412
27447WAT      O82582   3.222   0.216   0.636
27447WAT     H182583   3.291   0.160   0.682
27447WAT     H282584   3.267   0.291   0.587
27448WAT      O82585   5.612   0.140   2.418
27448WAT     H182586   5.692   0.100   2.462
27448WAT     H282587   5.641   0.210   2.353
27449WAT      O82588   8.922   0.190   0.568
27449WAT     H182589   8.850   0.132   0.532
27449WAT     H282590   9.010   0.143   0.562
27450WAT      O82591   0.116   0.326   1.107
27450WAT     H182592   0.169   0.314   1.023
27450WAT     H282593   0.037   0.265   1.106
27451WAT      O82594   6.787   2.740   6.305
27451WAT     H182595   6.786   2.657   6.250
27451WAT     H282596   6.796   2.820   6.246
27452WAT      O82597   7.375   7.961   4.913
27452WAT     H182598   7.395   8.052   4.878
27452WAT     H282599   7.444   7.897   4.880
27453WAT      O82600   7.207   0.900   4.432
27453WAT     H182601   7.203   0.904   4.332
27453WAT     H282602   7.126   0.854   4.467
27454WAT      O82603   1.429   0.433   5.433
27454WAT     H182604   1.455   0.450   5.338
27454WAT     H282605   1.477   0.352   5.467
27455WAT      O82606   8.541   9.841   4.931
27455WAT     H182607   8.601   9.797   4.864
27455WAT     H282608   8.581   9.928   4.959
27456WAT      O82609   8.498   1.252   3.489
27456WAT     H182610   8.571   1.272   3.424
27456WAT     H282611   8.416   1.304   3.465
27457WAT      O82612   9.494   0.128   9.765
27457WAT     H182613   9.399   0.104   9.746
27457WAT     H282614   9.520   0.208   9.711
27458WAT      O82615   8.570   3.905   9.548
27458WAT     H182616   8.534   3.853   9.470
27458WAT     H282617   8.669   3.890   9.555
27459WAT      O82618   4.179   0.934   7.742
27459WAT     H182619   4.175   0.947   7.841
27459WAT     H282620   4.190   0.837   7.722
27460WAT      O82621   1.991   1.682   1.624
27460WAT     H182622   1.971   1.584   1.632
27460WAT     H282623   2.070   1.695   1.564
27461WAT      O82624   3.827   8.691   5.233
27461WAT     H182625   3.790   8.783   5.218
27461WAT     H282626   3.927   8.695   5.223
27462WAT      O82627   1.520   5.051   8.159
27462WAT     H182628   1.464   4.987   8.106
27462WAT     H282629   1.617   5.035   8.139
27463WAT      O82630   1.557   8.692   7.932
27463WAT     H182631   1.611   8.775   7.923
27463WAT     H282632   1.460   8.716   7.941
27464WAT      O82633   4.053   0.531   3.816
27464WAT     H182634   4.114   0.498   3.743
27464WAT     H282635   4.054   0.465   3.891
27465WAT      O82636   2.519   3.247   8.679
27465WAT     H182637   2.604   3.240   8.627
27465WAT     H282638   2.459   3.315   8.638
27466WAT      O82639   8.959   6.977   3.272
27466WAT     H182640   9.010   6.915   3.213
27466WAT     H282641   8.906   6.924   3.338
27467WAT      O82642   0.575   3.558   8.205
27467WAT     H182643   0.493   3.608   8.233
27467WAT     H282644   0.597   3.579   8.110
27468WAT      O82645   7.165   0.517   8.243
27468WAT     H182646   7.251   0.567   8.233
27468WAT     H282647   7.179   0.421   8.218
27469WAT      O82648   8.132   3.755   5.017
27469WAT     H182649   8.152   3.658   5.022
27469WAT     H282650   8.072   3.773   4.938
27470WAT      O82651   7.010   6.506   0.384
27470WAT     H182652   7.034   6.523   0.479
27470WAT     H282653   7.079   6.445   0.343
27471WAT      O82654   6.040   5.858   9.160
27471WAT     H182655   5.964   5.827   9.217
27471WAT     H282656   6.121   5.802   9.179
27472WAT      O82657   0.409   2.823   9.034
27472WAT     H182658   0.352   2.741   9.048
27472WAT     H282659   0.504   2.801   9.057
27473WAT      O82660   8.949   3.671   9.487
27473WAT     H182661   9.010   3.598   9.517
27473WAT     H282662   8.889   3.636   9.415
27474WAT      O82663   4.375   6.753   1.572
27474WAT     H182664   4.412   6.750   1.479
27474WAT     H282665   4.276   6.739   1.569
27475WAT      O82666   0.528   3.001   4.829
27475WAT     H182667   0.483   3.072   4.775
27475WAT     H282668   0.610   3.039   4.871
27476WAT      O82669   1.817   2.481   4.624
27476WAT     H182670   1.728   2.446   4.596
27476WAT     H282671   1.829   2.575   4.590
27477WAT      O82672   7.425   2.846   0.528
27477WAT     H182673   7.342   2.836   0.473
27477WAT     H282674   7.505   2.825   0.471
27478WAT      O82675   1.357   7.372   0.522
27478WAT     H182676   1.315   7.372   0.432
27478WAT     H282677   1.432   7.306   0.524
27479WAT      O82678   3.883   4.658   3.073
27479WAT     H182679   3.905   4.752   3.099
27479WAT     H282680   3.863   4.655   2.974
27480WAT      O82681   3.170   5.017   5.571
27480WAT     H182682   3.107   5.065   5.632
27480WAT     H282683   3.203   4.934   5.615
27481WAT      O82684   2.866   3.642   3.185
27481WAT     H182685   2.960   3.637   3.150
27481WAT     H282686   2.833   3.549   3.203
27482WAT      O82687   6.912   1.971   1.847
27482WAT     H182688   6.939   2.006   1.937
27482WAT     H282689   6.993   1.944   1.796
27483WAT      O82690   0.188   0.062   0.668
27483WAT     H182691   0.188   0.152   0.625
27483WAT     H282692   0.264   0.008   0.633
27484WAT      O82693   6.418   8.619   0.358
27484WAT     H182694   6.341   8.575   0.312
27484WAT     H282695   6.389   8.707   0.395
27485WAT      O82696   6.466   4.617   3.730
27485WAT     H182697   6.415   4.701   3.713
27485WAT     H282698   6.555   4.623   3.684
27486WAT      O82699   6.237   6.723   4.096
27486WAT     H182700   6.240   6.625   4.073
27486WAT     H282701   6.304   6.772   4.041
27487WAT      O82702   2.049   5.191   1.490
27487WAT     H182703   1.960   5.171   1.530
27487WAT     H282704   2.049   5.166   1.394
27488WAT      O82705   2.017   3.981   2.340
27488WAT     H182706   2.068   4.047   2.285
27488WAT     H282707   1.921   4.007   2.343
27489WAT      O82708   0.170   4.254   7.612
27489WAT     H182709   0.227   4.187   7.660
27489WAT     H282710   0.075   4.223   7.611
27490WAT      O82711   3.876   4.000   5.875
27490WAT     H182712   3.901   4.049   5.959
27490WAT     H282713   3.802   4.049   5.829
27491WAT      O82714   9.025   2.245   0.743
27491WAT     H182715   8.977   2.331   0.729
27491WAT     H282716   9.124   2.262   0.740
27492WAT      O82717   9.320   1.492   7.766
27492WAT     H182718   9.227   1.460   7.782
27492WAT     H282719   9.318   1.569   7.702
27493WAT      O82720   7.529   0.013   4.555
27493WAT     H182721   7.472   0.093   4.574
27493WAT     H282722   7.484  -0.045   4.487
27494WAT      O82723   6.674   8.142   8.963
27494WAT     H182724   6.702   8.206   8.892
27494WAT     H282725   6.755   8.111   9.013
27495WAT      O82726   7.474   2.772   7.451
27495WAT     H182727   7.550   2.709   7.468
27495WAT     H282728   7.393   2.720   7.424
27496WAT      O82729   6.548   4.519   1.017
27496WAT     H182730   6.523   4.482   1.106
27496WAT     H282731   6.579   4.613   1.027
27497WAT      O82732   0.284   8.218   3.767
27497WAT     H182733   0.311   8.244   3.860
27497WAT     H282734   0.186   8.235   3.755
27498WAT      O82735   8.558   7.897   5.192
27498WAT     H182736   8.606   7.985   5.198
27498WAT     H282737   8.586   7.850   5.108
27499WAT      O82738   1.561   9.004   7.175
27499WAT     H182739   1.590   9.010   7.271
27499WAT     H282740   1.510   9.087   7.151
27500WAT      O82741   9.724   9.760   3.485
27500WAT     H182742   9.814   9.769   3.443
27500WAT     H282743   9.698   9.663   3.487
27501WAT      O82744   3.171   4.867   7.443
27501WAT     H182745   3.093   4.804   7.442
27501WAT     H282746   3.146   4.950   7.494
27502WAT      O82747   7.052   5.872   9.321
27502WAT     H182748   7.103   5.948   9.360
27502WAT     H282749   7.017   5.814   9.396
27503WAT      O82750   2.587   0.015   3.769
27503WAT     H182751   2.499   0.019   3.816
27503WAT     H282752   2.659   0.048   3.829
27504WAT      O82753   7.523   7.663   1.145
27504WAT     H182754   7.499   7.614   1.229
27504WAT     H282755   7.441   7.707   1.107
27505WAT      O82756   4.923   6.108   3.288
27505WAT     H182757   4.844   6.094   3.347
27505WAT     H282758   4.984   6.176   3.330
27506WAT      O82759   4.406   6.982   9.430
27506WAT     H182760   4.488   6.929   9.405
27506WAT     H282761   4.331   6.959   9.367
27507WAT      O82762   5.791   8.704   8.785
27507WAT     H182763   5.760   8.793   8.750
27507WAT     H282764   5.801   8.710   8.885
27508WAT      O82765   8.924   0.783   6.896
27508WAT     H182766   8.945   0.860   6.836
27508WAT     H282767   9.008   0.732   6.916
27509WAT      O82768   3.827   2.645   5.092
27509WAT     H182769   3.872   2.693   5.016
27509WAT     H282770   3.888   2.574   5.127
27510WAT      O82771   3.067   2.738   7.726
27510WAT     H182772   2.978   2.733   7.773
27510WAT     H282773   3.087   2.651   7.682
27511WAT      O82774   8.685   9.595   5.652
27511WAT     H182775   8.680   9.565   5.748
27511WAT     H282776   8.605   9.652   5.631
27512WAT      O82777   5.883   4.028   0.443
27512WAT     H182778   5.904   4.047   0.539
27512WAT     H282779   5.965   3.997   0.396
27513WAT      O82780   0.815   7.217   2.709
27513WAT     H182781   0.790   7.167   2.626
27513WAT     H282782   0.737   7.221   2.770
27514WAT      O82783   3.277   6.328   2.109
27514WAT     H182784   3.253   6.422   2.135
27514WAT     H282785   3.193   6.277   2.090
27515WAT      O82786   1.122   8.160   7.002
27515WAT     H182787   1.048   8.133   6.941
27515WAT     H282788   1.086   8.217   7.076
27516WAT      O82789   2.217   5.169   5.439
27516WAT     H182790   2.225   5.141   5.343
27516WAT     H282791   2.290   5.128   5.492
27517WAT      O82792   6.967   0.603   8.022
27517WAT     H182793   7.013   0.660   7.954
27517WAT     H282794   7.026   0.593   8.103
27518WAT      O82795   1.337   2.015   8.992
27518WAT     H182796   1.413   2.012   8.928
27518WAT     H282797   1.368   1.984   9.082
27519WAT      O82798   5.776   2.072   6.014
27519WAT     H182799   5.844   2.068   6.087
27519WAT     H282800   5.788   2.157   5.962
27520WAT      O82801   1.897   8.460   2.392
27520WAT     H182802   1.865   8.546   2.432
27520WAT     H282803   1.950   8.479   2.309
27521WAT      O82804   5.414   4.276   4.379
27521WAT     H182805   5.319   4.253   4.399
27521WAT     H282806   5.474   4.203   4.412
27522WAT      O82807   1.913   4.713   8.793
27522WAT     H182808   1.999   4.763   8.796
27522WAT     H282809   1.848   4.754   8.858
27523WAT      O82810   4.563   0.005   1.310
27523WAT     H182811   4.588   0.079   1.249
27523WAT     H282812   4.594   0.026   1.403
27524WAT      O82813   6.997   6.636   2.733
27524WAT     H182814   6.994   6.703   2.807
27524WAT     H282815   6.984   6.545   2.770
27525WAT      O82816   0.972   0.004   3.091
27525WAT     H182817   0.949  -0.032   3.181
27525WAT     H282818   1.072   0.010   3.082
27526WAT      O82819   2.457   1.438   8.107
27526WAT     H182820   2.470   1.528   8.067
27526WAT     H282821   2.388   1.443   8.179
27527WAT      O82822   3.376   6.709   0.237
27527WAT     H182823   3.278   6.720   0.256
27527WAT     H282824   3.429   6.755   0.308
27528WAT      O82825   1.457   2.457   0.675
27528WAT     H182826   1.438   2.431   0.580
27528WAT     H282827   1.531   2.525   0.676
27529WAT      O82828   3.156   0.834   4.972
27529WAT     H182829   3.078   0.773   4.985
27529WAT     H282830   3.162   0.898   5.049
27530WAT      O82831   4.155   2.773   0.670
27530WAT     H182832   4.204   2.706   0.614
27530WAT     H282833   4.070   2.732   0.703
27531WAT      O82834   5.689   8.352   2.741
27531WAT     H182835   5.781   8.380   2.712
27531WAT     H282836   5.633   8.332   2.660
27532WAT      O82837   0.342   2.179   6.952
27532WAT     H182838   0.440   2.163   6.934
27532WAT     H282839   0.324   2.170   7.049
27533WAT      O82840   9.459   7.083   7.591
27533WAT     H182841   9.482   7.060   7.685
27533WAT     H282842   9.500   7.016   7.529
27534WAT      O82843   9.538   9.138   3.462
27534WAT     H182844   9.513   9.187   3.378
27534WAT     H282845   9.458   9.090   3.497
27535WAT      O82846   2.794   0.203   2.154
27535WAT     H182847   2.863   0.131   2.167
27535WAT     H282848   2.727   0.173   2.086
27536WAT      O82849   7.749   2.552   0.618
27536WAT     H182850   7.778   2.457   0.607
27536WAT     H282851   7.649   2.557   0.614
27537WAT      O82852   1.661   4.852   4.882
27537WAT     H182853   1.607   4.819   4.960
27537WAT     H282854   1.718   4.778   4.848
27538WAT      O82855   3.041   4.494   2.757
27538WAT     H182856   2.960   4.507   2.814
27538WAT     H282857   3.099   4.423   2.797
27539WAT      O82858   3.741   6.310   9.753
27539WAT     H182859   3.725   6.360   9.839
27539WAT     H282860   3.654   6.282   9.714
27540WAT      O82861   8.761   0.216   0.838
27540WAT     H182862   8.854   0.249   0.825
27540WAT     H282863   8.696   0.282   0.799
27541WAT      O82864   1.214   9.481   2.439
27541WAT     H182865   1.202   9.569   2.486
27541WAT     H282866   1.216   9.498   2.340
27542WAT      O82867   8.089   2.423   1.170
27542WAT     H182868   8.049   2.449   1.082
27542WAT     H282869   8.173   2.475   1.185
27543WAT      O82870   2.848   4.457   9.424
27543WAT     H182871   2.928   4.447   9.364
27543WAT     H282872   2.788   4.378   9.412
27544WAT      O82873   5.154   6.552   3.451
27544WAT     H182874   5.078   6.518   3.507
27544WAT     H282875   5.128   6.640   3.410
27545WAT      O82876   2.471   3.016   9.494
27545WAT     H182877   2.475   3.079   9.416
27545WAT     H282878   2.414   2.938   9.470
27546WAT      O82879   0.327   9.415   3.199
27546WAT     H182880   0.321   9.514   3.186
27546WAT     H282881   0.403   9.379   3.145
27547WAT      O82882   4.814   5.491   7.487
27547WAT     H182883   4.861   5.560   7.433
27547WAT     H282884   4.877   5.452   7.555
27548WAT      O82885   9.788   9.213   1.322
27548WAT     H182886   9.842   9.164   1.391
27548WAT     H282887   9.778   9.309   1.350
27549WAT      O82888   6.693   8.726   0.174
27549WAT     H182889   6.607   8.693   0.213
27549WAT     H282890   6.769   8.677   0.215
27550WAT      O82891   7.550   3.048   4.145
27550WAT     H182892   7.496   3.087   4.219
27550WAT     H282893   7.635   3.099   4.134
27551WAT      O82894   9.741   4.285   1.405
27551WAT     H182895   9.809   4.358   1.410
27551WAT     H282896   9.746   4.240   1.316
27552WAT      O82897   1.257   0.816   1.753
27552WAT     H182898   1.309   0.891   1.794
27552WAT     H282899   1.309   0.731   1.762
27553WAT      O82900   4.698   2.325   3.933
27553WAT     H182901   4.613   2.363   3.900
27553WAT     H282902   4.679   2.262   4.009
27554WAT      O82903   1.848   6.485   1.099
27554WAT     H182904   1.897   6.550   1.041
27554WAT     H282905   1.756   6.519   1.116
27555WAT      O82906   7.448   8.834   5.494
27555WAT     H182907   7.465   8.914   5.437
27555WAT     H282908   7.492   8.753   5.453
27556WAT      O82909   0.650   2.556   2.602
27556WAT     H182910   0.717   2.541   2.675
27556WAT     H282911   0.693   2.608   2.528
27557WAT      O82912   1.132   2.556   2.140
27557WAT     H182913   1.081   2.638   2.164
27557WAT     H282914   1.079   2.502   2.074
27558WAT      O82915   9.710   3.894   0.032
27558WAT     H182916   9.794   3.930   0.072
27558WAT     H282917   9.657   3.847   0.103
27559WAT      O82918   0.367   6.728   5.656
27559WAT     H182919   0.374   6.827   5.660
27559WAT     H282920   0.313   6.695   5.734
27560WAT      O82921   8.496   6.204   8.320
27560WAT     H182922   8.487   6.104   8.319
27560WAT     H282923   8.589   6.228   8.347
27561WAT      O82924   0.652   6.901   0.428
27561WAT     H182925   0.565   6.904   0.478
27561WAT     H282926   0.637   6.859   0.339
27562WAT      O82927   3.254   0.367   2.924
27562WAT     H182928   3.336   0.397   2.876
27562WAT     H282929   3.204   0.447   2.960
27563WAT      O82930   5.868   6.504   0.488
27563WAT     H182931   5.811   6.556   0.552
27563WAT     H282932   5.942   6.459   0.538
27564WAT      O82933   8.334   1.842   1.460
27564WAT     H182934   8.430   1.863   1.439
27564WAT     H282935   8.329   1.799   1.551
27565WAT      O82936   2.954   5.416   0.737
27565WAT     H182937   2.889   5.474   0.785
27565WAT     H282938   3.032   5.471   0.707
27566WAT      O82939   4.931   2.082   3.162
27566WAT     H182940   4.910   2.173   3.126
27566WAT     H282941   4.980   2.090   3.249
27567WAT      O82942   2.200   6.006   0.409
27567WAT     H182943   2.184   5.923   0.355
27567WAT     H282944   2.298   6.017   0.424
27568WAT      O82945   0.629   8.279   0.197
27568WAT     H182946   0.644   8.222   0.278
27568WAT     H282947   0.553   8.241   0.144
27569WAT      O82948   5.515   1.474   5.503
27569WAT     H182949   5.514   1.534   5.584
27569WAT     H282950   5.607   1.436   5.491
27570WAT      O82951   7.777   3.072   6.304
27570WAT     H182952   7.684   3.045   6.328
27570WAT     H282953   7.777   3.165   6.268
27571WAT      O82954   0.656   9.125   9.566
27571WAT     H182955   0.723   9.198   9.584
27571WAT     H282956   0.573   9.166   9.527
27572WAT      O82957   9.013   2.975   4.154
27572WAT     H182958   8.924   2.991   4.197
27572WAT     H282959   9.022   3.035   4.074
27573WAT      O82960   7.613   5.959   0.593
27573WAT     H182961   7.554   6.039   0.591
27573WAT     H282962   7.631   5.928   0.500
27574WAT      O82963   8.052   0.048   1.657
27574WAT     H182964   8.028   0.098   1.740
27574WAT     H282965   8.122  -0.021   1.677
27575WAT      O82966   1.546   1.401   0.660
27575WAT     H182967   1.517   1.316   0.615
27575WAT     H282968   1.567   1.470   0.590
27576WAT      O82969   8.551   0.277   4.245
27576WAT     H182970   8.518   0.269   4.339
27576WAT     H282971   8.564   0.185   4.206
27577WAT      O82972   7.186   2.414   5.925
27577WAT     H182973   7.265   2.463   5.960
27577WAT     H282974   7.156   2.346   5.992
27578WAT      O82975   4.306   9.710   4.295
27578WAT     H182976   4.399   9.673   4.302
27578WAT     H282977   4.284   9.725   4.199
27579WAT      O82978   4.561   9.786   6.090
27579WAT     H182979   4.652   9.803   6.126
27579WAT     H282980   4.542   9.688   6.093
27580WAT      O82981   7.533   0.354   9.834
27580WAT     H182982   7.465   0.361   9.761
27580WAT     H282983   7.503   0.286   9.902
27581WAT      O82984   6.339   5.774   5.314
27581WAT     H182985   6.261   5.726   5.353
27581WAT     H282986   6.369   5.847   5.376
27582WAT      O82987   5.348   6.332   5.289
27582WAT     H182988   5.320   6.343   5.385
27582WAT     H282989   5.446   6.346   5.282
27583WAT      O82990   2.145   7.030   2.130
27583WAT     H182991   2.233   6.982   2.124
27583WAT     H282992   2.099   7.028   2.042
27584WAT      O82993   6.606   1.652   1.762
27584WAT     H182994   6.669   1.584   1.725
27584WAT     H282995   6.511   1.624   1.743
27585WAT      O82996   1.380   6.596   0.924
27585WAT     H182997   1.405   6.649   0.843
27585WAT     H282998   1.331   6.655   0.988
27586WAT      O82999   6.367   1.551   6.263
27586WAT     H183000   6.302   1.563   6.188
27586WAT     H283001   6.383   1.454   6.278
27587WAT      O83002   3.492   5.809   7.785
27587WAT     H183003   3.445   5.723   7.764
27587WAT     H283004   3.566   5.793   7.849
27588WAT      O83005   8.125   9.816   9.368
27588WAT     H183006   8.170   9.831   9.456
27588WAT     H283007   8.028   9.840   9.375
27589WAT      O83008   2.899   9.327   7.574
27589WAT     H183009   2.837   9.329   7.652
27589WAT     H283010   2.931   9.234   7.558
27590WAT      O83011   0.402   6.777   1.207
27590WAT     H183012   0.469   6.758   1.136
27590WAT     H283013   0.447   6.785   1.296
27591WAT      O83014   8.873   5.472   4.709
27591WAT     H183015   8.952   5.411   4.708
27591WAT     H283016   8.804   5.438   4.645
27592WAT      O83017   9.570   7.703   2.235
27592WAT     H183018   9.656   7.654   2.247
27592WAT     H283019   9.574   7.758   2.152
27593WAT      O83020   0.398   2.341   2.601
27593WAT     H183021   0.322   2.387   2.555
27593WAT     H283022   0.468   2.317   2.533
27594WAT      O83023   4.451   6.654   2.409
27594WAT     H183024   4.512   6.693   2.340
27594WAT     H283025   4.445   6.717   2.487
27595WAT      O83026   6.881   9.330   5.949
27595WAT     H183027   6.905   9.418   5.991
27595WAT     H283028   6.782   9.318   5.952
27596WAT      O83029   6.452   1.283   7.659
27596WAT     H183030   6.367   1.252   7.617
27596WAT     H283031   6.457   1.382   7.655
27597WAT      O83032   6.294   3.926   5.219
27597WAT     H183033   6.232   3.895   5.147
27597WAT     H283034   6.387   3.895   5.199
27598WAT      O83035   7.884   4.418   1.533
27598WAT     H183036   7.965   4.377   1.492
27598WAT     H283037   7.909   4.466   1.618
27599WAT      O83038   2.595   6.827   3.501
27599WAT     H183039   2.681   6.789   3.536
27599WAT     H283040   2.575   6.787   3.411
27600WAT      O83041   9.292   6.983   0.419
27600WAT     H183042   9.232   6.967   0.341
27600WAT     H283043   9.300   7.081   0.436
27601WAT      O83044   7.773   1.445   7.181
27601WAT     H183045   7.761   1.543   7.162
27601WAT     H283046   7.866   1.428   7.213
27602WAT      O83047   5.834   7.055   4.299
27602WAT     H183048   5.747   7.104   4.287
27602WAT     H283049   5.888   7.063   4.215
27603WAT      O83050   3.934   4.825   7.569
27603WAT     H183051   3.885   4.774   7.639
27603WAT     H283052   3.869   4.864   7.504
27604WAT      O83053   3.920   9.586   5.683
27604WAT     H183054   3.845   9.549   5.736
27604WAT     H283055   3.937   9.528   5.604
27605WAT      O83056   2.472   6.573   3.590
27605WAT     H183057   2.386   6.563   3.540
27605WAT     H283058   2.498   6.670   3.593
27606WAT      O83059   5.147   3.147   5.929
27606WAT     H183060   5.139   3.235   5.977
27606WAT     H283061   5.055   3.111   5.910
27607WAT      O83062   7.193   6.974   1.347
27607WAT     H183063   7.185   6.991   1.445
27607WAT     H283064   7.288   6.955   1.324
27608WAT      O83065   9.841   1.988   3.736
27608WAT     H183066   9.903   1.918   3.701
27608WAT     H283067   9.748   1.969   3.705
27609WAT      O83068   6.129   4.562   2.730
27609WAT     H183069   6.121   4.500   2.652
27609WAT     H283070   6.068   4.533   2.803
27610WAT      O83071   7.784   4.683   4.968
27610WAT     H183072   7.863   4.656   5.023
27610WAT     H283073   7.700   4.648   5.010
27611WAT      O83074   1.610   9.129   2.862
27611WAT     H183075   1.585   9.172   2.949
27611WAT     H283076   1.698   9.082   2.873
27612WAT      O83077   5.665   4.437   5.684
27612WAT     H183078   5.582   4.385   5.704
27612WAT     H283079   5.659   4.477   5.593
27613WAT      O83080   6.163   3.794   0.923
27613WAT     H183081   6.145   3.707   0.878
27613WAT     H283082   6.196   3.860   0.855
27614WAT      O83083   6.690   6.526   5.055
27614WAT     H183084   6.715   6.600   4.993
27614WAT     H283085   6.590   6.522   5.062
27615WAT      O83086   9.721   4.027   2.838
27615WAT     H183087   9.805   4.081   2.825
27615WAT     H283088   9.675   4.015   2.749
27616WAT      O83089   6.869   8.828   5.746
27616WAT     H183090   6.854   8.744   5.798
27616WAT     H283091   6.960   8.863   5.764
27617WAT      O83092   8.363   4.853   6.150
27617WAT     H183093   8.382   4.821   6.243
27617WAT     H283094   8.363   4.776   6.087
27618WAT      O83095   9.357   5.263   9.735
27618WAT     H183096   9.291   5.246   9.808
27618WAT     H283097   9.431   5.196   9.740
27619WAT      O83098   6.116   9.583   7.227
27619WAT     H183099   6.124   9.587   7.326
27619WAT     H283100   6.043   9.519   7.202
27620WAT      O83101   8.880   3.558   2.917
27620WAT     H183102   8.883   3.551   3.017
27620WAT     H283103   8.808   3.499   2.881
27621WAT      O83104   8.826   5.131   5.012
27621WAT     H183105   8.904   5.129   4.949
27621WAT     H283106   8.805   5.226   5.035
27622WAT      O83107   5.005   7.605   0.234
27622WAT     H183108   5.010   7.674   0.306
27622WAT     H283109   5.011   7.649   0.144
27623WAT      O83110   5.229   4.668   8.015
27623WAT     H183111   5.186   4.584   8.048
27623WAT     H283112   5.328   4.662   8.029
27624WAT      O83113   2.022   0.150   0.935
27624WAT     H183114   1.954   0.108   0.995
27624WAT     H283115   1.984   0.234   0.896
27625WAT      O83116   0.582   4.977   3.033
27625WAT     H183117   0.670   4.943   3.002
27625WAT     H283118   0.512   4.907   3.018
27626WAT      O83119   4.769   6.965   7.156
27626WAT     H183120   4.685   6.912   7.146
27626WAT     H283121   4.770   7.039   7.088
27627WAT      O83122   5.874   9.279   6.191
27627WAT     H183123   5.944   9.302   6.259
27627WAT     H283124   5.851   9.182   6.200
27628WAT      O83125   0.867   1.633   2.256
27628WAT     H183126   0.966   1.633   2.271
27628WAT     H283127   0.826   1.711   2.304
27629WAT      O83128   5.385   2.060   6.560
27629WAT     H183129   5.485   2.053   6.560
27629WAT     H283130   5.346   1.974   6.592
27630WAT      O83131   2.950   7.478   2.090
27630WAT     H183132   3.026   7.506   2.032
27630WAT     H283133   2.973   7.394   2.137
27631WAT      O83134   4.014   5.698   6.195
27631WAT     H183135   4.109   5.729   6.193
27631WAT     H283136   4.011   5.600   6.177
27632WAT      O83137   8.141   1.057   3.575
27632WAT     H183138   8.216   1.106   3.622
27632WAT     H283139   8.167   0.961   3.563
27633WAT      O83140   6.543   5.461   6.453
27633WAT     H183141   6.631   5.432   6.415
27633WAT     H283142   6.485   5.381   6.466
27634WAT      O83143   3.692   3.773   7.745
27634WAT     H183144   3.706   3.799   7.650
27634WAT     H283145   3.694   3.673   7.753
27635WAT      O83146   7.659   5.588   0.158
27635WAT     H183147   7.698   5.514   0.104
27635WAT     H283148   7.688   5.578   0.254
27636WAT      O83149   0.327   7.319   0.437
27636WAT     H183150   0.379   7.343   0.519
27636WAT     H283151   0.372   7.244   0.390
27637WAT      O83152   7.152   6.977   3.271
27637WAT     H183153   7.054   6.964   3.287
27637WAT     H283154   7.202   6.971   3.358
27638WAT      O83155   5.845   3.368   0.277
27638WAT     H183156   5.823   3.460   0.245
27638WAT     H283157   5.901   3.321   0.209
27639WAT      O83158   6.836   7.190   0.036
27639WAT     H183159   6.925   7.155   0.009
27639WAT     H283160   6.767   7.163  -0.031
27640WAT      O83161   2.290   4.106   0.559
27640WAT     H183162   2.202   4.154   0.564
27640WAT     H283163   2.354   4.148   0.624
27641WAT      O83164   4.309   3.680   9.024
27641WAT     H183165   4.218   3.713   9.051
27641WAT     H283166   4.355   3.750   8.969
27642WAT      O83167   5.479   3.254   1.575
27642WAT     H183168   5.480   3.250   1.675
27642WAT     H283169   5.387   3.278   1.544
27643WAT      O83170   9.069   3.029   1.389
27643WAT     H183171   9.075   2.957   1.319
27643WAT     H283172   9.122   3.003   1.469
27644WAT      O83173   5.540   8.352   6.476
27644WAT     H183174   5.603   8.290   6.523
27644WAT     H283175   5.534   8.438   6.527
27645WAT      O83176   7.028   6.402   2.304
27645WAT     H183177   6.976   6.341   2.364
27645WAT     H283178   7.102   6.351   2.261
27646WAT      O83179   8.652   5.151   3.446
27646WAT     H183180   8.703   5.237   3.436
27646WAT     H283181   8.584   5.143   3.374
27647WAT      O83182   5.589   4.643   4.484
27647WAT     H183183   5.575   4.617   4.389
27647WAT     H283184   5.566   4.565   4.543
27648WAT      O83185   5.622   7.466   0.751
27648WAT     H183186   5.703   7.523   0.737
27648WAT     H283187   5.558   7.481   0.675
27649WAT      O83188   6.904   9.015   7.081
27649WAT     H183189   6.876   9.104   7.118
27649WAT     H283190   6.927   8.954   7.156
27650WAT      O83191   7.701   4.849   0.910
27650WAT     H183192   7.643   4.791   0.968
27650WAT     H283193   7.701   4.814   0.817
27651WAT      O83194   3.858   8.359   1.953
27651WAT     H183195   3.882   8.339   2.048
27651WAT     H283196   3.759   8.371   1.945
27652WAT      O83197   7.713   0.048   2.870
27652WAT     H183198   7.639  -0.015   2.896
27652WAT     H283199   7.745   0.025   2.778
27653WAT      O83200   2.859   7.329   3.124
27653WAT     H183201   2.907   7.241   3.130
27653WAT     H283202   2.807   7.344   3.207
27654WAT      O83203   4.265   9.704   8.679
27654WAT     H183204   4.297   9.666   8.591
27654WAT     H283205   4.311   9.791   8.696
27655WAT      O83206   7.736   1.977   7.814
27655WAT     H183207   7.657   1.929   7.852
27655WAT     H283208   7.808   1.912   7.794
27656WAT      O83209   4.699   2.145   4.146
27656WAT     H183210   4.769   2.093   4.097
27656WAT     H283211   4.695   2.115   4.241
27657WAT      O83212   5.579   5.517   0.840
27657WAT     H183213   5.559   5.449   0.911
27657WAT     H283214   5.557   5.478   0.750
27658WAT      O83215   9.117   5.054   3.467
27658WAT     H183216   9.044   5.006   3.419
27658WAT     H283217   9.094   5.151   3.476
27659WAT      O83218   7.990   9.654   6.128
27659WAT     H183219   7.930   9.718   6.079
27659WAT     H283220   7.983   9.670   6.226
27660WAT      O83221   8.472   8.096   8.235
27660WAT     H183222   8.549   8.044   8.198
27660WAT     H283223   8.425   8.143   8.160
27661WAT      O83224   7.648   2.754   6.803
27661WAT     H183225   7.587   2.791   6.873
27661WAT     H283226   7.734   2.725   6.845
27662WAT      O83227   6.089   3.980   0.266
27662WAT     H183228   6.030   3.913   0.221
27662WAT     H283229   6.181   3.942   0.275
27663WAT      O83230   1.646   6.501   6.694
27663WAT     H183231   1.553   6.537   6.682
27663WAT     H283232   1.651   6.451   6.780
27664WAT      O83233   2.277   8.460   7.214
27664WAT     H183234   2.254   8.417   7.127
27664WAT     H283235   2.211   8.533   7.233
27665WAT      O83236   3.327   7.625   8.748
27665WAT     H183237   3.427   7.618   8.755
27665WAT     H283238   3.284   7.559   8.809
27666WAT      O83239   8.874   0.873   1.627
27666WAT     H183240   8.818   0.950   1.658
27666WAT     H283241   8.970   0.888   1.652
27667WAT      O83242   9.775   2.697   8.223
27667WAT     H183243   9.783   2.784   8.174
27667WAT     H283244   9.718   2.709   8.304
27668WAT      O83245   9.527   1.008   3.102
27668WAT     H183246   9.590   0.955   3.159
27668WAT     H283247   9.578   1.075   3.049
27669WAT      O83248   7.024   3.601   7.543
27669WAT     H183249   6.967   3.628   7.621
27669WAT     H283250   6.968   3.551   7.477
27670WAT      O83251   5.302   8.911   5.975
27670WAT     H183252   5.288   9.009   5.984
27670WAT     H283253   5.218   8.868   5.941
27671WAT      O83254   9.837   0.418   8.616
27671WAT     H183255   9.866   0.480   8.543
27671WAT     H283256   9.787   0.469   8.685
27672WAT      O83257   4.223   2.812   4.050
27672WAT     H183258   4.264   2.902   4.060
27672WAT     H283259   4.179   2.805   3.961
27673WAT      O83260   0.308   9.303   0.583
27673WAT     H183261   0.274   9.209   0.573
27673WAT     H283262   0.332   9.339   0.493
27674WAT      O83263   2.482   1.988   7.009
27674WAT     H183264   2.552   1.928   7.048
27674WAT     H283265   2.510   2.018   6.917
27675WAT      O83266   1.139   9.682   5.745
27675WAT     H183267   1.072   9.612   5.769
27675WAT     H283268   1.201   9.647   5.675
27676WAT      O83269   2.731   7.666   2.421
27676WAT     H183270   2.770   7.574   2.425
27676WAT     H283271   2.670   7.680   2.498
27677WAT      O83272   9.229   1.152   2.859
27677WAT     H183273   9.137   1.119   2.835
27677WAT     H283274   9.223   1.222   2.929
27678WAT      O83275   3.574   1.734   6.355
27678WAT     H183276   3.592   1.819   6.306
27678WAT     H283277   3.581   1.751   6.454
27679WAT      O83278   6.175   7.954   6.845
27679WAT     H183279   6.080   7.944   6.873
27679WAT     H283280   6.196   8.051   6.830
27680WAT      O83281   1.731   4.701   0.038
27680WAT     H183282   1.663   4.629   0.023
27680WAT     H283283   1.822   4.664   0.023
27681WAT      O83284   1.445   7.184   7.050
27681WAT     H183285   1.431   7.132   7.135
27681WAT     H283286   1.415   7.279   7.064
27682WAT      O83287   9.499   5.323   9.341
27682WAT     H183288   9.517   5.247   9.404
27682WAT     H283289   9.523   5.295   9.248
27683WAT      O83290   7.572   3.474   4.490
27683WAT     H183291   7.651   3.430   4.448
27683WAT     H283292   7.494   3.410   4.489
27684WAT      O83293   9.095   0.771   8.659
27684WAT     H183294   9.074   0.845   8.722
27684WAT     H283295   9.194   0.766   8.645
27685WAT      O83296   8.881   0.859   7.357
27685WAT     H183297   8.857   0.868   7.260
27685WAT     H283298   8.957   0.920   7.379
27686WAT      O83299   3.699   7.047   6.812
27686WAT     H183300   3.632   6.975   6.793
27686WAT     H283301   3.791   7.009   6.804
27687WAT      O83302   4.368   8.273   6.486
27687WAT     H183303   4.389   8.371   6.477
27687WAT     H283304   4.271   8.262   6.506
27688WAT      O83305   7.352   9.493   0.186
27688WAT     H183306   7.382   9.404   0.220
27688WAT     H283307   7.347   9.490   0.086
27689WAT      O83308   8.318   1.467   3.404
27689WAT     H183309   8.248   1.474   3.475
27689WAT     H283310   8.396   1.524   3.428
27690WAT      O83311   9.499   2.496   9.818
27690WAT     H183312   9.559   2.561   9.773
27690WAT     H283313   9.514   2.500   9.917
27691WAT      O83314   2.791   6.765   3.671
27691WAT     H183315   2.864   6.760   3.603
27691WAT     H283316   2.825   6.734   3.760
27692WAT      O83317   7.522   3.304   5.030
27692WAT     H183318   7.485   3.364   4.958
27692WAT     H283319   7.499   3.209   5.009
27693WAT      O83320   1.343   7.785   5.660
27693WAT     H183321   1.248   7.805   5.639
27693WAT     H283322   1.350   7.740   5.749
27694WAT      O83323   0.749   9.460   0.023
27694WAT     H183324   0.718   9.367   0.005
27694WAT     H283325   0.752   9.476   0.122
27695WAT      O83326   3.370   4.932   0.659
27695WAT     H183327   3.312   4.990   0.717
27695WAT     H283328   3.409   4.987   0.585
27696WAT      O83329   3.537   7.385   9.542
27696WAT     H183330   3.592   7.304   9.522
27696WAT     H283331   3.452   7.358   9.586
27697WAT      O83332   5.538   1.748   0.017
27697WAT     H183333   5.525   1.689   0.097
27697WAT     H283334   5.597   1.702  -0.049
27698WAT      O83335   8.494   5.865   7.000
27698WAT     H183336   8.447   5.820   7.076
27698WAT     H283337   8.460   5.958   6.990
27699WAT      O83338   1.689   3.486   0.251
27699WAT     H183339   1.769   3.545   0.246
27699WAT     H283340   1.705   3.414   0.318
27700WAT      O83341   5.526   0.593   4.625
27700WAT     H183342   5.529   0.525   4.552
27700WAT     H283343   5.605   0.654   4.616
27701WAT      O83344   5.357   3.482   0.871
27701WAT     H183345   5.260   3.457   0.871
27701WAT     H283346   5.367   3.578   0.897
27702WAT      O83347   6.109   9.485   4.316
27702WAT     H183348   6.103   9.534   4.228
27702WAT     H283349   6.036   9.416   4.320
27703WAT      O83350   1.691   0.470   1.811
27703WAT     H183351   1.741   0.390   1.846
27703WAT     H283352   1.677   0.459   1.712
27704WAT      O83353   9.828   0.214   0.095
27704WAT     H183354   9.811   0.140   0.160
27704WAT     H283355   9.888   0.181   0.022
27705WAT      O83356   8.008   3.850   3.193
27705WAT     H183357   7.950   3.910   3.248
27705WAT     H283358   8.038   3.899   3.111
27706WAT      O83359   5.623   2.229   7.360
27706WAT     H183360   5.555   2.181   7.306
27706WAT     H283361   5.583   2.260   7.446
27707WAT      O83362   6.327   3.267   3.479
27707WAT     H183363   6.345   3.355   3.524
27707WAT     H283364   6.261   3.216   3.534
27708WAT      O83365   6.446   0.055   2.893
27708WAT     H183366   6.451   0.155   2.903
27708WAT     H283367   6.401   0.016   2.973
27709WAT      O83368   7.599   9.609   6.461
27709WAT     H183369   7.664   9.581   6.531
27709WAT     H283370   7.550   9.690   6.492
27710WAT      O83371   9.468   1.250   6.448
27710WAT     H183372   9.529   1.292   6.381
27710WAT     H283373   9.389   1.210   6.401
27711WAT      O83374   3.258   5.277   1.904
27711WAT     H183375   3.354   5.282   1.876
27711WAT     H283376   3.247   5.204   1.971
27712WAT      O83377   1.884   2.304   3.231
27712WAT     H183378   1.853   2.351   3.148
27712WAT     H283379   1.897   2.371   3.304
27713WAT      O83380   6.827   4.809   6.966
27713WAT     H183381   6.832   4.872   7.044
27713WAT     H283382   6.840   4.716   6.998
27714WAT      O83383   1.511   3.522   3.584
27714WAT     H183384   1.594   3.574   3.603
27714WAT     H283385   1.512   3.437   3.636
27715WAT      O83386   6.226   4.375   9.883
27715WAT     H183387   6.285   4.446   9.845
27715WAT     H283388   6.282   4.300   9.918
27716WAT      O83389   5.943   2.208   8.370
27716WAT     H183390   5.947   2.113   8.338
27716WAT     H283391   6.036   2.244   8.378
27717WAT      O83392   2.626   1.396   0.610
27717WAT     H183393   2.555   1.348   0.558
27717WAT     H283394   2.699   1.333   0.634
27718WAT      O83395   5.477   4.441   7.262
27718WAT     H183396   5.509   4.435   7.356
27718WAT     H283397   5.387   4.486   7.260
27719WAT      O83398   7.844   1.687   5.529
27719WAT     H183399   7.871   1.747   5.604
27719WAT     H283400   7.858   1.735   5.442
27720WAT      O83401   0.475   2.442   9.637
27720WAT     H183402   0.486   2.351   9.596
27720WAT     H283403   0.423   2.434   9.722
27721WAT      O83404   5.496   0.718   9.560
27721WAT     H183405   5.529   0.813   9.560
27721WAT     H283406   5.477   0.689   9.653
27722WAT      O83407   9.113   0.290   8.103
27722WAT     H183408   9.100   0.344   8.020
27722WAT     H283409   9.067   0.202   8.093
27723WAT      O83410   0.589   5.960   0.085
27723WAT     H183411   0.625   6.003   0.169
27723WAT     H283412   0.508   5.907   0.108
27724WAT      O83413   2.885   6.055   3.085
27724WAT     H183414   2.868   5.957   3.080
27724WAT     H283415   2.862   6.088   3.177
27725WAT      O83416   0.647   5.102   8.724
27725WAT     H183417   0.616   5.193   8.752
27725WAT     H283418   0.698   5.059   8.799
27726WAT      O83419   3.127   0.183   5.234
27726WAT     H183420   3.074   0.236   5.300
27726WAT     H283421   3.099   0.087   5.238
27727WAT      O83422   8.312   1.952   9.481
27727WAT     H183423   8.384   1.886   9.503
27727WAT     H283424   8.277   1.992   9.566
27728WAT      O83425   5.276   1.731   0.343
27728WAT     H183426   5.182   1.765   0.346
27728WAT     H283427   5.337   1.800   0.383
27729WAT      O83428   7.300   7.919   9.065
27729WAT     H183429   7.231   7.888   9.131
27729WAT     H283430   7.309   8.019   9.071
27730WAT      O83431   0.051   1.654   5.518
27730WAT     H183432   0.099   1.706   5.447
27730WAT     H283433   0.052   1.557   5.494
27731WAT      O83434   2.911   4.456   0.222
27731WAT     H183435   2.820   4.417   0.214
27731WAT     H283436   2.937   4.497   0.135
27732WAT      O83437   8.804   3.153   6.719
27732WAT     H183438   8.839   3.065   6.752
27732WAT     H283439   8.704   3.150   6.716
27733WAT      O83440   5.668   4.299   1.908
27733WAT     H183441   5.690   4.239   1.985
27733WAT     H283442   5.740   4.290   1.839
27734WAT      O83443   4.881   0.890   9.661
27734WAT     H183444   4.878   0.951   9.582
27734WAT     H283445   4.791   0.888   9.705
27735WAT      O83446   8.725   3.302   8.994
27735WAT     H183447   8.666   3.249   8.932
27735WAT     H283448   8.770   3.374   8.942
27736WAT      O83449   1.639   9.747   4.235
27736WAT     H183450   1.679   9.660   4.261
27736WAT     H283451   1.609   9.796   4.317
27737WAT      O83452   1.227   6.395   6.078
27737WAT     H183453   1.279   6.402   6.163
27737WAT     H283454   1.133   6.367   6.098
27738WAT      O83455   0.316   7.731   8.610
27738WAT     H183456   0.287   7.744   8.516
27738WAT     H283457   0.346   7.636   8.623
27739WAT      O83458   2.652   6.677   6.777
27739WAT     H183459   2.669   6.610   6.849
27739WAT     H283460   2.563   6.720   6.791
27740WAT      O83461   0.326   4.802   0.480
27740WAT     H183462   0.408   4.746   0.485
27740WAT     H283463   0.294   4.821   0.573
27741WAT      O83464   3.053   3.635   8.903
27741WAT     H183465   3.038   3.537   8.888
27741WAT     H283466   3.150   3.651   8.921
27742WAT      O83467   2.005   6.068   6.897
27742WAT     H183468   2.086   6.022   6.860
27742WAT     H283469   1.991   6.154   6.849
27743WAT      O83470   7.570   9.247   1.175
27743WAT     H183471   7.581   9.151   1.149
27743WAT     H283472   7.592   9.306   1.097
27744WAT      O83473   2.274   4.515   6.768
27744WAT     H183474   2.251   4.611   6.751
27744WAT     H283475   2.236   4.458   6.696
27745WAT      O83476   7.630   4.135   6.838
27745WAT     H183477   7.721   4.098   6.819
27745WAT     H283478   7.618   4.145   6.936
27746WAT      O83479   1.153   9.171   5.186
27746WAT     H183480   1.092   9.105   5.231
27746WAT     H283481   1.244   9.131   5.175
27747WAT      O83482   0.354   5.811   4.238
27747WAT     H183483   0.354   5.827   4.337
27747WAT     H283484   0.403   5.726   4.218
27748WAT      O83485   3.216   7.932   6.331
27748WAT     H183486   3.160   7.866   6.281
27748WAT     H283487   3.199   8.024   6.296
27749WAT      O83488   0.196   6.025   2.178
27749WAT     H183489   0.140   6.104   2.154
27749WAT     H283490   0.239   5.988   2.096
27750WAT      O83491   8.094   9.552   4.123
27750WAT     H183492   8.076   9.623   4.191
27750WAT     H283493   8.165   9.490   4.158
27751WAT      O83494   8.345   7.154   7.656
27751WAT     H183495   8.296   7.155   7.743
27751WAT     H283496   8.416   7.084   7.658
27752WAT      O83497   5.037   4.975   3.575
27752WAT     H183498   5.082   4.896   3.616
27752WAT     H283499   5.106   5.045   3.553
27753WAT      O83500   8.344   1.124   5.511
27753WAT     H183501   8.394   1.123   5.598
27753WAT     H283502   8.381   1.051   5.452
27754WAT      O83503   3.897   6.558   7.932
27754WAT     H183504   3.855   6.557   7.841
27754WAT     H283505   3.916   6.652   7.960
27755WAT      O83506   4.681   4.219   0.879
27755WAT     H183507   4.675   4.288   0.951
27755WAT     H283508   4.718   4.261   0.796
27756WAT      O83509   5.218   2.084   1.277
27756WAT     H183510   5.296   2.049   1.226
27756WAT     H283511   5.148   2.012   1.282
27757WAT      O83512   2.749   0.111   2.767
27757WAT     H183513   2.672   0.174   2.777
27757WAT     H283514   2.813   0.146   2.700
27758WAT      O83515   6.401   3.160   1.792
27758WAT     H183516   6.377   3.106   1.711
27758WAT     H283517   6.425   3.253   1.764
27759WAT      O83518   5.714   3.254   0.477
27759WAT     H183519   5.774   3.299   0.411
27759WAT     H283520   5.767   3.194   0.536
27760WAT      O83521   8.607   9.548   7.977
27760WAT     H183522   8.537   9.557   8.049
27760WAT     H283523   8.574   9.592   7.894
27761WAT      O83524   7.253   1.715   6.823
27761WAT     H183525   7.258   1.698   6.724
27761WAT     H283526   7.160   1.701   6.855
27762WAT      O83527   3.428   4.436   5.625
27762WAT     H183528   3.463   4.384   5.547
27762WAT     H283529   3.438   4.381   5.708
27763WAT      O83530   6.365   9.082   4.124
27763WAT     H183531   6.453   9.049   4.088
27763WAT     H283532   6.294   9.069   4.055
27764WAT      O83533   0.158   8.883   8.024
27764WAT     H183534   0.108   8.908   7.941
27764WAT     H283535   0.234   8.947   8.038
27765WAT      O83536   9.581   3.491   4.505
27765WAT     H183537   9.497   3.489   4.451
27765WAT     H283538   9.560   3.522   4.598
27766WAT      O83539   9.568   8.061   3.811
27766WAT     H183540   9.661   8.035   3.836
27766WAT     H283541   9.515   7.979   3.788
27767WAT      O83542   6.904   0.715   8.938
27767WAT     H183543   6.910   0.771   9.020
27767WAT     H283544   6.959   0.758   8.865
27768WAT      O83545   1.518   4.310   3.966
27768WAT     H183546   1.421   4.303   3.941
27768WAT     H283547   1.562   4.377   3.906
27769WAT      O83548   1.860   3.888   4.336
27769WAT     H183549   1.886   3.810   4.279
27769WAT     H283550   1.938   3.950   4.345
27770WAT      O83551   0.773   8.579   8.448
27770WAT     H183552   0.679   8.592   8.477
27770WAT     H283553   0.775   8.550   8.352
27771WAT      O83554   0.148   2.573   8.305
27771WAT     H183555   0.110   2.481   8.315
27771WAT     H283556   0.074   2.639   8.291
27772WAT      O83557   6.328   0.603   8.477
27772WAT     H183558   6.286   0.611   8.387
27772WAT     H283559   6.281   0.533   8.531
27773WAT      O83560   0.804   0.518   8.923
27773WAT     H183561   0.788   0.481   9.015
27773WAT     H283562   0.758   0.606   8.915
27774WAT      O83563   8.580   1.948   2.177
27774WAT     H183564   8.550   1.969   2.084
27774WAT     H283565   8.518   1.991   2.243
27775WAT      O83566   1.942   4.195   2.666
27775WAT     H183567   1.961   4.293   2.663
27775WAT     H283568   1.851   4.180   2.704
27776WAT      O83569   4.041   1.466   5.166
27776WAT     H183570   4.113   1.477   5.235
27776WAT     H283571   3.956   1.505   5.200
27777WAT      O83572   7.511   5.751   6.927
27777WAT     H183573   7.437   5.699   6.885
27777WAT     H283574   7.586   5.689   6.950
27778WAT      O83575   2.825   0.337   2.418
27778WAT     H183576   2.728   0.318   2.434
27778WAT     H283577   2.851   0.304   2.328
27779WAT      O83578   7.868   8.771   4.976
27779WAT     H183579   7.856   8.766   4.877
27779WAT     H283580   7.871   8.867   5.004
27780WAT      O83581   1.009   6.538   4.507
27780WAT     H183582   1.028   6.463   4.571
27780WAT     H283583   0.940   6.599   4.547
27781WAT      O83584   7.454   1.799   8.382
27781WAT     H183585   7.449   1.824   8.479
27781WAT     H283586   7.467   1.700   8.374
27782WAT      O83587   0.734   6.601   6.977
27782WAT     H183588   0.745   6.665   6.901
27782WAT     H283589   0.677   6.524   6.949
27783WAT      O83590   7.137   3.996   3.504
27783WAT     H183591   7.212   4.009   3.440
27783WAT     H283592   7.116   3.898   3.512
27784WAT      O83593   9.114   7.502   5.752
27784WAT     H183594   9.080   7.596   5.760
27784WAT     H283595   9.121   7.461   5.843
27785WAT      O83596   4.643   4.014   0.215
27785WAT     H183597   4.705   4.034   0.291
27785WAT     H283598   4.557   4.061   0.230
27786WAT      O83599   2.062   3.516   2.232
27786WAT     H183600   2.092   3.609   2.253
27786WAT     H283601   2.138   3.453   2.247
27787WAT      O83602   4.936   9.649   4.419
27787WAT     H183603   4.865   9.670   4.351
27787WAT     H283604   4.979   9.734   4.448
27788WAT      O83605   9.879   1.140   7.035
27788WAT     H183606   9.953   1.206   7.021
27788WAT     H283607   9.792   1.181   7.005
27789WAT      O83608   1.066   7.387   3.544
27789WAT     H183609   1.109   7.314   3.491
27789WAT     H283610   1.115   7.398   3.631
27790WAT      O83611   2.796   4.698   4.615
27790WAT     H183612   2.884   4.688   4.660
27790WAT     H283613   2.767   4.793   4.619
27791WAT      O83614   2.347   5.836   0.581
27791WAT     H183615   2.429   5.795   0.541
27791WAT     H283616   2.277   5.766   0.590
27792WAT      O83617   3.946   9.207   8.863
27792WAT     H183618   3.925   9.197   8.766
27792WAT     H283619   3.901   9.289   8.899
27793WAT      O83620   7.823   6.305   1.838
27793WAT     H183621   7.805   6.216   1.796
27793WAT     H283622   7.811   6.298   1.937
27794WAT      O83623   8.808   7.093   7.313
27794WAT     H183624   8.796   6.996   7.296
27794WAT     H283625   8.786   7.114   7.409
27795WAT      O83626   4.084   3.942   6.820
27795WAT     H183627   4.184   3.949   6.821
27795WAT     H283628   4.047   3.981   6.905
27796WAT      O83629   9.401   1.699   5.575
27796WAT     H183630   9.365   1.652   5.494
27796WAT     H283631   9.501   1.705   5.568
27797WAT      O83632   5.714   5.022   5.165
27797WAT     H183633   5.765   5.096   5.209
27797WAT     H283634   5.679   5.053   5.077
27798WAT      O83635   2.378   0.231   7.147
27798WAT     H183636   2.422   0.202   7.232
27798WAT     H283637   2.339   0.152   7.101
27799WAT      O83638   6.765   6.498   0.260
27799WAT     H183639   6.859   6.516   0.288
27799WAT     H283640   6.713   6.466   0.339
27800WAT      O83641   5.553   5.038   7.319
27800WAT     H183642   5.628   5.041   7.252
27800WAT     H283643   5.483   4.974   7.287
27801WAT      O83644   6.417   3.547   8.872
27801WAT     H183645   6.490   3.606   8.904
27801WAT     H283646   6.329   3.594   8.882
27802WAT      O83647   3.239   0.781   9.201
27802WAT     H183648   3.255   0.831   9.116
27802WAT     H283649   3.318   0.792   9.261
27803WAT      O83650   4.929   1.763   1.770
27803WAT     H183651   4.869   1.799   1.699
27803WAT     H283652   4.925   1.822   1.850
27804WAT      O83653   7.201   2.945   4.264
27804WAT     H183654   7.136   3.000   4.318
27804WAT     H283655   7.184   2.848   4.282
27805WAT      O83656   4.282   9.524   1.718
27805WAT     H183657   4.223   9.589   1.766
27805WAT     H283658   4.226   9.456   1.672
27806WAT      O83659   3.578   5.484   7.107
27806WAT     H183660   3.616   5.452   7.193
27806WAT     H283661   3.583   5.410   7.039
27807WAT      O83662   9.520   7.127   3.000
27807WAT     H183663   9.489   7.137   2.905
27807WAT     H283664   9.618   7.108   3.001
27808WAT      O83665   9.721   2.633   4.152
27808WAT     H183666   9.740   2.704   4.084
27808WAT     H283667   9.629   2.647   4.191
27809WAT      O83668   7.127   3.967   8.497
27809WAT     H183669   7.175   3.954   8.584
27809WAT     H283670   7.106   3.877   8.458
27810WAT      O83671   1.538   3.622   2.575
27810WAT     H183672   1.454   3.637   2.523
27810WAT     H283673   1.617   3.640   2.516
27811WAT      O83674   0.807   6.880   0.640
27811WAT     H183675   0.746   6.892   0.561
27811WAT     H283676   0.819   6.783   0.658
27812WAT      O83677   6.508   8.185   8.172
27812WAT     H183678   6.426   8.237   8.192
27812WAT     H283679   6.543   8.211   8.082
27813WAT      O83680   3.212   3.493   2.294
27813WAT     H183681   3.228   3.474   2.391
27813WAT     H283682   3.277   3.440   2.240
27814WAT      O83683   9.432   1.690   0.159
27814WAT     H183684   9.504   1.668   0.226
27814WAT     H283685   9.342   1.672   0.200
27815WAT      O83686   7.591   8.893   4.729
27815WAT     H183687   7.676   8.841   4.725
27815WAT     H283688   7.612   8.991   4.723
27816WAT      O83689   3.770   2.748   7.714
27816WAT     H183690   3.673   2.752   7.736
27816WAT     H283691   3.796   2.831   7.665
27817WAT      O83692   3.074   5.543   8.807
27817WAT     H183693   3.089   5.624   8.750
27817WAT     H283694   3.140   5.543   8.882
27818WAT      O83695   2.188   4.728   9.326
27818WAT     H183696   2.198   4.632   9.300
27818WAT     H283697   2.244   4.746   9.407
27819WAT      O83698   8.853   0.662   3.492
27819WAT     H183699   8.925   0.600   3.460
27819WAT     H283700   8.856   0.666   3.592
27820WAT      O83701   5.024   2.705   9.735
27820WAT     H183702   5.012   2.614   9.696
27820WAT     H283703   4.937   2.755   9.731
27821WAT      O83704   3.620   8.865   2.379
27821WAT     H183705   3.660   8.839   2.292
27821WAT     H283706   3.678   8.832   2.454
27822WAT      O83707   9.872   7.383   9.357
27822WAT     H183708   9.857   7.480   9.334
27822WAT     H283709   9.784   7.338   9.368
27823WAT      O83710   4.807   0.607   9.260
27823WAT     H183711   4.801   0.520   9.211
27823WAT     H283712   4.899   0.617   9.299
27824WAT      O83713   7.224   5.603   2.312
27824WAT     H183714   7.248   5.672   2.243
27824WAT     H283715   7.128   5.613   2.337
27825WAT      O83716   5.378   4.245   4.690
27825WAT     H183717   5.292   4.198   4.707
27825WAT     H283718   5.439   4.186   4.638
27826WAT      O83719   4.623   5.905   6.420
27826WAT     H183720   4.634   5.906   6.320
27826WAT     H283721   4.579   5.819   6.447
27827WAT      O83722   6.650   5.458   2.558
27827WAT     H183723   6.642   5.544   2.508
27827WAT     H283724   6.678   5.476   2.652
27828WAT      O83725   8.498   3.548   5.615
27828WAT     H183726   8.533   3.637   5.643
27828WAT     H283727   8.398   3.553   5.607
27829WAT      O83728   3.805   3.584   7.333
27829WAT     H183729   3.787   3.514   7.264
27829WAT     H283730   3.863   3.546   7.404
27830WAT      O83731   5.847   9.267   7.626
27830WAT     H183732   5.931   9.273   7.571
27830WAT     H283733   5.768   9.262   7.565
27831WAT      O83734   7.918   3.338   8.346
27831WAT     H183735   7.999   3.317   8.290
27831WAT     H283736   7.947   3.380   8.432
27832WAT      O83737   0.862   2.135   9.418
27832WAT     H183738   0.945   2.128   9.474
27832WAT     H283739   0.837   2.232   9.407
27833WAT      O83740   1.576   8.222   9.529
27833WAT     H183741   1.600   8.314   9.559
27833WAT     H283742   1.657   8.174   9.497
27834WAT      O83743   2.503   3.006   9.767
27834WAT     H183744   2.461   2.920   9.797
27834WAT     H283745   2.530   2.998   9.671
27835WAT      O83746   9.303   2.153   6.818
27835WAT     H183747   9.239   2.116   6.750
27835WAT     H283748   9.263   2.143   6.909
27836WAT      O83749   8.802   5.489   9.156
27836WAT     H183750   8.751   5.441   9.228
27836WAT     H283751   8.880   5.432   9.129
27837WAT      O83752   9.106   6.089   4.447
27837WAT     H183753   9.011   6.079   4.477
27837WAT     H283754   9.108   6.119   4.352
27838WAT      O83755   4.366   2.585   5.496
27838WAT     H183756   4.436   2.629   5.552
27838WAT     H283757   4.350   2.640   5.414
27839WAT      O83758   2.623   5.584   9.442
27839WAT     H183759   2.632   5.684   9.450
27839WAT     H283760   2.598   5.561   9.348
27840WAT      O83761   2.664   9.387   5.169
27840WAT     H183762   2.668   9.476   5.124
27840WAT     H283763   2.751   9.340   5.158
27841WAT      O83764   3.569   3.703   1.463
27841WAT     H183765   3.599   3.788   1.420
27841WAT     H283766   3.530   3.723   1.553
27842WAT      O83767   4.616   6.459   3.611
27842WAT     H183768   4.518   6.466   3.629
27842WAT     H283769   4.659   6.400   3.680
27843WAT      O83770   6.112   5.089   5.108
27843WAT     H183771   6.040   5.146   5.148
27843WAT     H283772   6.189   5.082   5.173
27844WAT      O83773   6.488   0.839   0.820
27844WAT     H183774   6.521   0.749   0.847
27844WAT     H283775   6.498   0.903   0.896
27845WAT      O83776   3.799   2.888   5.955
27845WAT     H183777   3.894   2.912   5.934
27845WAT     H283778   3.756   2.848   5.874
27846WAT      O83779   9.519   4.104   5.035
27846WAT     H183780   9.467   4.151   5.106
27846WAT     H283781   9.617   4.121   5.049
27847WAT      O83782   1.487   9.632   4.038
27847WAT     H183783   1.523   9.546   4.004
27847WAT     H283784   1.552   9.672   4.103
27848WAT      O83785   4.812   2.766   2.231
27848WAT     H183786   4.822   2.717   2.317
27848WAT     H283787   4.892   2.824   2.216
27849WAT      O83788   0.187   7.006   1.556
27849WAT     H183789   0.227   7.047   1.475
27849WAT     H283790   0.245   7.024   1.636
27850WAT      O83791   4.076   5.232   8.847
27850WAT     H183792   4.072   5.288   8.930
27850WAT     H283793   4.131   5.278   8.778
27851WAT      O83794   6.697   2.017   4.431
27851WAT     H183795   6.726   2.109   4.401
27851WAT     H283796   6.671   2.020   4.527
27852WAT      O83797   1.892   6.586   6.730
27852WAT     H183798   1.798   6.571   6.700
27852WAT     H283799   1.942   6.637   6.661
27853WAT      O83800   4.945   4.250   7.949
27853WAT     H183801   4.901   4.243   7.860
27853WAT     H283802   4.943   4.161   7.994
27854WAT      O83803   8.444   9.481   0.401
27854WAT     H183804   8.426   9.500   0.304
27854WAT     H283805   8.362   9.500   0.454
27855WAT      O83806   4.817   1.752   4.710
27855WAT     H183807   4.738   1.744   4.772
27855WAT     H283808   4.855   1.844   4.717
27856WAT      O83809   6.905   6.059   7.146
27856WAT     H183810   6.823   6.101   7.186
27856WAT     H283811   6.896   6.057   7.047
27857WAT      O83812   2.482   5.318   2.394
27857WAT     H183813   2.386   5.309   2.368
27857WAT     H283814   2.531   5.370   2.323
27858WAT      O83815   3.384   1.960   8.006
27858WAT     H183816   3.398   2.059   8.000
27858WAT     H283817   3.470   1.915   8.029
27859WAT      O83818   9.868   4.512   7.590
27859WAT     H183819   9.933   4.548   7.656
27859WAT     H283820   9.827   4.428   7.625
27860WAT      O83821   1.522   0.473   5.798
27860WAT     H183822   1.617   0.483   5.769
27860WAT     H283823   1.469   0.552   5.768
27861WAT      O83824   4.017   6.350   1.366
27861WAT     H183825   4.010   6.292   1.285
27861WAT     H283826   4.087   6.420   1.353
27862WAT      O83827   8.626   1.813   7.400
27862WAT     H183828   8.599   1.897   7.352
27862WAT     H283829   8.648   1.834   7.495
27863WAT      O83830   3.058   3.329   8.832
27863WAT     H183831   3.090   3.266   8.903
27863WAT     H283832   3.008   3.278   8.762
27864WAT      O83833   2.817   3.083   8.974
27864WAT     H183834   2.746   3.153   8.984
27864WAT     H283835   2.905   3.122   9.000
27865WAT      O83836   4.691   7.394   6.783
27865WAT     H183837   4.677   7.491   6.804
27865WAT     H283838   4.711   7.345   6.868
27866WAT      O83839   5.198   0.352   4.482
27866WAT     H183840   5.248   0.286   4.537
27866WAT     H283841   5.197   0.441   4.529
27867WAT      O83842   2.744   1.421   8.387
27867WAT     H183843   2.708   1.346   8.332
27867WAT     H283844   2.818   1.387   8.445
27868WAT      O83845   8.524   4.796   2.454
27868WAT     H183846   8.548   4.719   2.513
27868WAT     H283847   8.429   4.822   2.469
27869WAT      O83848   7.615   8.505   3.602
27869WAT     H183849   7.620   8.454   3.516
27869WAT     H283850   7.692   8.480   3.660
27870WAT      O83851   6.507   5.410   5.491
27870WAT     H183852   6.500   5.509   5.480
27870WAT     H283853   6.417   5.368   5.475
27871WAT      O83854   0.101   2.796   6.415
27871WAT     H183855   0.179   2.736   6.432
27871WAT     H283856   0.103   2.874   6.478
27872WAT      O83857   0.989   9.154   0.578
27872WAT     H183858   0.893   9.175   0.562
27872WAT     H283859   1.036   9.235   0.614
27873WAT      O83860   5.554   5.541   6.098
27873WAT     H183861   5.618   5.483   6.046
27873WAT     H283862   5.599   5.573   6.181
27874WAT      O83863   2.255   2.409   4.633
27874WAT     H183864   2.330   2.378   4.692
27874WAT     H283865   2.175   2.432   4.688
27875WAT      O83866   9.575   6.325   5.110
27875WAT     H183867   9.528   6.385   5.044
27875WAT     H283868   9.601   6.379   5.190
27876WAT      O83869   8.895   5.165   7.030
27876WAT     H183870   8.961   5.239   7.032
27876WAT     H283871   8.913   5.102   7.106
27877WAT      O83872   1.049   3.855   1.183
27877WAT     H183873   1.025   3.758   1.189
27877WAT     H283874   1.142   3.864   1.145
27878WAT      O83875   4.108   1.458   1.206
27878WAT     H183876   4.185   1.498   1.256
27878WAT     H283877   4.140   1.426   1.116
27879WAT      O83878   3.374   1.987   5.481
27879WAT     H183879   3.296   1.927   5.503
27879WAT     H283880   3.364   2.073   5.531
27880WAT      O83881   1.033   1.689   3.451
27880WAT     H183882   0.946   1.738   3.456
27880WAT     H283883   1.105   1.752   3.422
27881WAT      O83884   8.369   5.337   7.235
27881WAT     H183885   8.277   5.375   7.245
27881WAT     H283886   8.412   5.374   7.153
27882WAT      O83887   8.929   7.913   2.085
27882WAT     H183888   8.974   7.941   2.170
27882WAT     H283889   8.976   7.832   2.048
27883WAT      O83890   6.632   0.693   5.700
27883WAT     H183891   6.689   0.673   5.780
27883WAT     H283892   6.547   0.737   5.729
27884WAT      O83893   7.902   4.153   9.562
27884WAT     H183894   7.891   4.201   9.648
27884WAT     H283895   7.898   4.218   9.486
27885WAT      O83896   2.878   2.256   1.227
27885WAT     H183897   2.944   2.206   1.282
27885WAT     H283898   2.875   2.352   1.256
27886WAT      O83899   7.820   0.424   6.853
27886WAT     H183900   7.772   0.344   6.888
27886WAT     H283901   7.780   0.452   6.766
27887WAT      O83902   4.777   5.701   2.397
27887WAT     H183903   4.789   5.681   2.494
27887WAT     H283904   4.723   5.629   2.355
27888WAT      O83905   5.742   0.324   6.082
27888WAT     H183906   5.716   0.366   6.169
27888WAT     H283907   5.804   0.385   6.033
27889WAT      O83908   4.024   8.051   2.824
27889WAT     H183909   4.034   8.099   2.737
27889WAT     H283910   3.977   8.111   2.889
27890WAT      O83911   0.708   5.045   3.272
27890WAT     H183912   0.660   5.033   3.184
27890WAT     H283913   0.642   5.037   3.347
27891WAT      O83914   9.357   6.893   1.698
27891WAT     H183915   9.404   6.811   1.730
27891WAT     H283916   9.396   6.922   1.611
27892WAT      O83917   0.765   4.960   2.656
27892WAT     H183918   0.772   4.863   2.634
27892WAT     H283919   0.783   4.974   2.753
27893WAT      O83920   8.477   2.347   6.274
27893WAT     H183921   8.549   2.305   6.330
27893WAT     H283922   8.395   2.360   6.329
27894WAT      O83923   9.490   1.947   5.011
27894WAT     H183924   9.401   1.926   4.970
27894WAT     H283925   9.511   1.879   5.082
27895WAT      O83926   8.626   7.436   8.679
27895WAT     H183927   8.595   7.392   8.594
27895WAT     H283928   8.674   7.521   8.656
27896WAT      O83929   7.832   7.970   6.469
27896WAT     H183930   7.781   7.949   6.552
27896WAT     H283931   7.851   8.068   6.466
27897WAT      O83932   4.925   6.758   3.278
27897WAT     H183933   4.870   6.842   3.278
27897WAT     H283934   4.913   6.711   3.190
27898WAT      O83935   5.921   5.965   8.220
27898WAT     H183936   5.893   5.884   8.270
27898WAT     H283937   6.016   5.988   8.245
27899WAT      O83938   5.764   4.854   1.361
27899WAT     H183939   5.724   4.944   1.345
27899WAT     H283940   5.863   4.862   1.366
27900WAT      O83941   8.490   7.218   6.006
27900WAT     H183942   8.580   7.247   5.974
27900WAT     H283943   8.493   7.120   6.029
27901WAT      O83944   2.489   1.494   8.730
27901WAT     H183945   2.566   1.430   8.732
27901WAT     H283946   2.482   1.534   8.638
27902WAT      O83947   5.206   3.394   1.199
27902WAT     H183948   5.165   3.362   1.285
27902WAT     H283949   5.241   3.316   1.147
27903WAT      O83950   1.828   5.262   2.301
27903WAT     H183951   1.922   5.240   2.275
27903WAT     H283952   1.826   5.347   2.352
27904WAT      O83953   9.857   0.356   6.844
27904WAT     H183954   9.841   0.379   6.940
27904WAT     H283955   9.802   0.277   6.818
27905WAT      O83956   8.284   3.276   7.110
27905WAT     H183957   8.215   3.247   7.044
27905WAT     H283958   8.298   3.375   7.102
27906WAT      O83959   2.444   7.445   5.673
27906WAT     H183960   2.537   7.431   5.640
27906WAT     H283961   2.435   7.410   5.766
27907WAT      O83962   7.298   7.967   7.399
27907WAT     H183963   7.303   7.986   7.301
27907WAT     H283964   7.256   7.877   7.413
27908WAT      O83965   6.940   1.674   6.586
27908WAT     H183966   6.879   1.600   6.557
27908WAT     H283967   6.961   1.664   6.683
27909WAT      O83968   0.844   6.358   5.807
27909WAT     H183969   0.825   6.391   5.899
27909WAT     H283970   0.835   6.433   5.742
27910WAT      O83971   6.467   2.374   3.145
27910WAT     H183972   6.556   2.362   3.099
27910WAT     H283973   6.459   2.468   3.178
27911WAT      O83974   1.429   2.192   7.180
27911WAT     H183975   1.429   2.289   7.202
27911WAT     H283976   1.405   2.179   7.084
27912WAT      O83977   2.295   0.875   4.990
27912WAT     H183978   2.384   0.872   5.036
27912WAT     H283979   2.308   0.909   4.897
27913WAT      O83980   2.089   7.607   9.008
27913WAT     H183981   2.099   7.706   8.997
27913WAT     H283982   1.995   7.581   8.986
27914WAT      O83983   0.568   1.136   2.120
27914WAT     H183984   0.655   1.182   2.134
27914WAT     H283985   0.582   1.055   2.062
27915WAT      O83986   0.429   8.435   1.280
27915WAT     H183987   0.337   8.412   1.248
27915WAT     H283988   0.464   8.360   1.336
27916WAT      O83989   4.427   7.519   1.060
27916WAT     H183990   4.491   7.445   1.080
27916WAT     H283991   4.391   7.557   1.145
27917WAT      O83992   4.866   1.156   8.169
27917WAT     H183993   4.953   1.130   8.128
27917WAT     H283994   4.881   1.193   8.261
27918WAT      O83995   0.382   8.290   0.913
27918WAT     H183996   0.336   8.201   0.907
27918WAT     H283997   0.317   8.363   0.893
27919WAT      O83998   8.732   6.388   3.393
27919WAT     H183999   8.661   6.318   3.379
27919WAT     H284000   8.822   6.348   3.374
27920WAT      O84001   5.314   4.911   6.485
27920WAT     H184002   5.233   4.933   6.539
27920WAT     H284003   5.387   4.879   6.545
27921WAT      O84004   6.644   8.556   4.123
27921WAT     H184005   6.680   8.620   4.056
27921WAT     H284006   6.599   8.480   4.076
27922WAT      O84007   4.318   3.818   9.572
27922WAT     H184008   4.388   3.771   9.626
27922WAT     H284009   4.357   3.850   9.486
27923WAT      O84010   3.786   3.740   8.410
27923WAT     H184011   3.750   3.719   8.319
27923WAT     H284012   3.739   3.682   8.478
27924WAT      O84013   9.093   2.759   6.984
27924WAT     H184014   9.166   2.709   6.938
27924WAT     H284015   9.084   2.850   6.944
27925WAT      O84016   0.372   7.802   3.266
27925WAT     H184017   0.338   7.869   3.200
27925WAT     H284018   0.393   7.716   3.218
27926WAT      O84019   2.497   6.202   8.009
27926WAT     H184020   2.585   6.213   7.963
27926WAT     H284021   2.426   6.249   7.955
27927WAT      O84022   5.335   0.689   2.912
27927WAT     H184023   5.311   0.725   3.002
27927WAT     H284024   5.420   0.731   2.882
27928WAT      O84025   8.049   8.343   5.457
27928WAT     H184026   8.003   8.423   5.496
27928WAT     H284027   8.143   8.367   5.433
27929WAT      O84028   6.203   1.108   5.260
27929WAT     H184029   6.303   1.105   5.260
27929WAT     H284030   6.172   1.170   5.188
27930WAT      O84031   7.529   0.298   4.781
27930WAT     H184032   7.504   0.380   4.832
27930WAT     H284033   7.524   0.218   4.842
27931WAT      O84034   4.040   8.977   6.187
27931WAT     H184035   4.043   9.074   6.161
27931WAT     H284036   4.047   8.920   6.105
27932WAT      O84037   1.172   9.283   6.644
27932WAT     H184038   1.161   9.199   6.697
27932WAT     H284039   1.103   9.287   6.572
27933WAT      O84040   2.862   8.428   3.069
27933WAT     H184041   2.883   8.423   3.167
27933WAT     H284042   2.784   8.369   3.049
27934WAT      O84043   0.081   2.573   2.801
27934WAT     H184044   0.071   2.533   2.892
27934WAT     H284045   0.103   2.670   2.809
27935WAT      O84046   1.400   6.514   9.684
27935WAT     H184047   1.482   6.461   9.708
27935WAT     H284048   1.320   6.474   9.729
27936WAT      O84049   2.780   2.057   2.223
27936WAT     H184050   2.823   2.080   2.136
27936WAT     H284051   2.753   2.140   2.271
27937WAT      O84052   5.235   4.451   3.038
27937WAT     H184053   5.213   4.353   3.033
27937WAT     H284054   5.183   4.493   3.112
27938WAT      O84055   4.251   1.575   7.811
27938WAT     H184056   4.342   1.544   7.836
27938WAT     H284057   4.239   1.671   7.837
27939WAT      O84058   8.611   8.845   7.635
27939WAT     H184059   8.559   8.808   7.711
27939WAT     H284060   8.700   8.798   7.630
27940WAT      O84061   5.178   6.375   6.681
27940WAT     H184062   5.133   6.398   6.767
27940WAT     H284063   5.272   6.407   6.684
27941WAT      O84064   3.224   1.557   9.094
27941WAT     H184065   3.276   1.509   9.164
27941WAT     H284066   3.257   1.531   9.003
27942WAT      O84067   0.060   9.269   4.645
27942WAT     H184068  -0.028   9.220   4.644
27942WAT     H284069   0.048   9.357   4.691
27943WAT      O84070   3.805   3.780   5.457
27943WAT     H184071   3.850   3.794   5.545
27943WAT     H284072   3.873   3.759   5.387
27944WAT      O84073   6.615   2.933   0.759
27944WAT     H184074   6.576   2.960   0.847
27944WAT     H284075   6.708   2.969   0.751
27945WAT      O84076   1.706   7.567   1.852
27945WAT     H184077   1.739   7.650   1.896
27945WAT     H284078   1.607   7.571   1.840
27946WAT      O84079   6.019   9.767   5.558
27946WAT     H184080   5.970   9.743   5.474
27946WAT     H284081   6.114   9.789   5.536
27947WAT      O84082   1.718   3.739   1.803
27947WAT     H184083   1.812   3.724   1.774
27947WAT     H284084   1.685   3.658   1.851
27948WAT      O84085   7.180   6.307   2.543
27948WAT     H184086   7.206   6.261   2.458
27948WAT     H284087   7.125   6.245   2.600
27949WAT      O84088   5.776   2.327   2.872
27949WAT     H184089   5.716   2.387   2.925
27949WAT     H284090   5.839   2.383   2.818
27950WAT      O84091   5.895   5.810   1.083
27950WAT     H184092   5.940   5.868   1.015
27950WAT     H284093   5.965   5.769   1.142
27951WAT      O84094   7.592   3.417   5.274
27951WAT     H184095   7.588   3.400   5.175
27951WAT     H284096   7.677   3.464   5.296
27952WAT      O84097   4.298   5.622   5.406
27952WAT     H184098   4.237   5.636   5.327
27952WAT     H284099   4.264   5.675   5.484
27953WAT      O84100   5.482   4.961   8.567
27953WAT     H184101   5.399   4.926   8.610
27953WAT     H284102   5.515   5.041   8.618
27954WAT      O84103   9.888   5.348   4.198
27954WAT     H184104   9.912   5.308   4.110
27954WAT     H284105   9.846   5.278   4.257
27955WAT      O84106   0.486   3.927   3.161
27955WAT     H184107   0.437   3.979   3.091
27955WAT     H284108   0.577   3.967   3.176
27956WAT      O84109   4.545   3.435   0.230
27956WAT     H184110   4.477   3.377   0.274
27956WAT     H284111   4.516   3.531   0.236
27957WAT      O84112   2.300   8.263   5.739
27957WAT     H184113   2.395   8.232   5.728
27957WAT     H284114   2.268   8.240   5.830
27958WAT      O84115   8.708   2.404   4.591
27958WAT     H184116   8.712   2.440   4.684
27958WAT     H284117   8.793   2.429   4.543
27959WAT      O84118   0.080   2.482   5.370
27959WAT     H184119   0.007   2.419   5.346
27959WAT     H284120   0.043   2.559   5.422
27960WAT      O84121   7.868   3.511   6.762
27960WAT     H184122   7.769   3.522   6.756
27960WAT     H284123   7.913   3.591   6.721
27961WAT      O84124   1.361   5.138   3.350
27961WAT     H184125   1.424   5.215   3.358
27961WAT     H284126   1.403   5.065   3.297
27962WAT      O84127   8.864   8.771   7.123
27962WAT     H184128   8.940   8.822   7.163
27962WAT     H284129   8.800   8.744   7.195
27963WAT      O84130   8.295   7.627   7.949
27963WAT     H184131   8.340   7.644   8.037
27963WAT     H284132   8.348   7.561   7.896
27964WAT      O84133   8.863   4.817   6.674
27964WAT     H184134   8.861   4.910   6.711
27964WAT     H284135   8.851   4.751   6.748
27965WAT      O84136   3.994   6.170   2.380
27965WAT     H184137   3.919   6.206   2.436
27965WAT     H284138   3.960   6.099   2.319
27966WAT      O84139   1.849   7.075   0.359
27966WAT     H184140   1.944   7.074   0.328
27966WAT     H284141   1.788   7.067   0.280
27967WAT      O84142   8.469   5.035   6.904
27967WAT     H184143   8.392   5.077   6.855
27967WAT     H284144   8.501   4.955   6.853
27968WAT      O84145   4.630   6.808   9.776
27968WAT     H184146   4.566   6.747   9.822
27968WAT     H284147   4.621   6.900   9.814
27969WAT      O84148   4.540   4.507   6.415
27969WAT     H184149   4.486   4.432   6.452
27969WAT     H284150   4.492   4.547   6.336
27970WAT      O84151   5.710   5.219   6.823
27970WAT     H184152   5.735   5.292   6.886
27970WAT     H284153   5.655   5.151   6.871
27971WAT      O84154   1.354   0.092   1.129
27971WAT     H184155   1.335   0.066   1.224
27971WAT     H284156   1.446   0.063   1.103
27972WAT      O84157   7.233   1.179   9.668
27972WAT     H184158   7.304   1.124   9.712
27972WAT     H284159   7.152   1.182   9.727
27973WAT      O84160   9.500   4.265   6.438
27973WAT     H184161   9.558   4.259   6.357
27973WAT     H284162   9.409   4.229   6.417
27974WAT      O84163   2.481   5.260   7.005
27974WAT     H184164   2.401   5.277   6.947
27974WAT     H284165   2.484   5.327   7.079
27975WAT      O84166   1.880   2.195   8.472
27975WAT     H184167   1.935   2.115   8.496
27975WAT     H284168   1.884   2.262   8.546
27976WAT      O84169   5.334   0.773   6.267
27976WAT     H184170   5.320   0.709   6.343
27976WAT     H284171   5.291   0.860   6.289
27977WAT      O84172   7.907   4.832   2.650
27977WAT     H184173   8.004   4.825   2.625
27977WAT     H284174   7.892   4.788   2.739
27978WAT      O84175   0.702   8.128   9.172
27978WAT     H184176   0.704   8.076   9.257
27978WAT     H284177   0.706   8.225   9.193
27979WAT      O84178   1.854   8.100   6.893
27979WAT     H184179   1.836   8.184   6.945
27979WAT     H284180   1.903   8.035   6.951
27980WAT      O84181   6.830   4.333   8.891
27980WAT     H184182   6.869   4.262   8.831
27980WAT     H284183   6.731   4.325   8.890
27981WAT      O84184   5.793   2.112   2.525
27981WAT     H184185   5.751   2.097   2.615
27981WAT     H284186   5.886   2.074   2.526
27982WAT      O84187   6.893   7.311   6.727
27982WAT     H184188   6.891   7.407   6.698
27982WAT     H284189   6.988   7.283   6.739
27983WAT      O84190   2.948   9.197   0.641
27983WAT     H184191   2.880   9.141   0.689
27983WAT     H284192   3.021   9.139   0.607
27984WAT      O84193   7.477   3.351   3.108
27984WAT     H184194   7.415   3.427   3.088
27984WAT     H284195   7.449   3.271   3.055
27985WAT      O84196   4.304   8.259   3.591
27985WAT     H184197   4.363   8.193   3.639
27985WAT     H284198   4.209   8.242   3.615
27986WAT      O84199   5.680   5.213   8.380
27986WAT     H184200   5.752   5.144   8.382
27986WAT     H284201   5.640   5.218   8.288
27987WAT      O84202   9.643   7.605   2.674
27987WAT     H184203   9.640   7.545   2.754
27987WAT     H284204   9.726   7.662   2.678
27988WAT      O84205   4.420   8.130   1.004
27988WAT     H184206   4.413   8.031   1.019
27988WAT     H284207   4.471   8.147   0.919
27989WAT      O84208   4.213   7.612   2.626
27989WAT     H184209   4.250   7.704   2.632
27989WAT     H284210   4.228   7.575   2.535
27990WAT      O84211   7.135   5.366   5.574
27990WAT     H184212   7.072   5.431   5.617
27990WAT     H284213   7.100   5.340   5.484
27991WAT      O84214   4.613   0.588   4.095
27991WAT     H184215   4.579   0.609   4.186
27991WAT     H284216   4.702   0.543   4.102
27992WAT      O84217   7.100   5.485   2.006
27992WAT     H184218   7.087   5.393   1.971
27992WAT     H284219   7.189   5.491   2.051
27993WAT      O84220   7.079   0.123   0.227
27993WAT     H184221   7.129   0.095   0.309
27993WAT     H284222   7.124   0.201   0.185
27994WAT      O84223   1.948   5.457   9.307
27994WAT     H184224   1.918   5.368   9.341
27994WAT     H284225   2.010   5.445   9.230
27995WAT      O84226   0.759   3.376   0.888
27995WAT     H184227   0.795   3.296   0.841
27995WAT     H284228   0.821   3.453   0.876
27996WAT      O84229   0.106   2.958   1.219
27996WAT     H184230   0.106   3.016   1.138
27996WAT     H284231   0.200   2.943   1.250
27997WAT      O84232   5.113   5.175   8.064
27997WAT     H184233   5.083   5.193   8.158
27997WAT     H284234   5.121   5.261   8.014
27998WAT      O84235   9.252   4.544   2.415
27998WAT     H184236   9.156   4.564   2.393
27998WAT     H284237   9.297   4.504   2.335
27999WAT      O84238   6.949   9.037   0.719
27999WAT     H184239   6.887   9.039   0.641
27999WAT     H284240   7.040   9.008   0.688
28000WAT      O84241   4.987   2.135   3.450
28000WAT     H184242   4.967   2.232   3.468
28000WAT     H284243   5.053   2.102   3.518
28001WAT      O84244   0.575   1.373   8.461
28001WAT     H184245   0.536   1.393   8.371
28001WAT     H284246   0.503   1.380   8.530
28002WAT      O84247   4.604   4.494   7.577
28002WAT     H184248   4.537   4.569   7.577
28002WAT     H284249   4.641   4.482   7.669
28003WAT      O84250   8.813   9.451   2.799
28003WAT     H184251   8.906   9.414   2.789
28003WAT     H284252   8.814   9.527   2.865
28004WAT      O84253   8.620   6.325   1.390
28004WAT     H184254   8.551   6.343   1.320
28004WAT     H284255   8.611   6.231   1.422
28005WAT      O84256   3.286   9.317   6.091
28005WAT     H184257   3.210   9.253   6.084
28005WAT     H284258   3.371   9.271   6.064
28006WAT      O84259   6.635   0.608   0.543
28006WAT     H184260   6.691   0.549   0.484
28006WAT     H284261   6.650   0.703   0.517
28007WAT      O84262   1.268   3.630   9.744
28007WAT     H184263   1.272   3.534   9.717
28007WAT     H284264   1.174   3.663   9.734
28008WAT      O84265   1.656   0.660   8.014
28008WAT     H184266   1.690   0.658   8.108
28008WAT     H284267   1.607   0.576   7.993
28009WAT      O84268   0.339   2.070   0.621
28009WAT     H184269   0.376   2.157   0.589
28009WAT     H284270   0.390   2.039   0.701
28010WAT      O84271   7.370   7.400   4.646
28010WAT     H184272   7.318   7.325   4.605
28010WAT     H284273   7.353   7.484   4.596
28011WAT      O84274   5.223   9.745   1.603
28011WAT     H184275   5.200   9.703   1.691
28011WAT     H284276   5.318   9.778   1.606
28012WAT      O84277   7.659   4.306   4.884
28012WAT     H184278   7.639   4.216   4.845
28012WAT     H284279   7.592   4.373   4.851
28013WAT      O84280   2.214   6.294   2.907
28013WAT     H184281   2.140   6.246   2.859
28013WAT     H284282   2.298   6.286   2.854
28014WAT      O84283   0.421   9.831   0.523
28014WAT     H184284   0.351   9.865   0.460
28014WAT     H284285   0.491   9.782   0.471
28015WAT      O84286   4.264   5.803   9.794
28015WAT     H184287   4.169   5.786   9.767
28015WAT     H284288   4.314   5.717   9.798
28016WAT      O84289   4.386   6.382   7.957
28016WAT     H184290   4.462   6.429   7.912
28016WAT     H284291   4.417   6.346   8.046
28017WAT      O84292   5.084   3.557   0.837
28017WAT     H184293   5.057   3.563   0.933
28017WAT     H284294   5.003   3.548   0.779
28018WAT      O84295   6.369   6.099   2.029
28018WAT     H184296   6.358   6.193   1.995
28018WAT     H284297   6.427   6.047   1.967
28019WAT      O84298   6.096   7.362   5.788
28019WAT     H184299   6.113   7.263   5.786
28019WAT     H284300   6.041   7.385   5.868
28020WAT      O84301   2.154   7.491   5.857
28020WAT     H184302   2.136   7.532   5.768
28020WAT     H284303   2.160   7.392   5.848
28021WAT      O84304   8.554   5.277   0.504
28021WAT     H184305   8.502   5.220   0.567
28021WAT     H284306   8.495   5.349   0.468
28022WAT      O84307   1.777   9.199   0.482
28022WAT     H184308   1.682   9.193   0.452
28022WAT     H284309   1.806   9.111   0.520
28023WAT      O84310   5.434   5.368   7.270
28023WAT     H184311   5.342   5.404   7.284
28023WAT     H284312   5.458   5.309   7.347
28024WAT      O84313   4.174   5.335   5.390
28024WAT     H184314   4.159   5.393   5.310
28024WAT     H284315   4.271   5.334   5.413
28025WAT      O84316   2.197   6.701   8.951
28025WAT     H184317   2.127   6.710   8.881
28025WAT     H284318   2.276   6.652   8.913
28026WAT      O84319   3.972   2.938   9.031
28026WAT     H184320   3.977   2.896   8.940
28026WAT     H284321   3.884   2.914   9.073
28027WAT      O84322   2.002   4.404   9.453
28027WAT     H184323   2.068   4.335   9.482
28027WAT     H284324   2.015   4.425   9.356
28028WAT      O84325   0.802   2.958   4.027
28028WAT     H184326   0.812   2.969   3.928
28028WAT     H284327   0.840   3.038   4.074
28029WAT      O84328   9.213   4.561   1.369
28029WAT     H184329   9.127   4.577   1.418
28029WAT     H284330   9.210   4.470   1.327
28030WAT      O84331   5.626   2.414   9.014
28030WAT     H184332   5.583   2.375   8.933
28030WAT     H284333   5.656   2.340   9.075
28031WAT      O84334   5.975   6.263   7.583
28031WAT     H184335   5.984   6.168   7.551
28031WAT     H284336   5.890   6.274   7.634
28032WAT      O84337   8.457   7.115   6.996
28032WAT     H184338   8.430   7.020   6.976
28032WAT     H284339   8.554   7.117   7.020
28033WAT      O84340   2.975   1.212   8.310
28033WAT     H184341   2.919   1.137   8.275
28033WAT     H284342   2.938   1.242   8.398
28034WAT      O84343   2.504   1.132   3.511
28034WAT     H184344   2.415   1.122   3.556
28034WAT     H284345   2.576   1.141   3.580
28035WAT      O84346   5.148   7.235   4.169
28035WAT     H184347   5.186   7.275   4.086
28035WAT     H284348   5.163   7.136   4.169
28036WAT      O84349   5.617   9.015   4.536
28036WAT     H184350   5.582   9.106   4.560
28036WAT     H284351   5.577   8.986   4.449
28037WAT      O84352   2.337   7.700   6.366
28037WAT     H184353   2.375   7.739   6.451
28037WAT     H284354   2.335   7.601   6.373
28038WAT      O84355   6.435   1.558   6.527
28038WAT     H184356   6.405   1.647   6.561
28038WAT     H284357   6.400   1.544   6.435
28039WAT      O84358   9.208   2.497   0.618
28039WAT     H184359   9.176   2.582   0.659
28039WAT     H284360   9.218   2.510   0.519
28040WAT      O84361   4.024   3.109   4.568
28040WAT     H184362   4.033   3.204   4.600
28040WAT     H284363   3.935   3.073   4.594
28041WAT      O84364   5.248   9.637   9.317
28041WAT     H184365   5.180   9.570   9.287
28041WAT     H284366   5.213   9.687   9.396
28042WAT      O84367   8.686   4.745   0.714
28042WAT     H184368   8.711   4.723   0.620
28042WAT     H284369   8.749   4.697   0.776
28043WAT      O84370   9.812   7.982   3.845
28043WAT     H184371   9.876   8.011   3.917
28043WAT     H284372   9.863   7.959   3.763
28044WAT      O84373   5.805   3.388   6.603
28044WAT     H184374   5.792   3.411   6.506
28044WAT     H284375   5.773   3.295   6.619
28045WAT      O84376   2.504   4.124   0.276
28045WAT     H184377   2.475   4.051   0.337
28045WAT     H284378   2.572   4.182   0.322
28046WAT      O84379   3.090   2.611   2.883
28046WAT     H184380   3.007   2.555   2.883
28046WAT     H284381   3.156   2.575   2.949
28047WAT      O84382   2.602   4.012   9.249
28047WAT     H184383   2.521   4.027   9.307
28047WAT     H284384   2.611   3.914   9.232
28048WAT      O84385   7.918   9.187   1.782
28048WAT     H184386   7.941   9.265   1.840
28048WAT     H284387   7.871   9.117   1.836
28049WAT      O84388   7.489   2.829   7.023
28049WAT     H184389   7.526   2.893   7.090
28049WAT     H284390   7.424   2.768   7.069
28050WAT      O84391   2.432   2.773   0.005
28050WAT     H184392   2.370   2.710  -0.042
28050WAT     H284393   2.417   2.767   0.103
28051WAT      O84394   7.493   6.568   3.316
28051WAT     H184395   7.401   6.607   3.307
28051WAT     H284396   7.494   6.475   3.277
28052WAT      O84397   1.314   8.896   9.895
28052WAT     H184398   1.223   8.897   9.852
28052WAT     H284399   1.370   8.968   9.853
28053WAT      O84400   5.419   7.745   5.203
28053WAT     H184401   5.383   7.751   5.296
28053WAT     H284402   5.388   7.660   5.161
28054WAT      O84403   2.361   2.948   4.469
28054WAT     H184404   2.346   3.021   4.535
28054WAT     H284405   2.274   2.908   4.442
28055WAT      O84406   8.264   0.716   1.134
28055WAT     H184407   8.271   0.816   1.130
28055WAT     H284408   8.167   0.690   1.134
28056WAT      O84409   5.196   1.266   9.481
28056WAT     H184410   5.098   1.265   9.500
28056WAT     H284411   5.225   1.360   9.460
28057WAT      O84412   4.487   7.229   4.309
28057WAT     H184413   4.425   7.247   4.386
28057WAT     H284414   4.478   7.301   4.241
28058WAT      O84415   6.437   1.474   1.135
28058WAT     H184416   6.409   1.461   1.040
28058WAT     H284417   6.389   1.408   1.193
28059WAT      O84418   4.488   8.301   6.733
28059WAT     H184419   4.430   8.366   6.782
28059WAT     H284420   4.438   8.262   6.656
28060WAT      O84421   8.519   4.593   5.732
28060WAT     H184422   8.528   4.675   5.674
28060WAT     H284423   8.455   4.612   5.806
28061WAT      O84424   1.668   8.625   2.815
28061WAT     H184425   1.653   8.562   2.739
28061WAT     H284426   1.766   8.638   2.829
28062WAT      O84427   4.021   0.713   8.719
28062WAT     H184428   4.041   0.629   8.768
28062WAT     H284429   4.099   0.775   8.725
28063WAT      O84430   0.899   4.234   1.449
28063WAT     H184431   0.960   4.164   1.487
28063WAT     H284432   0.826   4.190   1.398
28064WAT      O84433   6.478   3.860   9.472
28064WAT     H184434   6.428   3.778   9.498
28064WAT     H284435   6.536   3.890   9.548
28065WAT      O84436   6.184   5.622   8.371
28065WAT     H184437   6.199   5.531   8.410
28065WAT     H284438   6.241   5.633   8.289
28066WAT      O84439   8.167   5.990   6.504
28066WAT     H184440   8.126   5.906   6.468
28066WAT     H284441   8.199   5.974   6.597
28067WAT      O84442   2.273   3.397   3.177
28067WAT     H184443   2.252   3.363   3.086
28067WAT     H284444   2.189   3.406   3.231
28068WAT      O84445   4.412   8.885   5.558
28068WAT     H184446   4.389   8.932   5.643
28068WAT     H284447   4.457   8.798   5.579
28069WAT      O84448   9.877   5.130   2.425
28069WAT     H184449   9.903   5.146   2.520
28069WAT     H284450   9.928   5.193   2.366
28070WAT      O84451   7.990   1.561   9.536
28070WAT     H184452   7.910   1.525   9.488
28070WAT     H284453   7.963   1.643   9.588
28071WAT      O84454   0.379   5.740   3.723
28071WAT     H184455   0.352   5.818   3.779
28071WAT     H284456   0.312   5.666   3.734
28072WAT      O84457   0.016   2.366   8.839
28072WAT     H184458   0.068   2.289   8.801
28072WAT     H284459   0.039   2.378   8.935
28073WAT      O84460   8.805   4.996   2.834
28073WAT     H184461   8.828   4.992   2.736
28073WAT     H284462   8.725   4.939   2.852
28074WAT      O84463   5.007   4.560   0.103
28074WAT     H184464   4.997   4.461   0.109
28074WAT     H284465   4.990   4.601   0.193
28075WAT      O84466   5.978   0.428   6.632
28075WAT     H184467   6.047   0.386   6.573
28075WAT     H284468   5.902   0.364   6.644
28076WAT      O84469   3.086   2.574   5.814
28076WAT     H184470   2.999   2.537   5.781
28076WAT     H284471   3.161   2.535   5.761
28077WAT      O84472   7.288   2.639   8.517
28077WAT     H184473   7.301   2.614   8.614
28077WAT     H284474   7.191   2.648   8.498
28078WAT      O84475   6.739   5.789   5.746
28078WAT     H184476   6.768   5.779   5.651
28078WAT     H284477   6.753   5.702   5.794
28079WAT      O84478   4.623   5.645   3.086
28079WAT     H184479   4.600   5.638   3.183
28079WAT     H284480   4.608   5.739   3.055
28080WAT      O84481   2.751   1.890   0.942
28080WAT     H184482   2.659   1.927   0.928
28080WAT     H284483   2.777   1.899   1.038
28081WAT      O84484   1.260   6.270   4.060
28081WAT     H184485   1.249   6.177   4.096
28081WAT     H284486   1.170   6.311   4.045
28082WAT      O84487   0.778   7.578   4.488
28082WAT     H184488   0.679   7.567   4.482
28082WAT     H284489   0.823   7.495   4.456
28083WAT      O84490   6.764   7.080   7.711
28083WAT     H184491   6.849   7.115   7.750
28083WAT     H284492   6.702   7.157   7.694
28084WAT      O84493   3.836   6.782   2.279
28084WAT     H184494   3.835   6.730   2.364
28084WAT     H284495   3.769   6.744   2.215
28085WAT      O84496   0.256   1.576   9.866
28085WAT     H184497   0.169   1.621   9.846
28085WAT     H284498   0.269   1.571   9.965
28086WAT      O84499   8.826   1.658   6.603
28086WAT     H184500   8.891   1.675   6.529
28086WAT     H284501   8.741   1.621   6.565
28087WAT      O84502   8.894   3.026   2.040
28087WAT     H184503   8.831   3.017   2.117
28087WAT     H284504   8.912   3.123   2.024
28088WAT      O84505   0.371   3.724   8.271
28088WAT     H184506   0.322   3.643   8.302
28088WAT     H284507   0.333   3.805   8.314
28089WAT      O84508   6.456   2.024   9.523
28089WAT     H184509   6.520   1.963   9.569
28089WAT     H284510   6.368   2.024   9.571
28090WAT      O84511   2.615   3.455   3.763
28090WAT     H184512   2.694   3.394   3.758
28090WAT     H284513   2.594   3.475   3.859
28091WAT      O84514   7.105   5.025   0.364
28091WAT     H184515   7.072   5.017   0.270
28091WAT     H284516   7.147   4.939   0.392
28092WAT      O84517   8.356   0.938   0.386
28092WAT     H184518   8.446   0.968   0.418
28092WAT     H284519   8.307   1.015   0.347
28093WAT      O84520   9.677   7.731   0.195
28093WAT     H184521   9.696   7.801   0.263
28093WAT     H284522   9.691   7.768   0.103
28094WAT      O84523   0.356   4.397   9.398
28094WAT     H184524   0.268   4.430   9.362
28094WAT     H284525   0.425   4.470   9.388
28095WAT      O84526   8.658   9.819   9.318
28095WAT     H184527   8.755   9.842   9.309
28095WAT     H284528   8.605   9.867   9.248
28096WAT      O84529   8.812   7.622   3.307
28096WAT     H184530   8.752   7.568   3.366
28096WAT     H284531   8.800   7.592   3.212
28097WAT      O84532   6.463   7.377   0.793
28097WAT     H184533   6.424   7.337   0.877
28097WAT     H284534   6.552   7.335   0.775
28098WAT      O84535   1.706   7.293   1.638
28098WAT     H184536   1.685   7.235   1.559
28098WAT     H284537   1.744   7.380   1.607
28099WAT      O84538   6.439   0.200   2.355
28099WAT     H184539   6.533   0.209   2.388
28099WAT     H284540   6.414   0.104   2.350
28100WAT      O84541   7.784   9.669   8.736
28100WAT     H184542   7.698   9.618   8.739
28100WAT     H284543   7.778   9.749   8.797
28101WAT      O84544   9.835   3.387   7.703
28101WAT     H184545   9.793   3.343   7.623
28101WAT     H284546   9.877   3.473   7.675
28102WAT      O84547   5.280   9.402   8.586
28102WAT     H184548   5.206   9.458   8.623
28102WAT     H284549   5.365   9.421   8.634
28103WAT      O84550   9.537   8.245   9.637
28103WAT     H184551   9.554   8.224   9.541
28103WAT     H284552   9.518   8.161   9.687
28104WAT      O84553   5.364   0.646   9.348
28104WAT     H184554   5.401   0.686   9.431
28104WAT     H284555   5.374   0.710   9.272
28105WAT      O84556   1.456   5.047   5.623
28105WAT     H184557   1.475   5.130   5.570
28105WAT     H284558   1.516   4.973   5.592
28106WAT      O84559   3.890   9.014   8.653
28106WAT     H184560   3.878   8.915   8.654
28106WAT     H284561   3.977   9.036   8.609
28107WAT      O84562   3.643   7.878   2.181
28107WAT     H184563   3.626   7.970   2.216
28107WAT     H284564   3.557   7.838   2.147
28108WAT      O84565   3.958   7.784   2.868
28108WAT     H184566   3.860   7.777   2.849
28108WAT     H284567   3.991   7.875   2.844
28109WAT      O84568   0.490   2.965   8.116
28109WAT     H184569   0.522   2.917   8.198
28109WAT     H284570   0.481   3.062   8.136
28110WAT      O84571   0.975   3.428   2.000
28110WAT     H184572   0.921   3.448   1.918
28110WAT     H284573   1.065   3.393   1.974
28111WAT      O84574   2.735   6.961   6.392
28111WAT     H184575   2.644   6.965   6.350
28111WAT     H284576   2.805   6.956   6.320
28112WAT      O84577   9.290   9.513   7.187
28112WAT     H184578   9.389   9.515   7.200
28112WAT     H284579   9.252   9.604   7.205
28113WAT      O84580   1.921   3.867   3.340
28113WAT     H184581   1.982   3.942   3.315
28113WAT     H284582   1.849   3.858   3.271
28114WAT      O84583   4.700   8.191   7.671
28114WAT     H184584   4.639   8.126   7.716
28114WAT     H284585   4.795   8.159   7.680
28115WAT      O84586   5.888   8.611   4.657
28115WAT     H184587   5.807   8.632   4.602
28115WAT     H284588   5.962   8.673   4.633
28116WAT      O84589   5.302   2.524   6.673
28116WAT     H184590   5.282   2.428   6.688
28116WAT     H284591   5.217   2.574   6.658
28117WAT      O84592   3.033   1.869   8.212
28117WAT     H184593   3.036   1.816   8.297
28117WAT     H284594   2.998   1.960   8.232
28118WAT      O84595   3.792   5.407   5.508
28118WAT     H184596   3.708   5.431   5.459
28118WAT     H284597   3.789   5.311   5.536
28119WAT      O84598   0.205   6.144   6.441
28119WAT     H184599   0.299   6.115   6.462
28119WAT     H284600   0.141   6.086   6.492
28120WAT      O84601   4.053   9.619   9.285
28120WAT     H184602   3.969   9.638   9.336
28120WAT     H284603   4.091   9.705   9.252
28121WAT      O84604   9.583   3.981   1.187
28121WAT     H184605   9.538   4.070   1.183
28121WAT     H284606   9.678   3.993   1.216
28122WAT      O84607   9.223   8.116   6.712
28122WAT     H184608   9.203   8.018   6.719
28122WAT     H284609   9.322   8.129   6.707
28123WAT      O84610   4.845   2.564   2.913
28123WAT     H184611   4.878   2.644   2.864
28123WAT     H284612   4.746   2.560   2.908
28124WAT      O84613   8.258   0.054   4.305
28124WAT     H184614   8.314   0.109   4.367
28124WAT     H284615   8.303   0.047   4.216
28125WAT      O84616   3.470   6.216   8.519
28125WAT     H184617   3.442   6.312   8.510
28125WAT     H284618   3.551   6.200   8.463
28126WAT      O84619   0.149   7.939   4.909
28126WAT     H184620   0.248   7.930   4.918
28126WAT     H284621   0.110   7.974   4.994
28127WAT      O84622   4.944   6.702   6.337
28127WAT     H184623   4.892   6.787   6.350
28127WAT     H284624   5.036   6.724   6.304
28128WAT      O84625   4.826   6.443   2.520
28128WAT     H184626   4.870   6.419   2.434
28128WAT     H284627   4.855   6.535   2.548
28129WAT      O84628   6.646   5.208   1.122
28129WAT     H184629   6.567   5.190   1.180
28129WAT     H284630   6.728   5.171   1.166
28130WAT      O84631   5.056   7.761   9.873
28130WAT     H184632   5.007   7.844   9.903
28130WAT     H284633   5.050   7.753   9.774
28131WAT      O84634   2.983   6.338   2.158
28131WAT     H184635   2.953   6.272   2.089
28131WAT     H284636   2.987   6.430   2.117
28132WAT      O84637   9.653   2.948   3.609
28132WAT     H184638   9.714   3.027   3.617
28132WAT     H284639   9.577   2.958   3.672
28133WAT      O84640   2.511   4.020   5.181
28133WAT     H184641   2.496   4.071   5.096
28133WAT     H284642   2.476   4.073   5.258
28134WAT      O84643   6.534   3.097   7.480
28134WAT     H184644   6.518   3.166   7.550
28134WAT     H284645   6.566   3.013   7.522
28135WAT      O84646   8.630   9.266   2.869
28135WAT     H184647   8.597   9.307   2.954
28135WAT     H284648   8.697   9.326   2.826
28136WAT      O84649   8.086   7.776   2.093
28136WAT     H184650   8.054   7.716   2.167
28136WAT     H284651   8.178   7.808   2.114
28137WAT      O84652   4.473   7.113   2.130
28137WAT     H184653   4.429   7.029   2.161
28137WAT     H284654   4.459   7.123   2.031
28138WAT      O84655   9.255   8.451   0.777
28138WAT     H184656   9.195   8.531   0.784
28138WAT     H284657   9.298   8.434   0.866
28139WAT      O84658   5.106   9.257   5.321
28139WAT     H184659   5.170   9.180   5.316
28139WAT     H284660   5.152   9.341   5.291
28140WAT      O84661   8.792   2.218   7.433
28140WAT     H184662   8.848   2.141   7.461
28140WAT     H284663   8.730   2.190   7.360
28141WAT      O84664   8.157   5.768   8.770
28141WAT     H184665   8.189   5.706   8.841
28141WAT     H284666   8.140   5.858   8.811
28142WAT      O84667   3.792   9.568   4.613
28142WAT     H184668   3.718   9.582   4.547
28142WAT     H284669   3.866   9.633   4.595
28143WAT      O84670   2.654   3.341   4.174
28143WAT     H184671   2.620   3.288   4.252
28143WAT     H284672   2.653   3.284   4.092
28144WAT      O84673   1.850   3.856   7.402
28144WAT     H184674   1.936   3.829   7.357
28144WAT     H284675   1.869   3.885   7.495
28145WAT      O84676   5.153   8.556   4.628
28145WAT     H184677   5.123   8.484   4.565
28145WAT     H284678   5.232   8.523   4.680
28146WAT      O84679   9.888   6.638   1.554
28146WAT     H184680   9.915   6.659   1.648
28146WAT     H284681   9.838   6.552   1.552
28147WAT      O84682   6.009   2.009   6.718
28147WAT     H184683   6.082   2.077   6.724
28147WAT     H284684   5.920   2.055   6.719
28148WAT      O84685   4.628   4.636   2.629
28148WAT     H184686   4.657   4.586   2.548
28148WAT     H284687   4.694   4.623   2.702
28149WAT      O84688   3.893   7.324   6.854
28149WAT     H184689   3.929   7.317   6.761
28149WAT     H284690   3.811   7.381   6.854
28150WAT      O84691   7.071   3.152   8.296
28150WAT     H184692   6.971   3.152   8.287
28150WAT     H284693   7.096   3.102   8.379
28151WAT      O84694   2.746   9.497   1.398
28151WAT     H184695   2.708   9.520   1.488
28151WAT     H284696   2.730   9.572   1.334
28152WAT      O84697   4.507   4.936   0.976
28152WAT     H184698   4.564   4.856   0.993
28152WAT     H284699   4.561   5.019   0.986
28153WAT      O84700   9.209   2.081   7.957
28153WAT     H184701   9.124   2.133   7.970
28153WAT     H284702   9.229   2.073   7.860
28154WAT      O84703   9.201   2.527   7.351
28154WAT     H184704   9.139   2.585   7.299
28154WAT     H284705   9.279   2.580   7.383
28155WAT      O84706   0.172   5.421   0.688
28155WAT     H184707   0.190   5.348   0.754
28155WAT     H284708   0.241   5.417   0.616
28156WAT      O84709   7.071   3.705   5.958
28156WAT     H184710   6.975   3.731   5.973
28156WAT     H284711   7.130   3.759   6.018
28157WAT      O84712   2.624   8.662   7.645
28157WAT     H184713   2.639   8.761   7.651
28157WAT     H284714   2.703   8.619   7.601
28158WAT      O84715   7.012   9.603   8.021
28158WAT     H184716   7.036   9.597   8.118
28158WAT     H284717   6.919   9.637   8.011
28159WAT      O84718   0.488   5.329   5.920
28159WAT     H184719   0.474   5.401   5.852
28159WAT     H284720   0.499   5.241   5.873
28160WAT      O84721   4.310   3.422   9.698
28160WAT     H184722   4.307   3.457   9.604
28160WAT     H284723   4.338   3.326   9.696
28161WAT      O84724   8.009   3.042   7.930
28161WAT     H184725   7.952   3.007   7.855
28161WAT     H284726   7.961   3.029   8.016
28162WAT      O84727   9.171   7.419   7.870
28162WAT     H184728   9.075   7.432   7.849
28162WAT     H284729   9.208   7.502   7.911
28163WAT      O84730   0.714   4.088   4.299
28163WAT     H184731   0.806   4.058   4.323
28163WAT     H284732   0.718   4.182   4.265
28164WAT      O84733   3.692   6.959   3.580
28164WAT     H184734   3.636   6.994   3.655
28164WAT     H284735   3.750   6.884   3.613
28165WAT      O84736   7.192   7.435   8.733
28165WAT     H184737   7.121   7.419   8.665
28165WAT     H284738   7.271   7.479   8.690
28166WAT      O84739   8.088   4.934   6.325
28166WAT     H184740   8.152   4.893   6.261
28166WAT     H284741   7.997   4.896   6.311
28167WAT      O84742   2.987   5.161   0.829
28167WAT     H184743   2.976   5.258   0.809
28167WAT     H284744   2.897   5.117   0.830
28168WAT      O84745   7.341   2.757   8.997
28168WAT     H184746   7.282   2.832   9.028
28168WAT     H284747   7.424   2.795   8.955
28169WAT      O84748   6.406   6.370   1.979
28169WAT     H184749   6.306   6.371   1.984
28169WAT     H284750   6.442   6.453   2.022
28170WAT      O84751   9.435   8.992   4.697
28170WAT     H184752   9.440   9.009   4.795
28170WAT     H284753   9.357   9.041   4.658
28171WAT      O84754   1.149   4.850   3.653
28171WAT     H184755   1.100   4.847   3.566
28171WAT     H284756   1.166   4.945   3.679
28172WAT      O84757   2.005   3.197   1.455
28172WAT     H184758   2.083   3.163   1.508
28172WAT     H284759   1.946   3.120   1.429
28173WAT      O84760   4.815   4.824   8.519
28173WAT     H184761   4.908   4.860   8.515
28173WAT     H284762   4.815   4.729   8.488
28174WAT      O84763   8.927   7.546   0.435
28174WAT     H184764   8.828   7.561   0.438
28174WAT     H284765   8.970   7.620   0.383
28175WAT      O84766   6.572   2.301   6.981
28175WAT     H184767   6.647   2.367   6.980
28175WAT     H284768   6.551   2.274   6.888
28176WAT      O84769   3.055   0.428   5.894
28176WAT     H184770   3.125   0.475   5.948
28176WAT     H284771   2.970   0.423   5.947
28177WAT      O84772   7.384   4.266   4.982
28177WAT     H184773   7.477   4.233   5.001
28177WAT     H284774   7.383   4.366   4.983
28178WAT      O84775   8.768   1.709   0.759
28178WAT     H184776   8.728   1.799   0.774
28178WAT     H284777   8.710   1.657   0.697
28179WAT      O84778   4.758   5.789   5.762
28179WAT     H184779   4.671   5.803   5.715
28179WAT     H284780   4.815   5.728   5.708
28180WAT      O84781   9.367   4.657   6.819
28180WAT     H184782   9.330   4.742   6.855
28180WAT     H284783   9.344   4.648   6.723
28181WAT      O84784   7.478   7.793   4.252
28181WAT     H184785   7.411   7.800   4.177
28181WAT     H284786   7.433   7.815   4.338
28182WAT      O84787   6.118   0.383   4.515
28182WAT     H184788   6.179   0.325   4.462
28182WAT     H284789   6.087   0.334   4.596
28183WAT      O84790   2.622   6.487   4.918
28183WAT     H184791   2.566   6.404   4.922
28183WAT     H284792   2.718   6.462   4.917
28184WAT      O84793   3.136   5.200   6.123
28184WAT     H184794   3.168   5.190   6.029
28184WAT     H284795   3.086   5.118   6.150
28185WAT      O84796   4.661   0.682   1.963
28185WAT     H184797   4.621   0.770   1.988
28185WAT     H284798   4.590   0.623   1.925
28186WAT      O84799   6.190   2.939   9.392
28186WAT     H184800   6.239   2.863   9.434
28186WAT     H284801   6.254   3.010   9.365
28187WAT      O84802   3.402   2.465   7.092
28187WAT     H184803   3.310   2.502   7.085
28187WAT     H284804   3.416   2.395   7.022
28188WAT      O84805   9.417   8.753   2.866
28188WAT     H184806   9.435   8.738   2.963
28188WAT     H284807   9.417   8.666   2.818
28189WAT      O84808   6.099   4.245   7.810
28189WAT     H184809   6.058   4.327   7.850
28189WAT     H284810   6.075   4.166   7.865
28190WAT      O84811   1.753   8.657   7.706
28190WAT     H184812   1.661   8.684   7.736
28190WAT     H284813   1.755   8.557   7.695
28191WAT      O84814   2.929   4.318   5.741
28191WAT     H184815   3.005   4.381   5.756
28191WAT     H284816   2.862   4.361   5.681
28192WAT      O84817   5.120   8.682   9.509
28192WAT     H184818   5.176   8.607   9.543
28192WAT     H284819   5.174   8.739   9.448
28193WAT      O84820   4.890   9.416   3.005
28193WAT     H184821   4.894   9.397   3.103
28193WAT     H284822   4.810   9.370   2.966
28194WAT      O84823   0.629   2.237   7.921
28194WAT     H184824   0.642   2.321   7.974
28194WAT     H284825   0.683   2.241   7.838
28195WAT      O84826   6.813   4.813   6.496
28195WAT     H184827   6.851   4.866   6.420
28195WAT     H284828   6.843   4.852   6.583
28196WAT      O84829   7.917   3.559   0.790
28196WAT     H184830   7.831   3.604   0.766
28196WAT     H284831   7.960   3.525   0.707
28197WAT      O84832   8.767   9.079   4.699
28197WAT     H184833   8.751   8.981   4.690
28197WAT     H284834   8.865   9.098   4.687
28198WAT      O84835   6.561   9.658   0.381
28198WAT     H184836   6.560   9.755   0.355
28198WAT     H284837   6.487   9.610   0.334
28199WAT      O84838   0.660   8.817   4.793
28199WAT     H184839   0.720   8.880   4.842
28199WAT     H284840   0.566   8.829   4.825
28200WAT      O84841   3.811   3.904   2.096
28200WAT     H184842   3.769   3.833   2.040
28200WAT     H284843   3.761   3.914   2.182
28201WAT      O84844   5.885   5.912   0.691
28201WAT     H184845   5.982   5.933   0.684
28201WAT     H284846   5.871   5.833   0.751
28202WAT      O84847   6.093   7.018   3.555
28202WAT     H184848   6.126   6.999   3.648
28202WAT     H284849   6.165   6.997   3.490
28203WAT      O84850   1.056   7.191   5.803
28203WAT     H184851   1.045   7.180   5.902
28203WAT     H284852   1.053   7.288   5.780
28204WAT      O84853   4.296   4.680   3.245
28204WAT     H184854   4.381   4.629   3.231
28204WAT     H284855   4.218   4.618   3.233
28205WAT      O84856   3.546   9.529   6.901
28205WAT     H184857   3.507   9.459   6.961
28205WAT     H284858   3.483   9.607   6.897
28206WAT      O84859   9.028   3.332   3.730
28206WAT     H184860   9.075   3.275   3.663
28206WAT     H284861   9.064   3.426   3.726
28207WAT      O84862   7.332   4.320   8.012
28207WAT     H184863   7.372   4.407   7.983
28207WAT     H284864   7.403   4.251   8.020
28208WAT      O84865   0.709   4.130   2.869
28208WAT     H184866   0.711   4.093   2.962
28208WAT     H284867   0.798   4.117   2.826
28209WAT      O84868   7.049   5.926   7.338
28209WAT     H184869   7.003   5.960   7.256
28209WAT     H284870   7.113   5.853   7.313
28210WAT      O84871   9.449   1.909   8.511
28210WAT     H184872   9.469   1.856   8.429
28210WAT     H284873   9.490   1.864   8.590
28211WAT      O84874   0.414   5.879   2.794
28211WAT     H184875   0.433   5.864   2.891
28211WAT     H284876   0.378   5.971   2.781
28212WAT      O84877   3.255   4.279   3.765
28212WAT     H184878   3.299   4.248   3.850
28212WAT     H284879   3.269   4.210   3.694
28213WAT      O84880   2.684   5.537   6.293
28213WAT     H184881   2.625   5.575   6.363
28213WAT     H284882   2.769   5.504   6.335
28214WAT      O84883   4.726   5.968   1.677
28214WAT     H184884   4.768   5.877   1.670
28214WAT     H284885   4.757   6.013   1.761
28215WAT      O84886   0.751   1.008   4.503
28215WAT     H184887   0.801   0.924   4.483
28215WAT     H284888   0.656   0.987   4.524
28216WAT      O84889   4.269   8.494   2.996
28216WAT     H184890   4.201   8.496   3.069
28216WAT     H284891   4.237   8.436   2.922
28217WAT      O84892   9.851   3.595   4.037
28217WAT     H184893   9.827   3.689   4.013
28217WAT     H284894   9.942   3.593   4.078
28218WAT      O84895   8.663   0.395   2.569
28218WAT     H184896   8.728   0.387   2.643
28218WAT     H284897   8.654   0.306   2.523
28219WAT      O84898   3.693   9.185   3.563
28219WAT     H184899   3.746   9.227   3.489
28219WAT     H284900   3.613   9.139   3.524
28220WAT      O84901   0.735   4.060   5.477
28220WAT     H184902   0.684   3.976   5.454
28220WAT     H284903   0.816   4.036   5.529
28221WAT      O84904   6.946   4.163   7.099
28221WAT     H184905   6.979   4.213   7.179
28221WAT     H284906   6.860   4.117   7.121
28222WAT      O84907   8.855   2.698   7.431
28222WAT     H184908   8.932   2.761   7.439
28222WAT     H284909   8.802   2.722   7.349
28223WAT      O84910   2.560   5.793   6.434
28223WAT     H184911   2.491   5.742   6.485
28223WAT     H284912   2.521   5.823   6.347
28224WAT      O84913   2.697   6.569   0.123
28224WAT     H184914   2.753   6.640   0.166
28224WAT     H284915   2.732   6.551   0.031
28225WAT      O84916   3.651   3.744   6.122
28225WAT     H184917   3.605   3.806   6.186
28225WAT     H284918   3.660   3.788   6.033
28226WAT      O84919   3.466   4.751   0.824
28226WAT     H184920   3.421   4.823   0.771
28226WAT     H284921   3.537   4.708   0.768
28227WAT      O84922   9.756   7.622   1.962
28227WAT     H184923   9.780   7.704   1.910
28227WAT     H284924   9.769   7.541   1.905
28228WAT      O84925   5.564   4.296   8.464
28228WAT     H184926   5.520   4.271   8.378
28228WAT     H284927   5.624   4.375   8.450
28229WAT      O84928   0.525   1.244   4.647
28229WAT     H184929   0.461   1.321   4.651
28229WAT     H284930   0.534   1.213   4.552
28230WAT      O84931   6.586   0.796   3.525
28230WAT     H184932   6.664   0.783   3.586
28230WAT     H284933   6.552   0.890   3.533
28231WAT      O84934   0.889   4.221   3.679
28231WAT     H184935   0.851   4.244   3.589
28231WAT     H284936   0.838   4.269   3.750
28232WAT      O84937   0.899   1.359   0.552
28232WAT     H184938   0.888   1.419   0.473
28232WAT     H284939   0.845   1.394   0.628
28233WAT      O84940   0.296   1.425   4.600
28233WAT     H184941   0.199   1.439   4.579
28233WAT     H284942   0.341   1.513   4.609
28234WAT      O84943   5.178   5.133   8.454
28234WAT     H184944   5.100   5.190   8.428
28234WAT     H284945   5.261   5.188   8.459
28235WAT      O84946   0.067   2.669   1.228
28235WAT     H184947   0.091   2.750   1.174
28235WAT     H284948   0.053   2.591   1.167
28236WAT      O84949   3.441   3.818   1.678
28236WAT     H184950   3.344   3.797   1.687
28236WAT     H284951   3.487   3.799   1.765
28237WAT      O84952   1.026   0.929   4.876
28237WAT     H184953   0.964   0.850   4.873
28237WAT     H284954   1.117   0.899   4.905
28238WAT      O84955   5.517   6.634   2.348
28238WAT     H184956   5.431   6.652   2.300
28238WAT     H284957   5.523   6.693   2.428
28239WAT      O84958   9.726   3.171   1.872
28239WAT     H184959   9.751   3.079   1.841
28239WAT     H284960   9.695   3.225   1.793
28240WAT      O84961   8.706   4.925   8.736
28240WAT     H184962   8.705   4.994   8.809
28240WAT     H284963   8.618   4.926   8.688
28241WAT      O84964   3.690   0.280   7.900
28241WAT     H184965   3.620   0.212   7.921
28241WAT     H284966   3.662   0.333   7.821
28242WAT      O84967   3.336   4.532   8.813
28242WAT     H184968   3.433   4.548   8.828
28242WAT     H284969   3.316   4.538   8.715
28243WAT      O84970   8.830   9.081   2.876
28243WAT     H184971   8.753   9.144   2.890
28243WAT     H284972   8.845   9.068   2.778
28244WAT      O84973   9.465   2.923   0.386
28244WAT     H184974   9.430   2.965   0.470
28244WAT     H284975   9.469   2.824   0.397
28245WAT      O84976   4.518   3.197   8.213
28245WAT     H184977   4.423   3.227   8.204
28245WAT     H284978   4.554   3.173   8.124
28246WAT      O84979   3.271   5.088   4.855
28246WAT     H184980   3.346   5.034   4.816
28246WAT     H284981   3.275   5.083   4.954
28247WAT      O84982   2.206   0.853   7.933
28247WAT     H184983   2.285   0.890   7.982
28247WAT     H284984   2.238   0.792   7.860
28248WAT      O84985   0.576   1.314   6.465
28248WAT     H184986   0.615   1.363   6.543
28248WAT     H284987   0.598   1.364   6.381
28249WAT      O84988   8.046   0.462   2.114
28249WAT     H184989   8.136   0.433   2.146
28249WAT     H284990   8.049   0.476   2.015
28250WAT      O84991   6.082   1.673   7.471
28250WAT     H184992   6.091   1.710   7.378
28250WAT     H284993   6.163   1.699   7.524
28251WAT      O84994   8.563   5.424   1.190
28251WAT     H184995   8.588   5.516   1.161
28251WAT     H284996   8.474   5.426   1.234
28252WAT      O84997   9.729   2.540   2.660
28252WAT     H184998   9.803   2.555   2.726
28252WAT     H284999   9.669   2.620   2.658
28253WAT      O85000   3.808   4.386   2.798
28253WAT     H185001   3.840   4.481   2.797
28253WAT     H285002   3.737   4.375   2.868
28254WAT      O85003   8.998   4.319   5.375
28254WAT     H185004   8.902   4.344   5.386
28254WAT     H285005   9.055   4.376   5.435
28255WAT      O85006   1.345   6.208   3.212
28255WAT     H185007   1.292   6.141   3.159
28255WAT     H285008   1.381   6.278   3.151
28256WAT      O85009   9.531   0.425   3.179
28256WAT     H185010   9.577   0.463   3.099
28256WAT     H285011   9.538   0.325   3.177
28257WAT      O85012   8.382   3.873   7.336
28257WAT     H185013   8.335   3.884   7.424
28257WAT     H285014   8.448   3.799   7.343
28258WAT      O85015   7.286   5.850   1.312
28258WAT     H185016   7.269   5.777   1.379
28258WAT     H285017   7.243   5.826   1.225
28259WAT      O85018   8.829   7.560   6.373
28259WAT     H185019   8.756   7.620   6.406
28259WAT     H285020   8.800   7.465   6.379
28260WAT      O85021   8.261   3.599   3.926
28260WAT     H185022   8.283   3.648   3.841
28260WAT     H285023   8.175   3.550   3.914
28261WAT      O85024   3.515   6.288   3.375
28261WAT     H185025   3.487   6.230   3.452
28261WAT     H285026   3.593   6.345   3.403
28262WAT      O85027   9.385   7.182   0.729
28262WAT     H185028   9.448   7.185   0.651
28262WAT     H285029   9.352   7.089   0.742
28263WAT      O85030   7.136   9.764   5.502
28263WAT     H185031   7.113   9.677   5.458
28263WAT     H285032   7.208   9.749   5.570
28264WAT      O85033   8.850   5.745   4.054
28264WAT     H185034   8.769   5.799   4.031
28264WAT     H285035   8.826   5.677   4.123
28265WAT      O85036   8.772   4.040   6.962
28265WAT     H185037   8.726   3.963   7.004
28265WAT     H285038   8.775   4.027   6.863
28266WAT      O85039   4.896   0.671   0.025
28266WAT     H185040   4.817   0.638  -0.028
28266WAT     H285041   4.865   0.740   0.091
28267WAT      O85042   4.023   7.134   7.022
28267WAT     H185043   3.971   7.206   6.978
28267WAT     H285044   4.013   7.049   6.971
28268WAT      O85045   5.254   4.651   8.869
28268WAT     H185046   5.352   4.634   8.856
28268WAT     H285047   5.231   4.742   8.834
28269WAT      O85048   8.080   9.669   3.017
28269WAT     H185049   8.008   9.636   2.955
28269WAT     H285050   8.081   9.612   3.099
28270WAT      O85051   3.458   0.551   9.033
28270WAT     H185052   3.385   0.557   9.101
28270WAT     H285053   3.502   0.641   9.023
28271WAT      O85054   6.859   4.200   1.570
28271WAT     H185055   6.953   4.231   1.583
28271WAT     H285056   6.856   4.132   1.496
28272WAT      O85057   9.593   1.482   3.484
28272WAT     H185058   9.639   1.392   3.482
28272WAT     H285059   9.499   1.471   3.453
28273WAT      O85060   1.942   6.778   5.044
28273WAT     H185061   1.875   6.707   5.066
28273WAT     H285062   1.953   6.838   5.123
28274WAT      O85063   3.120   9.512   3.140
28274WAT     H185064   3.109   9.526   3.239
28274WAT     H285065   3.191   9.443   3.124
28275WAT      O85066   9.252   6.868   4.497
28275WAT     H185067   9.321   6.896   4.430
28275WAT     H285068   9.181   6.814   4.452
28276WAT      O85069   6.677   8.657   8.260
28276WAT     H185070   6.726   8.576   8.228
28276WAT     H285071   6.743   8.720   8.301
28277WAT      O85072   7.436   6.185   6.915
28277WAT     H185073   7.435   6.160   7.011
28277WAT     H285074   7.494   6.265   6.902
28278WAT      O85075   6.343   5.318   0.278
28278WAT     H185076   6.392   5.312   0.191
28278WAT     H285077   6.252   5.277   0.268
28279WAT      O85078   1.390   0.477   1.668
28279WAT     H185079   1.438   0.565   1.669
28279WAT     H285080   1.362   0.455   1.575
28280WAT      O85081   4.243   1.498   8.229
28280WAT     H185082   4.281   1.421   8.177
28280WAT     H285083   4.200   1.464   8.312
28281WAT      O85084   9.322   9.530   6.751
28281WAT     H185085   9.370   9.468   6.814
28281WAT     H285086   9.318   9.622   6.791
28282WAT      O85087   0.860   6.572   0.010
28282WAT     H185088   0.797   6.591   0.084
28282WAT     H285089   0.847   6.638  -0.064
28283WAT      O85090   5.645   5.902   6.812
28283WAT     H185091   5.689   5.813   6.799
28283WAT     H285092   5.689   5.951   6.887
28284WAT      O85093  -0.006   2.983   1.651
28284WAT     H185094   0.046   3.069   1.646
28284WAT     H285095   0.048   2.915   1.701
28285WAT      O85096   1.137   0.836   4.577
28285WAT     H185097   1.186   0.913   4.618
28285WAT     H285098   1.157   0.753   4.627
28286WAT      O85099   8.483   6.313   1.976
28286WAT     H185100   8.422   6.387   2.006
28286WAT     H285101   8.443   6.268   1.896
28287WAT      O85102   5.363   0.244   3.431
28287WAT     H185103   5.269   0.214   3.451
28287WAT     H285104   5.387   0.216   3.338
28288WAT      O85105   9.707   3.420   8.271
28288WAT     H185106   9.703   3.357   8.193
28288WAT     H285107   9.629   3.403   8.331
28289WAT      O85108   6.590   2.089   5.993
28289WAT     H185109   6.595   2.121   5.899
28289WAT     H285110   6.678   2.106   6.038
28290WAT      O85111   9.083   4.886   0.498
28290WAT     H185112   9.130   4.965   0.538
28290WAT     H285113   8.985   4.890   0.521
28291WAT      O85114   1.577   4.105   3.653
28291WAT     H185115   1.485   4.129   3.622
28291WAT     H285116   1.575   4.014   3.695
28292WAT      O85117   8.634   4.436   7.909
28292WAT     H185118   8.703   4.445   7.837
28292WAT     H285119   8.648   4.350   7.959
28293WAT      O85120   7.889   9.194   5.267
28293WAT     H185121   7.882   9.293   5.275
28293WAT     H285122   7.933   9.171   5.180
28294WAT      O85123   7.694   8.741   6.212
28294WAT     H185124   7.646   8.661   6.249
28294WAT     H285125   7.792   8.728   6.219
28295WAT      O85126   4.020   3.262   2.651
28295WAT     H185127   4.095   3.323   2.627
28295WAT     H285128   3.966   3.302   2.725
28296WAT      O85129   4.053   6.807   5.788
28296WAT     H185130   4.072   6.893   5.836
28296WAT     H285131   4.137   6.753   5.783
28297WAT      O85132   6.443   1.488   2.600
28297WAT     H185133   6.501   1.563   2.568
28297WAT     H285134   6.417   1.430   2.523
28298WAT      O85135   8.431   5.996   9.057
28298WAT     H185136   8.423   5.982   9.155
28298WAT     H285137   8.400   5.914   9.009
28299WAT      O85138   3.380   5.408   5.001
28299WAT     H185139   3.396   5.361   5.088
28299WAT     H285140   3.282   5.403   4.979
28300WAT      O85141   6.182   1.266   1.997
28300WAT     H185142   6.098   1.251   1.943
28300WAT     H285143   6.259   1.222   1.950
28301WAT      O85144   2.748   7.354   3.376
28301WAT     H185145   2.830   7.389   3.419
28301WAT     H285146   2.670   7.411   3.400
28302WAT      O85147   8.751   4.294   8.743
28302WAT     H185148   8.658   4.318   8.772
28302WAT     H285149   8.813   4.304   8.821
28303WAT      O85150   5.392   7.554   4.025
28303WAT     H185151   5.403   7.650   4.001
28303WAT     H285152   5.367   7.546   4.122
28304WAT      O85153   1.348   8.802   4.168
28304WAT     H185154   1.410   8.843   4.101
28304WAT     H285155   1.342   8.861   4.249
28305WAT      O85156   3.247   4.255   4.319
28305WAT     H185157   3.194   4.171   4.306
28305WAT     H285158   3.339   4.242   4.283
28306WAT      O85159   6.143   8.755   3.177
28306WAT     H185160   6.122   8.669   3.224
28306WAT     H285161   6.167   8.824   3.246
28307WAT      O85162   0.116   2.805   3.405
28307WAT     H185163   0.143   2.746   3.481
28307WAT     H285164   0.196   2.825   3.348
28308WAT      O85165   9.633   0.176   7.425
28308WAT     H185166   9.634   0.215   7.517
28308WAT     H285167   9.551   0.120   7.414
28309WAT      O85168   1.476   4.786   8.635
28309WAT     H185169   1.475   4.705   8.694
28309WAT     H285170   1.504   4.760   8.542
28310WAT      O85171   5.561   9.681   6.416
28310WAT     H185172   5.492   9.622   6.375
28310WAT     H285173   5.578   9.653   6.510
28311WAT      O85174   3.465   9.420   9.754
28311WAT     H185175   3.413   9.335   9.745
28311WAT     H285176   3.463   9.450   9.849
28312WAT      O85177   0.442   7.896   4.328
28312WAT     H185178   0.506   7.827   4.293
28312WAT     H285179   0.442   7.894   4.428
28313WAT      O85180   8.018   5.739   0.599
28313WAT     H185181   8.073   5.755   0.517
28313WAT     H285182   8.026   5.643   0.627
28314WAT      O85183   6.840   4.461   0.088
28314WAT     H185184   6.910   4.418   0.145
28314WAT     H285185   6.766   4.495   0.146
28315WAT      O85186   2.804   4.296   6.245
28315WAT     H185187   2.825   4.226   6.177
28315WAT     H285188   2.725   4.268   6.299
28316WAT      O85189   7.505   3.370   3.946
28316WAT     H185190   7.453   3.378   3.861
28316WAT     H285191   7.536   3.460   3.974
28317WAT      O85192   6.857   6.086   0.086
28317WAT     H185193   6.810   6.019   0.028
28317WAT     H285194   6.848   6.177   0.046
28318WAT      O85195   3.915   8.692   7.983
28318WAT     H185196   4.000   8.662   7.939
28318WAT     H285197   3.920   8.789   8.005
28319WAT      O85198   8.564   2.189   1.330
28319WAT     H185199   8.589   2.270   1.277
28319WAT     H285200   8.644   2.130   1.340
28320WAT      O85201   7.577   4.946   7.450
28320WAT     H185202   7.481   4.965   7.470
28320WAT     H285203   7.612   4.878   7.515
28321WAT      O85204   9.023   1.699   5.673
28321WAT     H185205   8.969   1.623   5.639
28321WAT     H285206   8.975   1.785   5.655
28322WAT      O85207   0.852   2.576   7.036
28322WAT     H185208   0.844   2.664   6.990
28322WAT     H285209   0.859   2.590   7.134
28323WAT      O85210   3.958   2.597   7.867
28323WAT     H185211   3.950   2.510   7.819
28323WAT     H285212   3.896   2.664   7.826
28324WAT      O85213   0.684   8.151   0.424
28324WAT     H185214   0.654   8.061   0.457
28324WAT     H285215   0.783   8.151   0.414
28325WAT      O85216   1.597   1.786   2.585
28325WAT     H185217   1.538   1.755   2.660
28325WAT     H285218   1.599   1.716   2.513
28326WAT      O85219   9.851   0.419   9.553
28326WAT     H185220   9.864   0.320   9.552
28326WAT     H285221   9.875   0.457   9.464
28327WAT      O85222   3.543   5.693   6.184
28327WAT     H185223   3.582   5.717   6.272
28327WAT     H285224   3.613   5.702   6.113
28328WAT      O85225   5.302   0.967   5.292
28328WAT     H185226   5.341   0.922   5.212
28328WAT     H285227   5.264   1.056   5.266
28329WAT      O85228   2.073   4.822   2.278
28329WAT     H185229   2.095   4.729   2.248
28329WAT     H285230   1.981   4.822   2.319
28330WAT      O85231   8.277   7.660   1.482
28330WAT     H185232   8.292   7.581   1.540
28330WAT     H285233   8.179   7.680   1.477
28331WAT      O85234   6.758   8.138   2.308
28331WAT     H185235   6.791   8.110   2.218
28331WAT     H285236   6.797   8.078   2.378
28332WAT      O85237   3.334   9.395   7.861
28332WAT     H185238   3.243   9.397   7.903
28332WAT     H285239   3.325   9.407   7.762
28333WAT      O85240   9.365   9.298   0.088
28333WAT     H185241   9.464   9.285   0.082
28333WAT     H285242   9.326   9.232   0.153
28334WAT      O85243   0.186   7.818   6.253
28334WAT     H185244   0.234   7.813   6.340
28334WAT     H285245   0.150   7.910   6.240
28335WAT      O85246   0.657   4.947   1.351
28335WAT     H185247   0.710   4.906   1.276
28335WAT     H285248   0.693   4.914   1.439
28336WAT      O85249   6.148   5.107   7.251
28336WAT     H185250   6.194   5.084   7.337
28336WAT     H285251   6.200   5.070   7.174
28337WAT      O85252   4.399   5.687   0.583
28337WAT     H185253   4.362   5.604   0.626
28337WAT     H285254   4.489   5.707   0.622
28338WAT      O85255   7.796   7.543   5.994
28338WAT     H185256   7.861   7.468   5.996
28338WAT     H285257   7.719   7.519   5.935
28339WAT      O85258   3.472   6.605   1.202
28339WAT     H185259   3.540   6.538   1.233
28339WAT     H285260   3.421   6.639   1.281
28340WAT      O85261   8.072   3.859   0.164
28340WAT     H185262   8.029   3.791   0.105
28340WAT     H285263   8.029   3.948   0.149
28341WAT      O85264   5.200   7.986   5.689
28341WAT     H185265   5.128   7.922   5.661
28341WAT     H285266   5.158   8.070   5.722
28342WAT      O85267   8.450   5.972   6.400
28342WAT     H185268   8.474   5.984   6.496
28342WAT     H285269   8.375   6.035   6.376
28343WAT      O85270   6.166   8.524   4.386
28343WAT     H185271   6.079   8.561   4.354
28343WAT     H285272   6.237   8.539   4.316
28344WAT      O85273   6.570   7.306   5.271
28344WAT     H185274   6.653   7.312   5.215
28344WAT     H285275   6.491   7.302   5.210
28345WAT      O85276   5.667   7.235   9.122
28345WAT     H185277   5.712   7.314   9.164
28345WAT     H285278   5.691   7.229   9.025
28346WAT      O85279   7.140   3.055   8.539
28346WAT     H185280   7.222   3.009   8.505
28346WAT     H285281   7.081   2.988   8.585
28347WAT      O85282   0.230   9.636   4.954
28347WAT     H185283   0.166   9.559   4.963
28347WAT     H285284   0.310   9.620   5.011
28348WAT      O85285   7.674   9.244   9.736
28348WAT     H185286   7.665   9.339   9.768
28348WAT     H285287   7.716   9.244   9.645
28349WAT      O85288   2.461   7.162   0.321
28349WAT     H185289   2.403   7.238   0.291
28349WAT     H285290   2.484   7.104   0.243
28350WAT      O85291   3.627   9.382   1.217
28350WAT     H185292   3.668   9.318   1.282
28350WAT     H285293   3.537   9.411   1.251
28351WAT      O85294   4.844   8.946   7.151
28351WAT     H185295   4.903   8.950   7.070
28351WAT     H285296   4.852   8.855   7.193
28352WAT      O85297   5.113   7.497   3.576
28352WAT     H185298   5.167   7.415   3.593
28352WAT     H285299   5.175   7.575   3.561
28353WAT      O85300   0.035   9.569   3.066
28353WAT     H185301   0.102   9.615   3.125
28353WAT     H285302   0.082   9.528   2.988
28354WAT      O85303   7.513   6.900   7.106
28354WAT     H185304   7.544   6.915   7.199
28354WAT     H285305   7.455   6.819   7.103
28355WAT      O85306   4.030   2.705   1.662
28355WAT     H185307   4.013   2.681   1.566
28355WAT     H285308   4.100   2.644   1.700
28356WAT      O85309   2.848   5.289   0.488
28356WAT     H185310   2.784   5.215   0.469
28356WAT     H285311   2.843   5.314   0.585
28357WAT      O85312   2.982   2.882   3.667
28357WAT     H185313   2.953   2.922   3.580
28357WAT     H285314   3.079   2.902   3.683
28358WAT      O85315   1.666   3.579   1.311
28358WAT     H185316   1.611   3.532   1.381
28358WAT     H285317   1.671   3.677   1.333
28359WAT      O85318   8.652   9.743   2.308
28359WAT     H185319   8.745   9.705   2.308
28359WAT     H285320   8.586   9.668   2.299
28360WAT      O85321   7.698   1.880   3.619
28360WAT     H185322   7.605   1.912   3.599
28360WAT     H285323   7.717   1.893   3.716
28361WAT      O85324   2.878   6.153   9.665
28361WAT     H185325   2.814   6.124   9.593
28361WAT     H285326   2.972   6.142   9.632
28362WAT      O85327   7.324   1.521   7.750
28362WAT     H185328   7.393   1.548   7.683
28362WAT     H285329   7.366   1.466   7.822
28363WAT      O85330   8.582   4.078   0.463
28363WAT     H185331   8.496   4.071   0.413
28363WAT     H285332   8.645   4.007   0.431
28364WAT      O85333   8.946   6.819   2.499
28364WAT     H185334   8.880   6.868   2.442
28364WAT     H285335   8.897   6.759   2.562
28365WAT      O85336   7.312   2.453   7.641
28365WAT     H185337   7.410   2.438   7.636
28365WAT     H285338   7.285   2.523   7.575
28366WAT      O85339   0.349   2.501   6.710
28366WAT     H185340   0.316   2.540   6.624
28366WAT     H285341   0.438   2.458   6.696
28367WAT      O85342   8.474   0.537   1.165
28367WAT     H185343   8.391   0.592   1.151
28367WAT     H285344   8.510   0.555   1.257
28368WAT      O85345   4.034   9.080   0.984
28368WAT     H185346   3.962   9.144   0.957
28368WAT     H285347   3.994   8.994   1.013
28369WAT      O85348   9.096   6.933   1.835
28369WAT     H185349   9.044   6.851   1.811
28369WAT     H285350   9.191   6.923   1.805
28370WAT      O85351   6.772   8.247   0.654
28370WAT     H185352   6.716   8.314   0.702
28370WAT     H285353   6.855   8.228   0.706
28371WAT      O85354   1.352   1.748   6.883
28371WAT     H185355   1.386   1.828   6.934
28371WAT     H285356   1.414   1.672   6.896
28372WAT      O85357   4.689   9.152   0.695
28372WAT     H185358   4.764   9.086   0.692
28372WAT     H285359   4.720   9.235   0.743
28373WAT      O85360   2.475   2.021   3.363
28373WAT     H185361   2.498   2.068   3.449
28373WAT     H285362   2.546   2.041   3.295
28374WAT      O85363   6.917   5.083   7.462
28374WAT     H185364   6.859   5.128   7.530
28374WAT     H285365   6.979   5.150   7.421
28375WAT      O85366   5.165   7.094   9.086
28375WAT     H185367   5.262   7.074   9.099
28375WAT     H285368   5.146   7.189   9.109
28376WAT      O85369   6.981   2.476   8.073
28376WAT     H185370   6.947   2.382   8.074
28376WAT     H285371   6.950   2.521   7.989
28377WAT      O85372   8.099   1.494   3.559
28377WAT     H185373   8.013   1.484   3.509
28377WAT     H285374   8.094   1.446   3.646
28378WAT      O85375   2.742   0.503   9.841
28378WAT     H185376   2.791   0.462   9.764
28378WAT     H285377   2.721   0.432   9.908
28379WAT      O85378   2.585   6.825   1.589
28379WAT     H185379   2.580   6.731   1.624
28379WAT     H285380   2.537   6.886   1.652
28380WAT      O85381   4.648   9.691   3.990
28380WAT     H185382   4.550   9.708   3.999
28380WAT     H285383   4.664   9.592   3.985
28381WAT      O85384   1.588   2.759   8.494
28381WAT     H185385   1.620   2.851   8.473
28381WAT     H285386   1.660   2.692   8.473
28382WAT      O85387   9.703   0.064   0.326
28382WAT     H185388   9.639   0.120   0.378
28382WAT     H285389   9.655   0.024   0.247
28383WAT      O85390   4.972   7.268   6.171
28383WAT     H185391   4.956   7.361   6.202
28383WAT     H285392   4.934   7.203   6.237
28384WAT      O85393   1.920   2.614   0.718
28384WAT     H185394   1.927   2.529   0.769
28384WAT     H285395   2.008   2.636   0.676
28385WAT      O85396   5.583   9.664   0.205
28385WAT     H185397   5.534   9.590   0.250
28385WAT     H285398   5.631   9.718   0.273
28386WAT      O85399   5.125   5.884   3.164
28386WAT     H185400   5.112   5.961   3.226
28386WAT     H285401   5.080   5.803   3.200
28387WAT      O85402   0.968   3.430   5.250
28387WAT     H185403   1.037   3.362   5.225
28387WAT     H285404   0.888   3.383   5.287
28388WAT      O85405   2.228   8.308   9.235
28388WAT     H185406   2.288   8.235   9.269
28388WAT     H285407   2.282   8.375   9.184
28389WAT      O85408   0.026   8.892   8.521
28389WAT     H185409   0.007   8.922   8.427
28389WAT     H285410   0.063   8.799   8.520
28390WAT      O85411   0.868   4.657   2.427
28390WAT     H185412   0.778   4.685   2.460
28390WAT     H285413   0.910   4.732   2.375
28391WAT      O85414   0.873   9.449   7.717
28391WAT     H185415   0.885   9.526   7.654
28391WAT     H285416   0.788   9.462   7.770
28392WAT      O85417   6.724   5.065   0.494
28392WAT     H185418   6.668   5.020   0.564
28392WAT     H285419   6.682   5.153   0.470
28393WAT      O85420   8.851   6.471   2.923
28393WAT     H185421   8.846   6.569   2.937
28393WAT     H285422   8.759   6.433   2.914
28394WAT      O85423   7.999   6.041   6.885
28394WAT     H185424   7.911   6.083   6.909
28394WAT     H285425   8.062   6.052   6.962
28395WAT      O85426   2.534   7.315   6.481
28395WAT     H185427   2.474   7.331   6.403
28395WAT     H285428   2.481   7.275   6.556
28396WAT      O85429   7.400   2.020   2.274
28396WAT     H185430   7.427   1.956   2.202
28396WAT     H285431   7.428   2.112   2.250
28397WAT      O85432   2.160   3.370   7.947
28397WAT     H185433   2.187   3.449   8.004
28397WAT     H285434   2.092   3.400   7.880
28398WAT      O85435   4.086   7.048   5.925
28398WAT     H185436   4.080   7.138   5.882
28398WAT     H285437   4.174   7.039   5.972
28399WAT      O85438   9.050   0.355   4.869
28399WAT     H185439   9.015   0.286   4.804
28399WAT     H285440   9.030   0.446   4.834
28400WAT      O85441   3.926   8.627   8.500
28400WAT     H185442   3.979   8.565   8.443
28400WAT     H285443   3.872   8.688   8.443
28401WAT      O85444   7.305   1.835   7.611
28401WAT     H185445   7.362   1.753   7.612
28401WAT     H285446   7.362   1.915   7.588
28402WAT      O85447   2.084   1.415   2.442
28402WAT     H185448   2.112   1.449   2.352
28402WAT     H285449   2.095   1.487   2.510
28403WAT      O85450   8.057   6.024   1.585
28403WAT     H185451   8.017   5.935   1.568
28403WAT     H285452   8.113   6.051   1.507
28404WAT      O85453   7.357   8.770   9.459
28404WAT     H185454   7.357   8.849   9.521
28404WAT     H285455   7.272   8.771   9.405
28405WAT      O85456   0.241   8.004   6.576
28405WAT     H185457   0.152   8.046   6.560
28405WAT     H285458   0.309   8.076   6.592
28406WAT      O85459   0.507   9.263   9.210
28406WAT     H185460   0.574   9.192   9.188
28406WAT     H285461   0.487   9.261   9.308
28407WAT      O85462   2.274   0.655   8.897
28407WAT     H185463   2.179   0.632   8.921
28407WAT     H285464   2.313   0.713   8.969
28408WAT      O85465   3.382   6.504   7.730
28408WAT     H185466   3.474   6.486   7.767
28408WAT     H285467   3.391   6.537   7.636
28409WAT      O85468   8.019   5.749   6.487
28409WAT     H185469   7.943   5.811   6.502
28409WAT     H285470   8.052   5.715   6.575
28410WAT      O85471   7.001   0.948   0.595
28410WAT     H185472   7.021   1.045   0.580
28410WAT     H285473   6.980   0.905   0.507
28411WAT      O85474   8.013   2.565   3.954
28411WAT     H185475   7.920   2.601   3.950
28411WAT     H285476   8.015   2.482   4.010
28412WAT      O85477   3.159   8.713   7.306
28412WAT     H185478   3.169   8.809   7.332
28412WAT     H285479   3.206   8.655   7.372
28413WAT      O85480   9.492   4.538   9.288
28413WAT     H185481   9.533   4.474   9.353
28413WAT     H285482   9.508   4.505   9.195
28414WAT      O85483   9.802   4.345   2.439
28414WAT     H185484   9.734   4.372   2.507
28414WAT     H285485   9.884   4.402   2.449
28415WAT      O85486   5.529   7.290   7.260
28415WAT     H185487   5.467   7.351   7.310
28415WAT     H285488   5.512   7.196   7.287
28416WAT      O85489   4.654   5.354   4.098
28416WAT     H185490   4.670   5.417   4.022
28416WAT     H285491   4.736   5.348   4.155
28417WAT      O85492   1.186   4.596   5.343
28417WAT     H185493   1.118   4.524   5.330
28417WAT     H285494   1.141   4.682   5.366
28418WAT      O85495   9.831   6.473   2.560
28418WAT     H185496   9.777   6.490   2.642
28418WAT     H285497   9.920   6.518   2.569
28419WAT      O85498   8.077   0.268   7.475
28419WAT     H185499   8.154   0.330   7.491
28419WAT     H285500   8.033   0.247   7.562
28420WAT      O85501   2.123   9.275   0.697
28420WAT     H185502   2.027   9.247   0.694
28420WAT     H285503   2.133   9.353   0.759
28421WAT      O85504   8.382   0.433   8.064
28421WAT     H185505   8.429   0.493   8.000
28421WAT     H285506   8.289   0.416   8.031
28422WAT      O85507   5.560   5.062   6.988
28422WAT     H185508   5.517   4.981   6.948
28422WAT     H285509   5.489   5.129   7.010
28423WAT      O85510   5.068   0.355   1.919
28423WAT     H185511   5.102   0.414   1.993
28423WAT     H285512   4.971   0.337   1.933
28424WAT      O85513   1.984   8.596   5.739
28424WAT     H185514   2.032   8.539   5.673
28424WAT     H285515   1.997   8.560   5.831
28425WAT      O85516   3.541   6.917   2.420
28425WAT     H185517   3.475   6.855   2.463
28425WAT     H285518   3.569   6.880   2.332
28426WAT      O85519   3.932   8.822   0.339
28426WAT     H185520   3.946   8.917   0.312
28426WAT     H285521   3.943   8.813   0.438
28427WAT      O85522   8.596   7.375   1.543
28427WAT     H185523   8.652   7.298   1.571
28427WAT     H285524   8.583   7.373   1.444
28428WAT      O85525   5.586   8.873   1.231
28428WAT     H185526   5.654   8.872   1.158
28428WAT     H285527   5.533   8.789   1.229
28429WAT      O85528   0.895   4.903   5.711
28429WAT     H185529   0.944   4.824   5.747
28429WAT     H285530   0.803   4.876   5.682
28430WAT      O85531   3.640   1.410   0.292
28430WAT     H185532   3.636   1.462   0.377
28430WAT     H285533   3.684   1.322   0.308
28431WAT      O85534   0.507   9.175   6.218
28431WAT     H185535   0.490   9.213   6.128
28431WAT     H285536   0.505   9.075   6.213
28432WAT      O85537   9.719   2.453   8.157
28432WAT     H185538   9.621   2.455   8.174
28432WAT     H285539   9.758   2.543   8.178
28433WAT      O85540   9.535   4.871   2.578
28433WAT     H185541   9.467   4.939   2.554
28433WAT     H285542   9.491   4.782   2.591
28434WAT      O85543   3.116   2.961   4.890
28434WAT     H185544   3.083   2.997   4.803
28434WAT     H285545   3.062   2.880   4.914
28435WAT      O85546   3.510   4.254   6.555
28435WAT     H185547   3.565   4.183   6.599
28435WAT     H285548   3.483   4.322   6.622
28436WAT      O85549   8.714   8.569   8.504
28436WAT     H185550   8.691   8.639   8.437
28436WAT     H285551   8.644   8.565   8.575
28437WAT      O85552   3.950   6.891   6.834
28437WAT     H185553   3.890   6.838   6.895
28437WAT     H285554   4.004   6.828   6.778
28438WAT      O85555   2.648   3.461   6.944
28438WAT     H185556   2.601   3.546   6.967
28438WAT     H285557   2.588   3.404   6.889
28439WAT      O85558   2.867   6.029   8.127
28439WAT     H185559   2.865   5.930   8.136
28439WAT     H285560   2.815   6.071   8.202
28440WAT      O85561   0.502   2.866   8.711
28440WAT     H185562   0.508   2.791   8.777
28440WAT     H285563   0.591   2.911   8.702
28441WAT      O85564   7.836   6.590   3.052
28441WAT     H185565   7.753   6.543   3.021
28441WAT     H285566   7.821   6.627   3.144
28442WAT      O85567   3.731   8.433   0.111
28442WAT     H185568   3.792   8.368   0.157
28442WAT     H285569   3.713   8.510   0.172
28443WAT      O85570   8.245   5.275   9.528
28443WAT     H185571   8.315   5.294   9.597
28443WAT     H285572   8.227   5.358   9.475
28444WAT      O85573   8.368   8.421   8.624
28444WAT     H185574   8.466   8.433   8.638
28444WAT     H285575   8.353   8.342   8.564
28445WAT      O85576   2.465   1.368   4.649
28445WAT     H185577   2.383   1.327   4.689
28445WAT     H285578   2.438   1.440   4.585
28446WAT      O85579   2.379   5.621   6.557
28446WAT     H185580   2.331   5.549   6.507
28446WAT     H285581   2.313   5.683   6.599
28447WAT      O85582   3.339   1.571   7.861
28447WAT     H185583   3.420   1.531   7.904
28447WAT     H285584   3.365   1.609   7.772
28448WAT      O85585   8.334   1.296   7.786
28448WAT     H185586   8.272   1.270   7.859
28448WAT     H285587   8.283   1.307   7.701
28449WAT      O85588   5.214   3.793   7.538
28449WAT     H185589   5.184   3.877   7.582
28449WAT     H285590   5.255   3.814   7.450
28450WAT      O85591   3.904   9.363   9.279
28450WAT     H185592   3.872   9.345   9.372
28450WAT     H285593   3.890   9.460   9.257
28451WAT      O85594   2.095   7.812   2.331
28451WAT     H185595   2.034   7.744   2.371
28451WAT     H285596   2.111   7.790   2.235
28452WAT      O85597   8.018   8.004   0.629
28452WAT     H185598   8.052   8.014   0.535
28452WAT     H285599   7.922   7.977   0.628
28453WAT      O85600   5.933   0.741   6.001
28453WAT     H185601   6.026   0.779   5.999
28453WAT     H285602   5.872   0.804   6.048
28454WAT      O85603   1.145   7.318   4.638
28454WAT     H185604   1.163   7.323   4.540
28454WAT     H285605   1.052   7.285   4.654
28455WAT      O85606   9.803   5.259   8.916
28455WAT     H185607   9.832   5.350   8.947
28455WAT     H285608   9.785   5.263   8.817
28456WAT      O85609   5.416   8.989   0.420
28456WAT     H185610   5.377   9.025   0.335
28456WAT     H285611   5.343   8.973   0.485
28457WAT      O85612   0.377   5.778   8.611
28457WAT     H185613   0.359   5.711   8.539
28457WAT     H285614   0.445   5.844   8.578
28458WAT      O85615   6.765   1.563   0.895
28458WAT     H185616   6.753   1.520   0.985
28458WAT     H285617   6.820   1.503   0.837
28459WAT      O85618   4.257   1.002   4.906
28459WAT     H185619   4.347   1.027   4.942
28459WAT     H285620   4.233   1.064   4.830
28460WAT      O85621   0.742   7.757   7.092
28460WAT     H185622   0.663   7.719   7.140
28460WAT     H285623   0.755   7.852   7.119
28461WAT      O85624   1.913   2.812   5.161
28461WAT     H185625   1.839   2.828   5.096
28461WAT     H285626   1.876   2.817   5.254
28462WAT      O85627   8.056   7.515   6.780
28462WAT     H185628   8.135   7.541   6.835
28462WAT     H285629   8.082   7.510   6.684
28463WAT      O85630   2.992   9.090   3.148
28463WAT     H185631   3.075   9.140   3.121
28463WAT     H285632   2.977   9.015   3.084
28464WAT      O85633   9.098   2.785   7.266
28464WAT     H185634   9.191   2.809   7.292
28464WAT     H285635   9.096   2.755   7.170
28465WAT      O85636   4.896   8.190   5.842
28465WAT     H185637   4.987   8.195   5.802
28465WAT     H285638   4.898   8.229   5.934
28466WAT      O85639   0.076   6.828   2.753
28466WAT     H185640   0.106   6.887   2.828
28466WAT     H285641  -0.023   6.837   2.741
28467WAT      O85642   2.283   4.996   4.407
28467WAT     H185643   2.194   4.980   4.363
28467WAT     H285644   2.276   4.976   4.504
28468WAT      O85645   0.406   0.508   1.922
28468WAT     H185646   0.481   0.456   1.881
28468WAT     H285647   0.341   0.535   1.850
28469WAT      O85648   7.782   2.545   4.630
28469WAT     H185649   7.775   2.638   4.593
28469WAT     H285650   7.837   2.548   4.714
28470WAT      O85651   0.178   3.429   2.116
28470WAT     H185652   0.088   3.469   2.101
28470WAT     H285653   0.241   3.458   2.044
28471WAT      O85654   6.776   2.068   3.026
28471WAT     H185655   6.863   2.070   3.076
28471WAT     H285656   6.702   2.099   3.086
28472WAT      O85657   9.157   8.426   3.462
28472WAT     H185658   9.232   8.361   3.458
28472WAT     H285659   9.185   8.512   3.420
28473WAT      O85660   8.801   7.715   4.414
28473WAT     H185661   8.806   7.648   4.339
28473WAT     H285662   8.862   7.791   4.394
28474WAT      O85663   2.446   1.593   0.716
28474WAT     H185664   2.507   1.550   0.650
28474WAT     H285665   2.489   1.590   0.807
28475WAT      O85666   0.012   5.691   7.005
28475WAT     H185667  -0.075   5.739   7.015
28475WAT     H285668   0.000   5.612   6.945
28476WAT      O85669   7.507   3.663   3.656
28476WAT     H185670   7.590   3.642   3.707
28476WAT     H285671   7.452   3.580   3.645
28477WAT      O85672   1.822   8.724   3.469
28477WAT     H185673   1.830   8.637   3.518
28477WAT     H285674   1.791   8.795   3.532
28478WAT      O85675   5.338   2.850   4.145
28478WAT     H185676   5.246   2.889   4.147
28478WAT     H285677   5.398   2.909   4.091
28479WAT      O85678   5.619   9.681   4.661
28479WAT     H185679   5.560   9.695   4.582
28479WAT     H285680   5.568   9.637   4.735
28480WAT      O85681   9.487   1.529   8.624
28480WAT     H185682   9.567   1.479   8.655
28480WAT     H285683   9.509   1.579   8.539
28481WAT      O85684   2.428   9.182   1.803
28481WAT     H185685   2.484   9.122   1.860
28481WAT     H285686   2.462   9.180   1.709
28482WAT      O85687   9.384   0.519   8.542
28482WAT     H185688   9.389   0.503   8.641
28482WAT     H285689   9.453   0.464   8.496
28483WAT      O85690   1.542   5.749   7.699
28483WAT     H185691   1.603   5.673   7.677
28483WAT     H285692   1.448   5.725   7.674
28484WAT      O85693   3.328   7.467   6.136
28484WAT     H185694   3.259   7.460   6.063
28484WAT     H285695   3.283   7.457   6.224
28485WAT      O85696   4.529   6.848   3.334
28485WAT     H185697   4.593   6.785   3.380
28485WAT     H285698   4.536   6.836   3.235
28486WAT      O85699   3.737   3.254   3.449
28486WAT     H185700   3.765   3.243   3.544
28486WAT     H285701   3.666   3.188   3.427
28487WAT      O85702   5.573   7.573   5.594
28487WAT     H185703   5.672   7.562   5.588
28487WAT     H285704   5.549   7.667   5.570
28488WAT      O85705   5.588   1.975   1.533
28488WAT     H185706   5.605   2.065   1.492
28488WAT     H285707   5.495   1.974   1.571
28489WAT      O85708   9.191   2.135   7.056
28489WAT     H185709   9.213   2.085   7.140
28489WAT     H285710   9.135   2.214   7.078
28490WAT      O85711   2.752   5.227   4.253
28490WAT     H185712   2.655   5.206   4.260
28490WAT     H285713   2.803   5.144   4.230
28491WAT      O85714   0.946   5.997   0.627
28491WAT     H185715   1.009   6.012   0.702
28491WAT     H285716   0.915   5.902   0.629
28492WAT      O85717   1.834   6.389   4.417
28492WAT     H185718   1.789   6.301   4.402
28492WAT     H285719   1.925   6.373   4.455
28493WAT      O85720   7.872   8.633   9.204
28493WAT     H185721   7.874   8.716   9.260
28493WAT     H285722   7.965   8.605   9.182
28494WAT      O85723   1.418   8.261   0.156
28494WAT     H185724   1.368   8.346   0.142
28494WAT     H285725   1.476   8.243   0.076
28495WAT      O85726   4.120   6.332   4.110
28495WAT     H185727   4.134   6.424   4.074
28495WAT     H285728   4.034   6.296   4.075
28496WAT      O85729   0.454   8.143   5.552
28496WAT     H185730   0.417   8.234   5.573
28496WAT     H285731   0.535   8.153   5.494
28497WAT      O85732   5.769   2.999   9.196
28497WAT     H185733   5.722   3.080   9.163
28497WAT     H285734   5.837   2.969   9.129
28498WAT      O85735   6.445   2.574   0.927
28498WAT     H185736   6.347   2.586   0.939
28498WAT     H285737   6.468   2.477   0.937
28499WAT      O85738   0.311   9.135   4.256
28499WAT     H185739   0.308   9.235   4.253
28499WAT     H285740   0.251   9.103   4.329
28500WAT      O85741   2.572   5.135   3.201
28500WAT     H185742   2.522   5.212   3.239
28500WAT     H285743   2.581   5.146   3.102
28501WAT      O85744   3.211   7.758   1.550
28501WAT     H185745   3.290   7.727   1.496
28501WAT     H285746   3.127   7.728   1.506
28502WAT      O85747   8.897   8.401   5.529
28502WAT     H185748   8.960   8.418   5.604
28502WAT     H285749   8.945   8.410   5.442
28503WAT      O85750   2.215   6.718   2.978
28503WAT     H185751   2.292   6.708   3.041
28503WAT     H285752   2.242   6.777   2.901
28504WAT      O85753   9.156   5.938   2.289
28504WAT     H185754   9.256   5.936   2.284
28504WAT     H285755   9.120   5.845   2.275
28505WAT      O85756   7.152   5.684   9.695
28505WAT     H185757   7.076   5.710   9.636
28505WAT     H285758   7.195   5.766   9.733
28506WAT      O85759   0.709   8.509   5.959
28506WAT     H185760   0.751   8.433   5.909
28506WAT     H285761   0.761   8.592   5.944
28507WAT      O85762   7.816   1.855   2.525
28507WAT     H185763   7.794   1.757   2.519
28507WAT     H285764   7.735   1.905   2.556
28508WAT      O85765   4.468   3.424   3.669
28508WAT     H185766   4.538   3.355   3.647
28508WAT     H285767   4.442   3.415   3.765
28509WAT      O85768   3.926   3.512   1.419
28509WAT     H185769   3.944   3.595   1.471
28509WAT     H285770   4.013   3.464   1.403
28510WAT      O85771   8.022   9.471   4.509
28510WAT     H185772   7.950   9.510   4.452
28510WAT     H285773   8.068   9.545   4.559
28511WAT      O85774   5.262   3.601   2.713
28511WAT     H185775   5.317   3.584   2.796
28511WAT     H285776   5.309   3.668   2.655
28512WAT      O85777   7.415   7.987   9.689
28512WAT     H185778   7.444   8.058   9.625
28512WAT     H285779   7.369   8.029   9.767
28513WAT      O85780   2.239   8.919   4.698
28513WAT     H185781   2.275   8.991   4.640
28513WAT     H285782   2.308   8.894   4.766
28514WAT      O85783   2.578   5.706   8.205
28514WAT     H185784   2.598   5.608   8.202
28514WAT     H285785   2.581   5.744   8.113
28515WAT      O85786   7.401   3.482   4.859
28515WAT     H185787   7.385   3.470   4.761
28515WAT     H285788   7.441   3.572   4.876
28516WAT      O85789   0.826   9.325   9.610
28516WAT     H185790   0.911   9.307   9.560
28516WAT     H285791   0.843   9.317   9.708
28517WAT      O85792   2.360   5.736   3.005
28517WAT     H185793   2.391   5.790   3.083
28517WAT     H285794   2.265   5.759   2.983
28518WAT      O85795   4.884   5.871   6.462
28518WAT     H185796   4.920   5.870   6.369
28518WAT     H285797   4.794   5.916   6.461
28519WAT      O85798   1.798   1.170   0.886
28519WAT     H185799   1.735   1.106   0.842
28519WAT     H285800   1.818   1.139   0.979
28520WAT      O85801   0.869   6.568   3.593
28520WAT     H185802   0.802   6.518   3.647
28520WAT     H285803   0.927   6.621   3.655
28521WAT      O85804   4.844   7.563   3.635
28521WAT     H185805   4.837   7.554   3.734
28521WAT     H285806   4.940   7.565   3.608
28522WAT      O85807   3.706   7.091   5.916
28522WAT     H185808   3.781   7.148   5.882
28522WAT     H285809   3.740   7.027   5.984
28523WAT      O85810   9.571   1.938   3.702
28523WAT     H185811   9.515   1.978   3.630
28523WAT     H285812   9.569   1.839   3.695
28524WAT      O85813   5.241   7.901   2.528
28524WAT     H185814   5.280   7.809   2.527
28524WAT     H285815   5.231   7.932   2.623
28525WAT      O85816   5.017   5.404   1.042
28525WAT     H185817   5.107   5.442   1.060
28525WAT     H285818   4.949   5.452   1.097
28526WAT      O85819   8.712   3.616   3.344
28526WAT     H185820   8.778   3.613   3.419
28526WAT     H285821   8.678   3.710   3.334
28527WAT      O85822   6.616   7.949   0.106
28527WAT     H185823   6.705   7.984   0.136
28527WAT     H285824   6.579   8.008   0.034
28528WAT      O85825   3.305   6.778   2.557
28528WAT     H185826   3.266   6.847   2.497
28528WAT     H285827   3.262   6.690   2.540
28529WAT      O85828   0.906   4.606   2.832
28529WAT     H185829   0.953   4.575   2.915
28529WAT     H285830   0.960   4.581   2.752
28530WAT      O85831   9.520   2.054   9.477
28530WAT     H185832   9.441   1.995   9.497
28530WAT     H285833   9.526   2.125   9.547
28531WAT      O85834   0.219   2.345   5.820
28531WAT     H185835   0.281   2.421   5.801
28531WAT     H285836   0.144   2.377   5.877
28532WAT      O85837   8.253   0.037   3.911
28532WAT     H185838   8.198   0.100   3.966
28532WAT     H285839   8.279   0.081   3.825
28533WAT      O85840   4.072   9.251   8.206
28533WAT     H185841   3.987   9.205   8.230
28533WAT     H285842   4.123   9.271   8.289
28534WAT      O85843   3.194   1.151   2.916
28534WAT     H185844   3.266   1.086   2.892
28534WAT     H285845   3.146   1.119   2.998
28535WAT      O85846   6.168   3.380   6.735
28535WAT     H185847   6.251   3.333   6.764
28535WAT     H285848   6.186   3.429   6.650
28536WAT      O85849   3.649   4.966   7.538
28536WAT     H185850   3.634   4.881   7.489
28536WAT     H285851   3.673   5.038   7.473
28537WAT      O85852   1.423   5.118   0.761
28537WAT     H185853   1.326   5.111   0.784
28537WAT     H285854   1.435   5.178   0.682
28538WAT      O85855   7.895   5.231   8.636
28538WAT     H185856   7.962   5.171   8.593
28538WAT     H285857   7.876   5.309   8.577
28539WAT      O85858   5.269   8.023   9.086
28539WAT     H185859   5.305   7.961   9.017
28539WAT     H285860   5.307   8.115   9.071
28540WAT      O85861   3.426   4.689   6.535
28540WAT     H185862   3.473   4.768   6.496
28540WAT     H285863   3.327   4.699   6.519
28541WAT      O85864   4.842   7.715   5.445
28541WAT     H185865   4.893   7.657   5.381
28541WAT     H285866   4.902   7.744   5.519
28542WAT      O85867   6.505   6.052   1.155
28542WAT     H185868   6.442   6.059   1.078
28542WAT     H285869   6.498   6.134   1.212
28543WAT      O85870   2.383   1.049   2.077
28543WAT     H185871   2.316   1.124   2.080
28543WAT     H285872   2.413   1.035   1.982
28544WAT      O85873   3.726   5.710   2.076
28544WAT     H185874   3.641   5.657   2.084
28544WAT     H285875   3.710   5.804   2.105
28545WAT      O85876   6.928   8.630   0.272
28545WAT     H185877   6.943   8.605   0.176
28545WAT     H285878   6.982   8.711   0.294
28546WAT      O85879   9.794   8.533   8.693
28546WAT     H185880   9.753   8.624   8.696
28546WAT     H285881   9.729   8.469   8.652
28547WAT      O85882   4.708   1.714   8.014
28547WAT     H185883   4.757   1.782   7.959
28547WAT     H285884   4.762   1.691   8.095
28548WAT      O85885   8.128   5.590   7.613
28548WAT     H185886   8.189   5.535   7.670
28548WAT     H285887   8.033   5.577   7.641
28549WAT      O85888   1.547   7.324   9.757
28549WAT     H185889   1.543   7.242   9.814
28549WAT     H285890   1.641   7.340   9.728
28550WAT      O85891   7.670   2.785   3.105
28550WAT     H185892   7.644   2.696   3.068
28550WAT     H285893   7.588   2.838   3.126
28551WAT      O85894   0.099   6.369   0.175
28551WAT     H185895   0.097   6.468   0.157
28551WAT     H285896   0.057   6.320   0.099
28552WAT      O85897   1.533   9.433   2.097
28552WAT     H185898   1.559   9.394   2.186
28552WAT     H285899   1.595   9.507   2.074
28553WAT      O85900   7.687   9.400   5.089
28553WAT     H185901   7.607   9.459   5.100
28553WAT     H285902   7.657   9.310   5.056
28554WAT      O85903   7.990   0.442   9.763
28554WAT     H185904   7.917   0.392   9.809
28554WAT     H285905   7.952   0.524   9.720
28555WAT      O85906   0.040   6.140   2.009
28555WAT     H185907  -0.021   6.139   2.089
28555WAT     H285908   0.048   6.233   1.974
28556WAT      O85909   2.589   0.106   5.028
28556WAT     H185910   2.592   0.014   5.067
28556WAT     H285911   2.624   0.172   5.094
28557WAT      O85912   1.700   8.635   6.176
28557WAT     H185913   1.678   8.605   6.269
28557WAT     H285914   1.710   8.556   6.117
28558WAT      O85915   2.541   8.717   7.283
28558WAT     H185916   2.473   8.749   7.217
28558WAT     H285917   2.589   8.638   7.246
28559WAT      O85918   1.640   1.192   0.356
28559WAT     H185919   1.634   1.188   0.256
28559WAT     H285920   1.549   1.182   0.396
28560WAT      O85921   1.171   2.223   8.550
28560WAT     H185922   1.269   2.201   8.558
28560WAT     H285923   1.160   2.317   8.519
28561WAT      O85924   8.378   6.123   0.348
28561WAT     H185925   8.436   6.123   0.266
28561WAT     H285926   8.416   6.185   0.416
28562WAT      O85927   8.420   6.597   5.763
28562WAT     H185928   8.439   6.524   5.828
28562WAT     H285929   8.410   6.560   5.671
28563WAT      O85930   2.893   4.899   6.784
28563WAT     H185931   2.990   4.923   6.788
28563WAT     H285932   2.848   4.956   6.715
28564WAT      O85933   3.699   2.767   4.819
28564WAT     H185934   3.644   2.847   4.796
28564WAT     H285935   3.796   2.792   4.818
28565WAT      O85936   0.760   2.301   4.416
28565WAT     H185937   0.795   2.302   4.510
28565WAT     H285938   0.714   2.213   4.398
28566WAT      O85939   9.433   4.419   2.923
28566WAT     H185940   9.351   4.381   2.881
28566WAT     H285941   9.437   4.517   2.906
28567WAT      O85942   4.478   7.759   4.394
28567WAT     H185943   4.543   7.718   4.330
28567WAT     H285944   4.394   7.784   4.345
28568WAT      O85945   2.531   7.842   4.327
28568WAT     H185946   2.564   7.784   4.252
28568WAT     H285947   2.435   7.820   4.346
28569WAT      O85948   1.582   2.250   5.238
28569WAT     H185949   1.646   2.323   5.214
28569WAT     H285950   1.631   2.178   5.288
28570WAT      O85951   0.665   8.619   1.671
28570WAT     H185952   0.620   8.530   1.681
28570WAT     H285953   0.642   8.677   1.749
28571WAT      O85954   3.243   6.266   4.287
28571WAT     H185955   3.155   6.272   4.239
28571WAT     H285956   3.235   6.200   4.362
28572WAT      O85957   5.270   4.033   1.283
28572WAT     H185958   5.300   3.944   1.247
28572WAT     H285959   5.344   4.099   1.275
28573WAT      O85960   0.961   5.104   5.206
28573WAT     H185961   0.903   5.128   5.284
28573WAT     H285962   1.052   5.142   5.219
28574WAT      O85963   2.075   4.429   1.434
28574WAT     H185964   2.013   4.364   1.389
28574WAT     H285965   2.114   4.491   1.365
28575WAT      O85966   4.082   8.304   6.872
28575WAT     H185967   4.079   8.213   6.913
28575WAT     H285968   4.012   8.362   6.915
28576WAT      O85969   2.312   5.523   0.595
28576WAT     H185970   2.217   5.494   0.610
28576WAT     H285971   2.333   5.518   0.497
28577WAT      O85972   7.880   5.710   1.781
28577WAT     H185973   7.906   5.729   1.687
28577WAT     H285974   7.885   5.793   1.836
28578WAT      O85975   6.042   0.243   8.217
28578WAT     H185976   6.141   0.258   8.218
28578WAT     H285977   6.003   0.276   8.304
28579WAT      O85978   5.048   6.798   6.813
28579WAT     H185979   5.002   6.880   6.779
28579WAT     H285980   5.051   6.730   6.740
28580WAT      O85981   0.050   4.235   8.440
28580WAT     H185982   0.022   4.229   8.536
28580WAT     H285983   0.143   4.200   8.430
28581WAT      O85984   8.591   1.299   5.646
28581WAT     H185985   8.641   1.235   5.704
28581WAT     H285986   8.617   1.284   5.550
28582WAT      O85987   1.607   5.885   7.431
28582WAT     H185988   1.531   5.853   7.489
28582WAT     H285989   1.691   5.885   7.485
28583WAT      O85990   0.075   9.808   2.558
28583WAT     H185991   0.049   9.794   2.463
28583WAT     H285992   0.002   9.773   2.618
28584WAT      O85993   8.411   9.210   5.003
28584WAT     H185994   8.419   9.230   4.905
28584WAT     H285995   8.468   9.275   5.054
28585WAT      O85996   8.280   7.317   5.863
28585WAT     H185997   8.207   7.249   5.867
28585WAT     H285998   8.351   7.293   5.929
28586WAT      O85999   8.884   6.441   5.047
28586WAT     H186000   8.984   6.446   5.047
28586WAT     H286001   8.853   6.419   4.954
28587WAT      O86002   5.099   0.940   3.789
28587WAT     H186003   5.171   0.981   3.733
28587WAT     H286004   5.133   0.855   3.831
28588WAT      O86005   6.519   9.839   9.460
28588WAT     H186006   6.602   9.790   9.435
28588WAT     H286007   6.440   9.778   9.450
28589WAT      O86008   3.697   8.957   4.877
28589WAT     H186009   3.751   8.948   4.961
28589WAT     H286010   3.638   8.877   4.866
28590WAT      O86011   5.087   1.671   0.806
28590WAT     H186012   5.105   1.651   0.710
28590WAT     H286013   5.008   1.618   0.837
28591WAT      O86014   7.785   8.834   6.679
28591WAT     H186015   7.715   8.879   6.624
28591WAT     H286016   7.759   8.837   6.775
28592WAT      O86017   1.646   2.839   3.402
28592WAT     H186018   1.682   2.751   3.371
28592WAT     H286019   1.665   2.908   3.333
28593WAT      O86020   8.881   5.620   3.810
28593WAT     H186021   8.877   5.664   3.900
28593WAT     H286022   8.922   5.682   3.744
28594WAT      O86023   0.005   3.694   7.952
28594WAT     H186024  -0.067   3.655   8.010
28594WAT     H286025   0.065   3.751   8.007
28595WAT      O86026   9.672   5.969   7.875
28595WAT     H186027   9.723   6.001   7.955
28595WAT     H286028   9.665   5.869   7.878
28596WAT      O86029   2.816   7.537   8.086
28596WAT     H186030   2.808   7.455   8.143
28596WAT     H286031   2.742   7.537   8.018
28597WAT      O86032   0.789   2.130   1.328
28597WAT     H186033   0.813   2.161   1.236
28597WAT     H286034   0.699   2.086   1.327
28598WAT      O86035   4.176   5.320   9.688
28598WAT     H186036   4.141   5.334   9.595
28598WAT     H286037   4.242   5.244   9.687
28599WAT      O86038   5.969   1.781   8.065
28599WAT     H186039   5.947   1.733   7.980
28599WAT     H286040   6.068   1.781   8.078
28600WAT      O86041   3.842   8.080   6.682
28600WAT     H186042   3.808   8.016   6.613
28600WAT     H286043   3.877   8.162   6.637
28601WAT      O86044   2.492   2.905   0.867
28601WAT     H186045   2.578   2.857   0.851
28601WAT     H286046   2.493   2.946   0.958
28602WAT      O86047   3.834   3.959   0.860
28602WAT     H186048   3.758   4.015   0.893
28602WAT     H286049   3.911   4.018   0.836
28603WAT      O86050   5.574   4.508   7.875
28603WAT     H186051   5.568   4.505   7.974
28603WAT     H286052   5.565   4.603   7.843
28604WAT      O86053   6.490   7.646   3.138
28604WAT     H186054   6.537   7.560   3.157
28604WAT     H286055   6.421   7.663   3.208
28605WAT      O86056   6.161   1.102   6.806
28605WAT     H186057   6.108   1.028   6.764
28605WAT     H286058   6.190   1.073   6.897
28606WAT      O86059   0.584   7.131   9.478
28606WAT     H186060   0.501   7.170   9.517
28606WAT     H286061   0.565   7.099   9.385
28607WAT      O86062   4.706   8.482   5.693
28607WAT     H186063   4.626   8.541   5.680
28607WAT     H286064   4.675   8.386   5.697
28608WAT      O86065   2.316   9.116   0.197
28608WAT     H186066   2.282   9.130   0.290
28608WAT     H286067   2.304   9.200   0.144
28609WAT      O86068   2.428   5.548   4.614
28609WAT     H186069   2.490   5.627   4.611
28609WAT     H286070   2.426   5.511   4.707
28610WAT      O86071   4.193   3.503   3.635
28610WAT     H186072   4.138   3.480   3.554
28610WAT     H286073   4.289   3.480   3.618
28611WAT      O86074   2.069   9.671   9.717
28611WAT     H186075   2.086   9.685   9.620
28611WAT     H286076   1.980   9.708   9.741
28612WAT      O86077   2.089   4.439   2.987
28612WAT     H186078   2.095   4.526   3.036
28612WAT     H286079   2.169   4.382   3.009
28613WAT      O86080   0.829   2.000   3.885
28613WAT     H186081   0.862   1.943   3.810
28613WAT     H286082   0.777   2.077   3.848
28614WAT      O86083   0.912   2.539   0.442
28614WAT     H186084   0.820   2.502   0.432
28614WAT     H286085   0.950   2.559   0.351
28615WAT      O86086   9.451   4.438   0.347
28615WAT     H186087   9.379   4.498   0.381
28615WAT     H286088   9.538   4.463   0.390
28616WAT      O86089   2.663   5.420   7.913
28616WAT     H186090   2.632   5.421   8.008
28616WAT     H286091   2.695   5.512   7.888
28617WAT      O86092   6.215   8.572   8.301
28617WAT     H186093   6.254   8.651   8.254
28617WAT     H286094   6.128   8.598   8.343
28618WAT      O86095   4.982   8.865   0.130
28618WAT     H186096   4.921   8.850   0.052
28618WAT     H286097   4.982   8.962   0.153
28619WAT      O86098   5.973   9.006   2.805
28619WAT     H186099   6.013   8.990   2.895
28619WAT     H286100   5.896   9.068   2.813
28620WAT      O86101   6.129   9.528   6.708
28620WAT     H186102   6.195   9.600   6.727
28620WAT     H286103   6.088   9.542   6.619
28621WAT      O86104   8.827   9.321   1.073
28621WAT     H186105   8.906   9.288   1.022
28621WAT     H286106   8.855   9.395   1.135
28622WAT      O86107   4.582   6.745   6.483
28622WAT     H186108   4.558   6.823   6.539
28622WAT     H286109   4.654   6.692   6.528
28623WAT      O86110   7.294   3.438   4.153
28623WAT     H186111   7.202   3.407   4.128
28623WAT     H286112   7.361   3.397   4.092
28624WAT      O86113   2.318   4.316   3.136
28624WAT     H186114   2.318   4.359   3.227
28624WAT     H286115   2.401   4.343   3.087
28625WAT      O86116   8.323   2.278   7.711
28625WAT     H186117   8.277   2.279   7.800
28625WAT     H286118   8.409   2.330   7.718
28626WAT      O86119   4.734   1.684   1.324
28626WAT     H186120   4.688   1.762   1.283
28626WAT     H286121   4.685   1.600   1.301
28627WAT      O86122   1.308   3.286   3.011
28627WAT     H186123   1.379   3.235   3.059
28627WAT     H286124   1.330   3.383   3.012
28628WAT      O86125   1.712   0.133   0.192
28628WAT     H186126   1.701   0.233   0.197
28628WAT     H286127   1.713   0.095   0.284
28629WAT      O86128   4.203   1.143   8.106
28629WAT     H186129   4.285   1.200   8.113
28629WAT     H286130   4.143   1.162   8.184
28630WAT      O86131   5.090   6.112   2.814
28630WAT     H186132   5.017   6.139   2.751
28630WAT     H286133   5.176   6.104   2.764
28631WAT      O86134   1.298   3.011   2.892
28631WAT     H186135   1.344   3.098   2.910
28631WAT     H286136   1.360   2.951   2.842
28632WAT      O86137   9.487   1.929   5.390
28632WAT     H186138   9.553   1.993   5.430
28632WAT     H286139   9.411   1.981   5.351
28633WAT      O86140   8.419   6.713   3.590
28633WAT     H186141   8.366   6.711   3.505
28633WAT     H286142   8.516   6.709   3.569
28634WAT      O86143   0.775   9.383   2.102
28634WAT     H186144   0.829   9.433   2.034
28634WAT     H286145   0.678   9.399   2.086
28635WAT      O86146   6.517   3.221   0.500
28635WAT     H186147   6.526   3.309   0.454
28635WAT     H286148   6.454   3.163   0.449
28636WAT      O86149   4.657   0.590   2.426
28636WAT     H186150   4.654   0.649   2.507
28636WAT     H286151   4.752   0.563   2.407
28637WAT      O86152   7.094   1.831   0.720
28637WAT     H186153   7.139   1.916   0.747
28637WAT     H286154   6.998   1.834   0.748
28638WAT      O86155   2.783   8.619   7.161
28638WAT     H186156   2.880   8.601   7.141
28638WAT     H286157   2.728   8.542   7.129
28639WAT      O86158   5.866   4.183   4.017
28639WAT     H186159   5.916   4.262   3.983
28639WAT     H286160   5.847   4.196   4.114
28640WAT      O86161   2.941   2.224   4.075
28640WAT     H186162   2.991   2.179   4.001
28640WAT     H286163   2.914   2.157   4.143
28641WAT      O86164   5.900   1.070   6.742
28641WAT     H186165   5.972   1.121   6.789
28641WAT     H286166   5.813   1.118   6.751
28642WAT      O86167   3.790   3.550   6.355
28642WAT     H186168   3.716   3.513   6.412
28642WAT     H286169   3.780   3.650   6.349
28643WAT      O86170   0.999   8.032   1.430
28643WAT     H186171   0.981   7.937   1.407
28643WAT     H286172   1.008   8.086   1.346
28644WAT      O86173   9.858   0.073   8.906
28644WAT     H186174   9.937   0.098   8.850
28644WAT     H286175   9.839  -0.025   8.895
28645WAT      O86176   9.864   1.150   1.540
28645WAT     H186177   9.878   1.115   1.633
28645WAT     H286178   9.767   1.146   1.517
28646WAT      O86179   2.045   8.864   2.810
28646WAT     H186180   2.145   8.874   2.811
28646WAT     H286181   2.008   8.921   2.736
28647WAT      O86182   2.404   1.454   5.566
28647WAT     H186183   2.335   1.517   5.600
28647WAT     H286184   2.359   1.373   5.527
28648WAT      O86185   2.445   7.095   3.799
28648WAT     H186186   2.479   7.022   3.857
28648WAT     H286187   2.504   7.175   3.807
28649WAT      O86188   3.267   1.944   3.211
28649WAT     H186189   3.209   1.962   3.291
28649WAT     H286190   3.336   2.015   3.204
28650WAT      O86191   8.902   5.058   7.555
28650WAT     H186192   8.949   4.973   7.532
28650WAT     H286193   8.841   5.083   7.480
28651WAT      O86194   7.065   6.060   2.658
28651WAT     H186195   6.970   6.056   2.687
28651WAT     H286196   7.097   5.968   2.635
28652WAT      O86197   3.118   7.469   7.413
28652WAT     H186198   3.108   7.558   7.370
28652WAT     H286199   3.051   7.405   7.373
28653WAT      O86200   4.712   6.702   8.165
28653WAT     H186201   4.714   6.669   8.070
28653WAT     H286202   4.621   6.689   8.202
28654WAT      O86203   7.963   6.745   9.196
28654WAT     H186204   8.026   6.677   9.235
28654WAT     H286205   7.975   6.748   9.096
28655WAT      O86206   3.334   6.007   1.204
28655WAT     H186207   3.271   6.055   1.265
28655WAT     H286208   3.398   5.953   1.258
28656WAT      O86209   7.087   4.201   1.004
28656WAT     H186210   7.015   4.197   1.073
28656WAT     H286211   7.057   4.152   0.922
28657WAT      O86212   4.747   0.334   2.914
28657WAT     H186213   4.683   0.281   2.969
28657WAT     H286214   4.804   0.391   2.973
28658WAT      O86215   0.020   6.799   5.685
28658WAT     H186216   0.050   6.894   5.680
28658WAT     H286217   0.006   6.773   5.781
28659WAT      O86218   0.977   9.135   7.005
28659WAT     H186219   0.937   9.053   6.963
28659WAT     H286220   1.077   9.129   7.001
28660WAT      O86221   8.863   6.730   2.056
28660WAT     H186222   8.826   6.665   1.991
28660WAT     H286223   8.960   6.710   2.072
28661WAT      O86224   7.783   7.153   9.535
28661WAT     H186225   7.751   7.113   9.621
28661WAT     H286226   7.761   7.251   9.534
28662WAT      O86227   8.132   7.510   6.524
28662WAT     H186228   8.155   7.606   6.507
28662WAT     H286229   8.057   7.483   6.462
28663WAT      O86230   0.253   8.467   6.027
28663WAT     H186231   0.323   8.423   5.970
28663WAT     H286232   0.241   8.562   5.997
28664WAT      O86233   2.420   0.219   1.587
28664WAT     H186234   2.399   0.188   1.680
28664WAT     H286235   2.516   0.244   1.581
28665WAT      O86236   0.459   9.243   2.923
28665WAT     H186237   0.410   9.305   2.862
28665WAT     H286238   0.516   9.296   2.986
28666WAT      O86239   3.421   1.071   6.787
28666WAT     H186240   3.374   1.151   6.824
28666WAT     H286241   3.436   1.004   6.859
28667WAT      O86242   5.849   0.488   4.273
28667WAT     H186243   5.873   0.453   4.182
28667WAT     H286244   5.871   0.585   4.279
28668WAT      O86245   1.129   4.089   3.887
28668WAT     H186246   1.151   4.025   3.813
28668WAT     H286247   1.139   4.182   3.854
28669WAT      O86248   8.212   9.616   5.933
28669WAT     H186249   8.196   9.517   5.942
28669WAT     H286250   8.162   9.664   6.006
28670WAT      O86251   2.067   9.714   5.002
28670WAT     H186252   2.162   9.743   4.991
28670WAT     H286253   2.062   9.639   5.068
28671WAT      O86254   6.923   2.704   8.969
28671WAT     H186255   6.965   2.794   8.960
28671WAT     H286256   6.956   2.644   8.896
28672WAT      O86257   5.986   8.203   0.846
28672WAT     H186258   6.016   8.141   0.919
28672WAT     H286259   5.972   8.295   0.884
28673WAT      O86260   3.552   8.252   1.566
28673WAT     H186261   3.637   8.251   1.513
28673WAT     H286262   3.512   8.161   1.566
28674WAT      O86263   3.643   8.889   1.446
28674WAT     H186264   3.731   8.879   1.399
28674WAT     H286265   3.655   8.871   1.543
28675WAT      O86266   4.630   7.537   7.679
28675WAT     H186267   4.557   7.471   7.664
28675WAT     H286268   4.685   7.545   7.596
28676WAT      O86269   3.735   8.841   6.581
28676WAT     H186270   3.740   8.913   6.511
28676WAT     H286271   3.649   8.850   6.632
28677WAT      O86272   0.128   1.677   3.410
28677WAT     H186273   0.073   1.706   3.331
28677WAT     H286274   0.112   1.579   3.427
28678WAT      O86275   2.991   4.851   1.438
28678WAT     H186276   3.053   4.785   1.481
28678WAT     H286277   2.897   4.832   1.468
28679WAT      O86278   1.861   6.159   7.794
28679WAT     H186279   1.764   6.169   7.816
28679WAT     H286280   1.881   6.064   7.772
28680WAT      O86281   6.979   9.249   7.676
28680WAT     H186282   7.039   9.325   7.701
28680WAT     H286283   6.988   9.176   7.743
28681WAT      O86284   8.752   0.523   9.665
28681WAT     H186285   8.824   0.461   9.697
28681WAT     H286286   8.761   0.535   9.566
28682WAT      O86287   6.032   8.751   9.169
28682WAT     H186288   6.032   8.772   9.266
28682WAT     H286289   6.032   8.652   9.157
28683WAT      O86290   0.482   4.301   5.041
28683WAT     H186291   0.515   4.317   5.134
28683WAT     H286292   0.559   4.298   4.978
28684WAT      O86293   7.146   1.370   6.235
28684WAT     H186294   7.058   1.373   6.188
28684WAT     H286295   7.168   1.276   6.260
28685WAT      O86296   7.928   5.793   1.523
28685WAT     H186297   7.875   5.815   1.442
28685WAT     H286298   8.012   5.745   1.496
28686WAT      O86299   7.183   1.566   4.674
28686WAT     H186300   7.234   1.487   4.708
28686WAT     H286301   7.116   1.594   4.742
28687WAT      O86302   1.200   1.604   9.116
28687WAT     H186303   1.175   1.594   9.212
28687WAT     H286304   1.254   1.525   9.088
28688WAT      O86305   4.740   9.347   0.417
28688WAT     H186306   4.728   9.313   0.324
28688WAT     H286307   4.728   9.272   0.482
28689WAT      O86308   8.353   7.274   2.183
28689WAT     H186309   8.299   7.358   2.171
28689WAT     H286310   8.305   7.214   2.247
28690WAT      O86311   5.940   8.375   1.923
28690WAT     H186312   6.037   8.364   1.901
28690WAT     H286313   5.931   8.425   2.009
28691WAT      O86314   9.227   0.427   1.377
28691WAT     H186315   9.157   0.494   1.402
28691WAT     H286316   9.272   0.456   1.292
28692WAT      O86317   1.587   8.534   1.121
28692WAT     H186318   1.546   8.598   1.057
28692WAT     H286319   1.607   8.448   1.075
28693WAT      O86320   2.129   4.917   1.594
28693WAT     H186321   2.212   4.937   1.646
28693WAT     H286322   2.096   5.001   1.551
28694WAT      O86323   6.332   0.116   8.793
28694WAT     H186324   6.310   0.211   8.814
28694WAT     H286325   6.276   0.085   8.716
28695WAT      O86326   4.347   6.140   4.167
28695WAT     H186327   4.264   6.165   4.117
28695WAT     H286328   4.353   6.194   4.251
28696WAT      O86329   5.087   9.261   4.033
28696WAT     H186330   5.119   9.185   4.088
28696WAT     H286331   5.054   9.334   4.093
28697WAT      O86332   2.661   7.391   9.126
28697WAT     H186333   2.657   7.374   9.224
28697WAT     H286334   2.568   7.393   9.088
28698WAT      O86335   8.045   3.035   3.389
28698WAT     H186336   7.997   3.120   3.372
28698WAT     H286337   7.981   2.966   3.423
28699WAT      O86338   3.254   3.446   5.644
28699WAT     H186339   3.168   3.486   5.674
28699WAT     H286340   3.315   3.433   5.722
28700WAT      O86341   0.741   3.838   2.079
28700WAT     H186342   0.739   3.818   2.177
28700WAT     H286343   0.681   3.915   2.059
28701WAT      O86344   3.610   3.707   4.153
28701WAT     H186345   3.626   3.665   4.242
28701WAT     H286346   3.681   3.775   4.135
28702WAT      O86347   2.553   0.844   9.268
28702WAT     H186348   2.600   0.777   9.326
28702WAT     H286349   2.500   0.906   9.327
28703WAT      O86350   0.352   9.429   2.748
28703WAT     H186351   0.364   9.424   2.649
28703WAT     H286352   0.412   9.501   2.785
28704WAT      O86353   2.728   0.771   6.608
28704WAT     H186354   2.658   0.825   6.655
28704WAT     H286355   2.812   0.770   6.663
28705WAT      O86356   2.980   0.778   7.476
28705WAT     H186357   3.077   0.778   7.450
28705WAT     H286358   2.928   0.724   7.410
28706WAT      O86359   4.563   4.997   2.977
28706WAT     H186360   4.489   5.020   3.039
28706WAT     H286361   4.587   4.900   2.989
28707WAT      O86362   7.759   3.462   4.804
28707WAT     H186363   7.796   3.411   4.726
28707WAT     H286364   7.659   3.467   4.796
28708WAT      O86365   2.001   3.041   3.906
28708WAT     H186366   1.966   3.083   3.990
28708WAT     H286367   1.949   2.958   3.886
28709WAT      O86368   8.620   2.886   3.194
28709WAT     H186369   8.564   2.865   3.113
28709WAT     H286370   8.619   2.985   3.209
28710WAT      O86371   0.047   5.181   2.700
28710WAT     H186372   0.144   5.175   2.721
28710WAT     H286373   0.007   5.260   2.747
28711WAT      O86374   1.388   1.932   5.283
28711WAT     H186375   1.348   1.997   5.219
28711WAT     H286376   1.433   1.983   5.357
28712WAT      O86377   9.381   4.919   6.933
28712WAT     H186378   9.326   4.970   6.999
28712WAT     H286379   9.461   4.974   6.908
28713WAT      O86380   8.532   3.385   5.832
28713WAT     H186381   8.528   3.427   5.742
28713WAT     H286382   8.456   3.321   5.843
28714WAT      O86383   2.456   5.925   1.405
28714WAT     H186384   2.454   5.849   1.470
28714WAT     H286385   2.425   5.894   1.315
28715WAT      O86386   7.945   1.790   9.696
28715WAT     H186387   8.018   1.842   9.739
28715WAT     H286388   7.867   1.850   9.679
28716WAT      O86389   1.294   4.661   0.322
28716WAT     H186390   1.320   4.641   0.417
28716WAT     H286391   1.359   4.725   0.282
28717WAT      O86392   0.212   3.081   4.880
28717WAT     H186393   0.285   3.074   4.812
28717WAT     H286394   0.153   3.159   4.859
28718WAT      O86395   4.447   0.693   8.596
28718WAT     H186396   4.451   0.614   8.536
28718WAT     H286397   4.491   0.672   8.683
28719WAT      O86398   3.609   0.886   7.756
28719WAT     H186399   3.592   0.975   7.798
28719WAT     H286400   3.699   0.852   7.784
28720WAT      O86401   8.093   4.508   2.513
28720WAT     H186402   8.040   4.455   2.579
28720WAT     H286403   8.148   4.576   2.561
28721WAT      O86404   2.882   4.040   9.710
28721WAT     H186405   2.928   4.022   9.623
28721WAT     H286406   2.795   3.990   9.713
28722WAT      O86407   1.274   9.819   6.570
28722WAT     H186408   1.370   9.845   6.582
28722WAT     H286409   1.267   9.720   6.566
28723WAT      O86410   7.003   3.312   4.222
28723WAT     H186411   6.906   3.304   4.247
28723WAT     H286412   7.058   3.263   4.290
28724WAT      O86413   7.153   3.453   0.916
28724WAT     H186414   7.139   3.400   1.000
28724WAT     H286415   7.156   3.391   0.837
28725WAT      O86416   5.033   1.326   2.269
28725WAT     H186417   4.986   1.287   2.189
28725WAT     H286418   5.050   1.423   2.254
28726WAT      O86419   1.816   0.147   5.264
28726WAT     H186420   1.889   0.120   5.327
28726WAT     H286421   1.776   0.065   5.223
28727WAT      O86422   6.772   0.481   5.179
28727WAT     H186423   6.673   0.471   5.180
28727WAT     H286424   6.804   0.486   5.085
28728WAT      O86425   5.616   6.047   0.613
28728WAT     H186426   5.695   6.000   0.654
28728WAT     H286427   5.573   5.987   0.545
28729WAT      O86428   8.794   2.741   0.267
28729WAT     H186429   8.705   2.699   0.256
28729WAT     H286430   8.785   2.827   0.317
28730WAT      O86431   0.472   8.503   3.159
28730WAT     H186432   0.532   8.562   3.213
28730WAT     H286433   0.391   8.480   3.213
28731WAT      O86434   7.576   4.406   3.588
28731WAT     H186435   7.557   4.352   3.670
28731WAT     H286436   7.610   4.347   3.516
28732WAT      O86437   7.380   3.252   1.190
28732WAT     H186438   7.285   3.239   1.164
28732WAT     H286439   7.434   3.276   1.109
28733WAT      O86440   1.350   0.125   2.644
28733WAT     H186441   1.327   0.216   2.609
28733WAT     H286442   1.381   0.133   2.739
28734WAT      O86443   3.340   4.284   6.017
28734WAT     H186444   3.356   4.237   6.104
28734WAT     H286445   3.358   4.382   6.028
28735WAT      O86446   3.463   2.231   7.998
28735WAT     H186447   3.522   2.282   8.059
28735WAT     H286448   3.382   2.286   7.975
28736WAT      O86449   8.973   1.891   5.940
28736WAT     H186450   8.955   1.945   5.858
28736WAT     H286451   9.058   1.838   5.927
28737WAT      O86452   6.520   1.766   6.985
28737WAT     H186453   6.497   1.690   7.045
28737WAT     H286454   6.441   1.827   6.975
28738WAT      O86455   5.884   4.641   4.235
28738WAT     H186456   5.798   4.638   4.184
28738WAT     H286457   5.960   4.655   4.171
28739WAT      O86458   2.867   1.042   8.638
28739WAT     H186459   2.898   0.978   8.569
28739WAT     H286460   2.889   1.136   8.610
28740WAT      O86461   2.116   3.229   8.244
28740WAT     H186462   2.162   3.220   8.156
28740WAT     H286463   2.183   3.225   8.317
28741WAT      O86464   1.648   8.035   1.174
28741WAT     H186465   1.565   8.010   1.223
28741WAT     H286466   1.723   7.975   1.202
28742WAT      O86467   7.705   4.379   1.174
28742WAT     H186468   7.785   4.427   1.137
28742WAT     H286469   7.632   4.445   1.191
28743WAT      O86470   2.083   9.024   7.746
28743WAT     H186471   2.140   9.034   7.828
28743WAT     H286472   2.027   8.942   7.755
28744WAT      O86473   3.693   4.591   4.847
28744WAT     H186474   3.596   4.571   4.831
28744WAT     H286475   3.731   4.639   4.768
28745WAT      O86476   2.756   2.009   9.259
28745WAT     H186477   2.737   2.095   9.213
28745WAT     H286478   2.833   1.963   9.213
28746WAT      O86479   8.474   0.440   3.114
28746WAT     H186480   8.405   0.378   3.150
28746WAT     H286481   8.492   0.417   3.018
28747WAT      O86482   9.088   6.548   9.855
28747WAT     H186483   9.110   6.580   9.947
28747WAT     H286484   9.144   6.469   9.833
28748WAT      O86485   9.095   4.056   5.302
28748WAT     H186486   9.025   4.126   5.316
28748WAT     H286487   9.175   4.077   5.358
28749WAT      O86488   9.852   8.376   5.401
28749WAT     H186489   9.934   8.352   5.349
28749WAT     H286490   9.786   8.301   5.398
28750WAT      O86491   2.020   2.290   0.042
28750WAT     H186492   1.998   2.197   0.071
28750WAT     H286493   1.936   2.337   0.014
28751WAT      O86494   8.978   6.578   6.854
28751WAT     H186495   8.897   6.634   6.834
28751WAT     H286496   9.059   6.622   6.815
28752WAT      O86497   0.912   7.932   0.114
28752WAT     H186498   0.883   7.873   0.190
28752WAT     H286499   1.011   7.926   0.102
28753WAT      O86500   4.516   4.892   3.250
28753WAT     H186501   4.420   4.868   3.241
28753WAT     H286502   4.566   4.859   3.170
28754WAT      O86503   4.791   4.793   3.616
28754WAT     H186504   4.866   4.846   3.577
28754WAT     H286505   4.725   4.854   3.660
28755WAT      O86506   5.413   2.103   7.271
28755WAT     H186507   5.318   2.124   7.244
28755WAT     H286508   5.412   2.036   7.345
28756WAT      O86509   2.974   7.393   5.468
28756WAT     H186510   2.939   7.370   5.377
28756WAT     H286511   3.025   7.479   5.463
28757WAT      O86512   6.320   8.957   2.711
28757WAT     H186513   6.320   8.999   2.801
28757WAT     H286514   6.329   8.857   2.720
28758WAT      O86515   1.404   0.360   0.352
28758WAT     H186516   1.408   0.385   0.449
28758WAT     H286517   1.477   0.407   0.303
28759WAT      O86518   5.127   5.421   1.455
28759WAT     H186519   5.194   5.472   1.400
28759WAT     H286520   5.155   5.326   1.462
28760WAT      O86521   4.364   2.113   7.337
28760WAT     H186522   4.342   2.019   7.362
28760WAT     H286523   4.435   2.148   7.398
28761WAT      O86524   2.290   9.097   6.022
28761WAT     H186525   2.221   9.169   6.031
28761WAT     H286526   2.246   9.007   6.032
28762WAT      O86527   4.360   5.856   9.550
28762WAT     H186528   4.328   5.857   9.645
28762WAT     H286529   4.313   5.783   9.499
28763WAT      O86530   8.681   4.750   6.483
28763WAT     H186531   8.743   4.801   6.542
28763WAT     H286532   8.598   4.804   6.466
28764WAT      O86533   1.860   8.350   2.681
28764WAT     H186534   1.834   8.374   2.588
28764WAT     H286535   1.899   8.429   2.727
28765WAT      O86536   5.572   5.258   2.467
28765WAT     H186537   5.612   5.195   2.400
28765WAT     H286538   5.473   5.242   2.473
28766WAT      O86539   6.822   3.910   5.989
28766WAT     H186540   6.853   3.982   6.051
28766WAT     H286541   6.764   3.949   5.918
28767WAT      O86542   6.337   5.004   3.699
28767WAT     H186543   6.385   5.092   3.704
28767WAT     H286544   6.357   4.951   3.781
28768WAT      O86545   2.157   9.426   1.742
28768WAT     H186546   2.133   9.329   1.742
28768WAT     H286547   2.152   9.461   1.648
28769WAT      O86548   8.520   1.009   2.805
28769WAT     H186549   8.479   0.927   2.843
28769WAT     H286550   8.465   1.043   2.729
28770WAT      O86551   1.263   7.522   5.289
28770WAT     H186552   1.318   7.516   5.372
28770WAT     H286553   1.219   7.612   5.284
28771WAT      O86554   4.665   5.999   2.440
28771WAT     H186555   4.603   5.943   2.385
28771WAT     H286556   4.720   6.056   2.379
28772WAT      O86557   3.775   6.530   3.186
28772WAT     H186558   3.853   6.578   3.146
28772WAT     H286559   3.801   6.492   3.275
28773WAT      O86560   4.677   1.069   1.377
28773WAT     H186561   4.769   1.107   1.361
28773WAT     H286562   4.676   1.022   1.465
28774WAT      O86563   2.279   0.262   6.764
28774WAT     H186564   2.238   0.194   6.826
28774WAT     H286565   2.318   0.215   6.685
28775WAT      O86566   2.443   0.533   0.086
28775WAT     H186567   2.484   0.529  -0.005
28775WAT     H286568   2.416   0.442   0.115
28776WAT      O86569   2.081   1.871   2.310
28776WAT     H186570   1.992   1.850   2.271
28776WAT     H286571   2.070   1.898   2.406
28777WAT      O86572   5.825   1.852   2.127
28777WAT     H186573   5.750   1.882   2.069
28777WAT     H286574   5.818   1.753   2.142
28778WAT      O86575   3.798   5.417   4.757
28778WAT     H186576   3.886   5.401   4.802
28778WAT     H286577   3.727   5.428   4.826
28779WAT      O86578   0.766   7.319   7.547
28779WAT     H186579   0.809   7.409   7.556
28779WAT     H286580   0.709   7.317   7.465
28780WAT      O86581   9.085   4.508   5.571
28780WAT     H186582   9.120   4.481   5.661
28780WAT     H286583   8.988   4.533   5.579
28781WAT      O86584   7.439   0.457   4.989
28781WAT     H186585   7.433   0.424   5.083
28781WAT     H286586   7.360   0.514   4.969
28782WAT      O86587   8.964   3.839   7.143
28782WAT     H186588   9.028   3.839   7.066
28782WAT     H286589   8.956   3.746   7.180
28783WAT      O86590   3.473   8.912   3.680
28783WAT     H186591   3.555   8.931   3.733
28783WAT     H286592   3.394   8.906   3.742
28784WAT      O86593   1.743   8.500   2.103
28784WAT     H186594   1.673   8.543   2.160
28784WAT     H286595   1.711   8.410   2.073
28785WAT      O86596   5.116   0.980   5.489
28785WAT     H186597   5.022   0.959   5.463
28785WAT     H286598   5.178   0.954   5.415
28786WAT      O86599   4.378   2.907   6.022
28786WAT     H186600   4.400   2.985   5.964
28786WAT     H286601   4.427   2.826   5.989
28787WAT      O86602   8.747   3.060   4.238
28787WAT     H186603   8.761   3.158   4.221
28787WAT     H286604   8.795   3.034   4.322
28788WAT      O86605   6.510   5.047   5.098
28788WAT     H186606   6.501   5.123   5.034
28788WAT     H286607   6.583   4.986   5.067
28789WAT      O86608   5.890   3.041   2.771
28789WAT     H186609   5.843   3.043   2.683
28789WAT     H286610   5.938   3.127   2.786
28790WAT      O86611   4.370   5.381   0.288
28790WAT     H186612   4.377   5.336   0.199
28790WAT     H286613   4.458   5.376   0.335
28791WAT      O86614   0.631   6.580   0.743
28791WAT     H186615   0.537   6.573   0.710
28791WAT     H286616   0.692   6.530   0.682
28792WAT      O86617   8.505   2.921   9.846
28792WAT     H186618   8.407   2.930   9.860
28792WAT     H286619   8.554   2.949   9.929
28793WAT      O86620   5.635   1.004   4.689
28793WAT     H186621   5.677   0.916   4.711
28793WAT     H286622   5.610   1.006   4.593
28794WAT      O86623   9.688   7.397   6.128
28794WAT     H186624   9.708   7.489   6.097
28794WAT     H286625   9.709   7.389   6.226
28795WAT      O86626   7.937   1.445   1.534
28795WAT     H186627   8.017   1.463   1.591
28795WAT     H286628   7.957   1.469   1.439
28796WAT      O86629   3.258   0.315   6.595
28796WAT     H186630   3.209   0.370   6.527
28796WAT     H286631   3.201   0.304   6.676
28797WAT      O86632   8.686   9.467   6.362
28797WAT     H186633   8.609   9.521   6.397
28797WAT     H286634   8.659   9.426   6.274
28798WAT      O86635   4.820   5.723   1.849
28798WAT     H186636   4.903   5.760   1.807
28798WAT     H286637   4.758   5.691   1.777
28799WAT      O86638   7.919   3.033   0.873
28799WAT     H186639   7.894   2.937   0.858
28799WAT     H286640   7.843   3.092   0.846
28800WAT      O86641   2.026   0.250   9.715
28800WAT     H186642   1.971   0.312   9.659
28800WAT     H286643   1.965   0.197   9.774
28801WAT      O86644   8.936   3.591   3.179
28801WAT     H186645   8.983   3.676   3.157
28801WAT     H286646   8.858   3.610   3.239
28802WAT      O86647   0.182   2.045   7.715
28802WAT     H186648   0.135   2.102   7.647
28802WAT     H286649   0.237   2.104   7.774
28803WAT      O86650   7.318   1.799   2.911
28803WAT     H186651   7.396   1.756   2.866
28803WAT     H286652   7.351   1.863   2.980
28804WAT      O86653   0.894   8.529   1.155
28804WAT     H186654   0.852   8.526   1.064
28804WAT     H286655   0.837   8.584   1.216
28805WAT      O86656   6.452   4.370   8.666
28805WAT     H186657   6.519   4.307   8.627
28805WAT     H286658   6.364   4.324   8.674
28806WAT      O86659   8.149   8.062   8.981
28806WAT     H186660   8.203   8.027   9.058
28806WAT     H286661   8.109   7.986   8.931
28807WAT      O86662   6.368   7.783   4.345
28807WAT     H186663   6.317   7.744   4.269
28807WAT     H286664   6.346   7.880   4.353
28808WAT      O86665   3.954   4.598   9.132
28808WAT     H186666   3.884   4.666   9.152
28808WAT     H286667   3.983   4.606   9.037
28809WAT      O86668   9.590   8.255   9.375
28809WAT     H186669   9.520   8.309   9.328
28809WAT     H286670   9.620   8.180   9.317
28810WAT      O86671   1.573   0.022   5.866
28810WAT     H186672   1.516   0.101   5.845
28810WAT     H286673   1.596  -0.027   5.782
28811WAT      O86674   6.746   2.451   3.072
28811WAT     H186675   6.717   2.528   3.015
28811WAT     H286676   6.830   2.412   3.035
28812WAT      O86677   3.628   1.624   1.778
28812WAT     H186678   3.640   1.574   1.692
28812WAT     H286679   3.709   1.612   1.835
28813WAT      O86680   6.726   1.503   5.029
28813WAT     H186681   6.796   1.442   5.065
28813WAT     H286682   6.705   1.574   5.097
28814WAT      O86683   2.295   0.705   8.629
28814WAT     H186684   2.361   0.643   8.585
28814WAT     H286685   2.283   0.678   8.725
28815WAT      O86686   2.019   4.597   4.768
28815WAT     H186687   1.933   4.618   4.814
28815WAT     H286688   2.086   4.565   4.835
28816WAT      O86689   2.311   2.902   4.793
28816WAT     H186690   2.353   2.825   4.841
28816WAT     H286691   2.378   2.976   4.784
28817WAT      O86692   8.336   0.339   6.746
28817WAT     H186693   8.239   0.340   6.724
28817WAT     H286694   8.388   0.306   6.667
28818WAT      O86695   5.111   2.038   9.086
28818WAT     H186696   5.044   2.006   9.152
28818WAT     H286697   5.175   1.964   9.065
28819WAT      O86698   8.720   4.223   3.425
28819WAT     H186699   8.682   4.131   3.411
28819WAT     H286700   8.650   4.291   3.403
28820WAT      O86701   9.684   3.545   1.216
28820WAT     H186702   9.627   3.624   1.239
28820WAT     H286703   9.774   3.576   1.186
28821WAT      O86704   6.949   6.669   8.225
28821WAT     H186705   7.036   6.640   8.265
28821WAT     H286706   6.892   6.589   8.207
28822WAT      O86707   0.297   4.266   2.781
28822WAT     H186708   0.238   4.346   2.790
28822WAT     H286709   0.284   4.226   2.690
28823WAT      O86710   4.852   4.681   3.243
28823WAT     H186711   4.908   4.763   3.251
28823WAT     H286712   4.765   4.704   3.199
28824WAT      O86713   7.238   2.502   0.511
28824WAT     H186714   7.206   2.596   0.524
28824WAT     H286715   7.180   2.440   0.563
28825WAT      O86716   7.014   7.839   4.252
28825WAT     H186717   7.025   7.919   4.311
28825WAT     H286718   6.970   7.765   4.303
28826WAT      O86719   4.458   9.134   1.037
28826WAT     H186720   4.452   9.034   1.046
28826WAT     H286721   4.547   9.165   1.069
28827WAT      O86722   4.145   6.080   3.794
28827WAT     H186723   4.140   6.010   3.865
28827WAT     H286724   4.055   6.121   3.781
28828WAT      O86725   0.177   6.674   4.217
28828WAT     H186726   0.077   6.681   4.217
28828WAT     H286727   0.211   6.676   4.311
28829WAT      O86728   3.167   1.099   0.832
28829WAT     H186729   3.117   1.161   0.772
28829WAT     H286730   3.152   1.126   0.927
28830WAT      O86731   8.755   0.338   1.655
28830WAT     H186732   8.710   0.271   1.714
28830WAT     H286733   8.845   0.304   1.628
28831WAT      O86734   3.953   7.800   2.423
28831WAT     H186735   4.039   7.831   2.464
28831WAT     H286736   3.896   7.879   2.401
28832WAT      O86737   0.003   1.435   7.675
28832WAT     H186738   0.041   1.526   7.690
28832WAT     H286739  -0.020   1.393   7.763
28833WAT      O86740   1.024   4.446   9.095
28833WAT     H186741   0.965   4.409   9.166
28833WAT     H286742   0.980   4.437   9.006
28834WAT      O86743   9.466   6.256   6.638
28834WAT     H186744   9.547   6.270   6.581
28834WAT     H286745   9.481   6.292   6.729
28835WAT      O86746   4.775   1.944   7.499
28835WAT     H186747   4.809   1.938   7.593
28835WAT     H286748   4.843   1.989   7.441
28836WAT      O86749   5.744   9.562   0.995
28836WAT     H186750   5.820   9.617   0.962
28836WAT     H286751   5.663   9.579   0.939
28837WAT      O86752   2.047   5.442   2.216
28837WAT     H186753   2.077   5.426   2.122
28837WAT     H286754   2.025   5.539   2.229
28838WAT      O86755   8.626   5.046   3.689
28838WAT     H186756   8.557   5.100   3.737
28838WAT     H286757   8.637   5.081   3.596
28839WAT      O86758   2.029   3.535   3.003
28839WAT     H186759   2.018   3.610   2.938
28839WAT     H286760   2.065   3.571   3.089
28840WAT      O86761   6.879   4.912   4.451
28840WAT     H186762   6.908   4.895   4.356
28840WAT     H286763   6.957   4.945   4.504
28841WAT      O86764   3.807   8.312   9.695
28841WAT     H186765   3.763   8.396   9.725
28841WAT     H286766   3.784   8.295   9.599
28842WAT      O86767   0.188   8.170   0.300
28842WAT     H186768   0.257   8.174   0.373
28842WAT     H286769   0.195   8.082   0.252
28843WAT      O86770   3.096   6.626   0.829
28843WAT     H186771   3.173   6.691   0.827
28843WAT     H286772   3.019   6.667   0.878
28844WAT      O86773   7.505   8.413   6.086
28844WAT     H186774   7.440   8.489   6.093
28844WAT     H286775   7.509   8.380   5.991
28845WAT      O86776   5.338   1.457   3.809
28845WAT     H186777   5.265   1.521   3.786
28845WAT     H286778   5.383   1.487   3.893
28846WAT      O86779   7.114   0.374   0.847
28846WAT     H186780   7.068   0.442   0.791
28846WAT     H286781   7.159   0.419   0.924
28847WAT      O86782   4.531   1.283   3.240
28847WAT     H186783   4.535   1.188   3.211
28847WAT     H286784   4.446   1.324   3.205
28848WAT      O86785   1.273   4.890   5.744
28848WAT     H186786   1.331   4.955   5.694
28848WAT     H286787   1.251   4.929   5.834
28849WAT      O86788   9.537   6.543   1.208
28849WAT     H186789   9.449   6.590   1.210
28849WAT     H286790   9.530   6.461   1.151
28850WAT      O86791   6.098   8.998   5.539
28850WAT     H186792   6.068   9.067   5.604
28850WAT     H286793   6.038   9.000   5.458
28851WAT      O86794   3.210   6.431   5.575
28851WAT     H186795   3.231   6.343   5.617
28851WAT     H286796   3.146   6.481   5.634
28852WAT      O86797   4.225   4.379   0.083
28852WAT     H186798   4.279   4.347   0.005
28852WAT     H286799   4.128   4.366   0.064
28853WAT      O86800   1.358   4.777   5.987
28853WAT     H186801   1.378   4.721   6.068
28853WAT     H286802   1.422   4.755   5.914
28854WAT      O86803   1.527   2.351   2.400
28854WAT     H186804   1.527   2.436   2.453
28854WAT     H286805   1.554   2.371   2.306
28855WAT      O86806   9.229   9.285   5.381
28855WAT     H186807   9.209   9.203   5.326
28855WAT     H286808   9.327   9.289   5.400
28856WAT      O86809   3.236   6.906   1.857
28856WAT     H186810   3.318   6.850   1.854
28856WAT     H286811   3.236   6.970   1.780
28857WAT      O86812   1.675   6.753   9.385
28857WAT     H186813   1.605   6.682   9.376
28857WAT     H286814   1.706   6.780   9.293
28858WAT      O86815   0.168   8.542   8.764
28858WAT     H186816   0.198   8.507   8.853
28858WAT     H286817   0.068   8.538   8.759
28859WAT      O86818   1.063   5.054   6.218
28859WAT     H186819   1.002   5.122   6.178
28859WAT     H286820   1.011   4.993   6.278
28860WAT      O86821   5.652   6.642   1.390
28860WAT     H186822   5.720   6.573   1.415
28860WAT     H286823   5.697   6.731   1.379
28861WAT      O86824   9.211   6.313   3.476
28861WAT     H186825   9.252   6.398   3.443
28861WAT     H286826   9.166   6.330   3.564
28862WAT      O86827   7.636   1.365   1.382
28862WAT     H186828   7.684   1.357   1.469
28862WAT     H286829   7.637   1.460   1.352
28863WAT      O86830   0.215   9.018   0.140
28863WAT     H186831   0.160   9.091   0.180
28863WAT     H286832   0.167   8.978   0.062
28864WAT      O86833   0.681   6.877   7.067
28864WAT     H186834   0.655   6.792   7.020
28864WAT     H286835   0.616   6.949   7.043
28865WAT      O86836   8.138   4.142   8.739
28865WAT     H186837   8.236   4.121   8.731
28865WAT     H286838   8.127   4.233   8.779
28866WAT      O86839   6.512   3.762   5.192
28866WAT     H186840   6.520   3.737   5.288
28866WAT     H286841   6.554   3.692   5.134
28867WAT      O86842   4.080   3.499   2.384
28867WAT     H186843   4.140   3.458   2.315
28867WAT     H286844   4.011   3.556   2.338
28868WAT      O86845   8.149   8.660   3.182
28868WAT     H186846   8.177   8.756   3.178
28868WAT     H286847   8.141   8.624   3.089
28869WAT      O86848   3.537   3.021   8.673
28869WAT     H186849   3.568   3.009   8.768
28869WAT     H286850   3.569   3.109   8.639
28870WAT      O86851   6.618   4.219   8.543
28870WAT     H186852   6.594   4.208   8.447
28870WAT     H286853   6.683   4.295   8.552
28871WAT      O86854   8.251   3.194   6.573
28871WAT     H186855   8.163   3.243   6.580
28871WAT     H286856   8.326   3.260   6.578
28872WAT      O86857   9.521   0.470   3.562
28872WAT     H186858   9.545   0.495   3.656
28872WAT     H286859   9.428   0.431   3.561
28873WAT      O86860   0.879   3.594   0.567
28873WAT     H186861   0.819   3.566   0.642
28873WAT     H286862   0.972   3.562   0.585
28874WAT      O86863   9.553   6.936   1.084
28874WAT     H186864   9.607   6.984   1.014
28874WAT     H286865   9.608   6.924   1.166
28875WAT      O86866   2.938   8.901   4.413
28875WAT     H186867   3.033   8.869   4.407
28875WAT     H286868   2.883   8.832   4.461
28876WAT      O86869   6.728   2.079   9.146
28876WAT     H186870   6.752   2.022   9.226
28876WAT     H286871   6.656   2.034   9.094
28877WAT      O86872   9.240   9.022   5.261
28877WAT     H186873   9.155   9.045   5.214
28877WAT     H286874   9.284   8.946   5.214
28878WAT      O86875   7.083   9.555   3.016
28878WAT     H186876   6.996   9.575   2.972
28878WAT     H286877   7.122   9.472   2.976
28879WAT      O86878   3.034   2.071   3.880
28879WAT     H186879   3.112   2.110   3.832
28879WAT     H286880   2.953   2.074   3.821
28880WAT      O86881   1.718   8.862   3.235
28880WAT     H186882   1.755   8.814   3.315
28880WAT     H286883   1.673   8.797   3.174
28881WAT      O86884   9.242   3.576   9.155
28881WAT     H186885   9.180   3.505   9.123
28881WAT     H286886   9.329   3.535   9.183
28882WAT      O86887   1.349   9.510   8.462
28882WAT     H186888   1.322   9.435   8.523
28882WAT     H286889   1.306   9.595   8.493
28883WAT      O86890   7.456   2.562   0.675
28883WAT     H186891   7.440   2.485   0.737
28883WAT     H286892   7.399   2.553   0.594
28884WAT      O86893   6.180   7.307   2.163
28884WAT     H186894   6.116   7.286   2.237
28884WAT     H286895   6.230   7.391   2.185
28885WAT      O86896   2.943   5.483   1.970
28885WAT     H186897   3.041   5.478   1.952
28885WAT     H286898   2.924   5.557   2.035
28886WAT      O86899   6.692   2.207   2.337
28886WAT     H186900   6.739   2.163   2.414
28886WAT     H286901   6.648   2.137   2.281
28887WAT      O86902   8.720   8.827   0.463
28887WAT     H186903   8.799   8.886   0.449
28887WAT     H286904   8.743   8.733   0.437
28888WAT      O86905   7.453   5.335   6.868
28888WAT     H186906   7.425   5.425   6.835
28888WAT     H286907   7.503   5.287   6.795
28889WAT      O86908   6.889   2.001   7.223
28889WAT     H186909   6.815   1.987   7.158
28889WAT     H286910   6.972   1.957   7.188
28890WAT      O86911   1.410   1.003   1.905
28890WAT     H186912   1.443   0.938   1.973
28890WAT     H286913   1.488   1.041   1.855
28891WAT      O86914   6.382   3.684   6.880
28891WAT     H186915   6.313   3.639   6.824
28891WAT     H286916   6.425   3.617   6.941
28892WAT      O86917   7.221   1.699   8.021
28892WAT     H186918   7.235   1.680   7.923
28892WAT     H286919   7.290   1.764   8.052
28893WAT      O86920   6.377   0.357   7.368
28893WAT     H186921   6.450   0.328   7.306
28893WAT     H286922   6.415   0.416   7.439
28894WAT      O86923   6.513   0.182   7.625
28894WAT     H186924   6.611   0.195   7.641
28894WAT     H286925   6.499   0.104   7.564
28895WAT      O86926   6.139   5.656   9.612
28895WAT     H186927   6.228   5.617   9.587
28895WAT     H286928   6.069   5.622   9.550
28896WAT      O86929   6.505   4.692   8.939
28896WAT     H186930   6.463   4.651   9.021
28896WAT     H286931   6.600   4.714   8.958
28897WAT      O86932   7.717   3.365   1.147
28897WAT     H186933   7.748   3.281   1.192
28897WAT     H286934   7.630   3.347   1.101
28898WAT      O86935   4.134   5.780   5.559
28898WAT     H186936   4.119   5.875   5.529
28898WAT     H286937   4.050   5.727   5.544
28899WAT      O86938   0.817   1.236   2.081
28899WAT     H186939   0.913   1.264   2.088
28899WAT     H286940   0.802   1.192   1.992
28900WAT      O86941   3.312   8.958   3.906
28900WAT     H186942   3.335   8.873   3.954
28900WAT     H286943   3.384   9.025   3.923
28901WAT      O86944   8.554   9.697   9.784
28901WAT     H186945   8.613   9.716   9.706
28901WAT     H286946   8.462   9.732   9.766
28902WAT      O86947   6.403   1.507   3.615
28902WAT     H186948   6.304   1.500   3.608
28902WAT     H286949   6.431   1.602   3.601
28903WAT      O86950   4.631   8.672   9.024
28903WAT     H186951   4.660   8.684   9.119
28903WAT     H286952   4.693   8.608   8.978
28904WAT      O86953   1.480   8.788   2.120
28904WAT     H186954   1.399   8.757   2.069
28904WAT     H286955   1.475   8.887   2.134
28905WAT      O86956   4.355   9.101   3.178
28905WAT     H186957   4.285   9.172   3.184
28905WAT     H286958   4.429   9.131   3.118
28906WAT      O86959   4.168   2.296   9.843
28906WAT     H186960   4.074   2.311   9.872
28906WAT     H286961   4.222   2.261   9.920
28907WAT      O86962   9.517   8.085   6.754
28907WAT     H186963   9.607   8.066   6.793
28907WAT     H286964   9.503   8.029   6.672
28908WAT      O86965   9.524   3.341   1.338
28908WAT     H186966   9.437   3.324   1.292
28908WAT     H286967   9.581   3.400   1.280
28909WAT      O86968   6.511   9.467   4.035
28909WAT     H186969   6.439   9.398   4.038
28909WAT     H286970   6.471   9.556   4.015
28910WAT      O86971   5.532   0.005   9.227
28910WAT     H186972   5.507  -0.067   9.162
28910WAT     H286973   5.615   0.051   9.195
28911WAT      O86974   4.564   8.661   3.737
28911WAT     H186975   4.573   8.737   3.673
28911WAT     H286976   4.578   8.575   3.689
28912WAT      O86977   9.138   8.682   4.498
28912WAT     H186978   9.228   8.689   4.539
28912WAT     H286979   9.117   8.587   4.477
28913WAT      O86980   8.466   0.820   5.902
28913WAT     H186981   8.402   0.798   5.976
28913WAT     H286982   8.555   0.844   5.941
28914WAT      O86983   6.263   0.382   8.886
28914WAT     H186984   6.343   0.441   8.897
28914WAT     H286985   6.225   0.360   8.975
28915WAT      O86986   3.777   7.990   8.888
28915WAT     H186987   3.798   8.087   8.895
28915WAT     H286988   3.818   7.952   8.805
28916WAT      O86989   0.132   0.548   2.082
28916WAT     H186990   0.161   0.509   2.169
28916WAT     H286991   0.208   0.545   2.017
28917WAT      O86992   4.568   6.251   3.987
28917WAT     H186993   4.482   6.232   3.939
28917WAT     H286994   4.582   6.183   4.059
28918WAT      O86995   0.309   0.203   4.092
28918WAT     H186996   0.360   0.123   4.122
28918WAT     H286997   0.359   0.286   4.119
28919WAT      O86998   9.843   4.261   3.596
28919WAT     H186999   9.850   4.325   3.519
28919WAT     H287000   9.870   4.170   3.566
28920WAT      O87001   8.132   6.606   9.824
28920WAT     H187002   8.038   6.627   9.799
28920WAT     H287003   8.133   6.527   9.886
28921WAT      O87004   4.324   9.160   4.227
28921WAT     H187005   4.265   9.212   4.165
28921WAT     H287006   4.282   9.070   4.245
28922WAT      O87007   8.437   8.026   7.616
28922WAT     H187008   8.382   8.011   7.534
28922WAT     H287009   8.410   7.961   7.687
28923WAT      O87010   0.074   5.764   9.784
28923WAT     H187011  -0.008   5.724   9.743
28923WAT     H287012   0.073   5.863   9.771
28924WAT      O87013   5.237   5.142   2.130
28924WAT     H187014   5.259   5.056   2.177
28924WAT     H287015   5.150   5.178   2.164
28925WAT      O87016   8.662   8.989   9.863
28925WAT     H187017   8.710   8.901   9.870
28925WAT     H287018   8.593   8.983   9.790
28926WAT      O87019   5.419   2.914   5.036
28926WAT     H187020   5.333   2.940   4.992
28926WAT     H287021   5.400   2.863   5.120
28927WAT      O87022   5.925   9.359   0.307
28927WAT     H187023   5.833   9.378   0.342
28927WAT     H287024   5.918   9.295   0.230
28928WAT      O87025   3.238   3.288   1.570
28928WAT     H187026   3.157   3.310   1.517
28928WAT     H287027   3.218   3.212   1.632
28929WAT      O87028   0.496   5.575   5.768
28929WAT     H187029   0.541   5.577   5.678
28929WAT     H287030   0.558   5.612   5.837
28930WAT      O87031   4.966   2.182   6.647
28930WAT     H187032   4.953   2.083   6.655
28930WAT     H287033   4.883   2.223   6.610
28931WAT      O87034   8.298   6.157   3.112
28931WAT     H187035   8.396   6.140   3.101
28931WAT     H287036   8.279   6.255   3.100
28932WAT      O87037   6.693   8.817   2.887
28932WAT     H187038   6.647   8.761   2.818
28932WAT     H287039   6.787   8.785   2.897
28933WAT      O87040   3.609   2.648   8.504
28933WAT     H187041   3.644   2.739   8.479
28933WAT     H287042   3.671   2.578   8.469
28934WAT      O87043   0.965   3.953   5.551
28934WAT     H187044   1.047   4.010   5.554
28934WAT     H287045   0.991   3.857   5.543
28935WAT      O87046   4.226   9.827   0.630
28935WAT     H187047   4.202   9.922   0.646
28935WAT     H287048   4.159   9.785   0.569
28936WAT      O87049   4.629   0.546   3.143
28936WAT     H187050   4.614   0.488   3.223
28936WAT     H287051   4.546   0.550   3.088
28937WAT      O87052   6.261   5.703   9.217
28937WAT     H187053   6.342   5.716   9.274
28937WAT     H287054   6.289   5.676   9.125
28938WAT      O87055   0.790   1.335   8.090
28938WAT     H187056   0.846   1.260   8.055
28938WAT     H287057   0.702   1.336   8.044
28939WAT      O87058   8.358   0.758   6.720
28939WAT     H187059   8.370   0.680   6.781
28939WAT     H287060   8.447   0.797   6.698
28940WAT      O87061   2.443   5.823   9.644
28940WAT     H187062   2.509   5.826   9.568
28940WAT     H287063   2.482   5.868   9.724
28941WAT      O87064   0.793   1.278   3.763
28941WAT     H187065   0.770   1.375   3.773
28941WAT     H287066   0.893   1.267   3.768
28942WAT      O87067   3.820   4.405   8.852
28942WAT     H187068   3.909   4.445   8.874
28942WAT     H287069   3.820   4.308   8.876
28943WAT      O87070   4.937   1.115   4.398
28943WAT     H187071   4.865   1.158   4.344
28943WAT     H287072   5.000   1.066   4.338
28944WAT      O87073   0.476   1.466   3.326
28944WAT     H187074   0.444   1.559   3.307
28944WAT     H287075   0.534   1.467   3.407
28945WAT      O87076   0.800   2.673   6.610
28945WAT     H187077   0.780   2.719   6.697
28945WAT     H287078   0.897   2.649   6.606
28946WAT      O87079   5.384   6.777   9.859
28946WAT     H187080   5.296   6.820   9.876
28946WAT     H287081   5.397   6.703   9.925
28947WAT      O87082   6.065   7.962   2.599
28947WAT     H187083   6.135   7.895   2.575
28947WAT     H287084   6.026   7.938   2.688
28948WAT      O87085   1.468   1.961   3.094
28948WAT     H187086   1.475   2.037   3.029
28948WAT     H287087   1.452   1.996   3.186
28949WAT      O87088   4.098   6.861   8.983
28949WAT     H187089   4.139   6.889   8.896
28949WAT     H287090   4.022   6.798   8.965
28950WAT      O87091   0.672   1.321   9.663
28950WAT     H187092   0.663   1.336   9.565
28950WAT     H287093   0.659   1.224   9.684
28951WAT      O87094   5.893   0.272   2.610
28951WAT     H187095   5.985   0.284   2.645
28951WAT     H287096   5.875   0.342   2.540
28952WAT      O87097   1.312   1.053   3.993
28952WAT     H187098   1.311   1.027   3.897
28952WAT     H287099   1.219   1.067   4.025
28953WAT      O87100   4.965   6.610   4.003
28953WAT     H187101   5.014   6.678   4.057
28953WAT     H287102   4.996   6.518   4.029
28954WAT      O87103   7.822   8.190   2.944
28954WAT     H187104   7.739   8.201   2.889
28954WAT     H287105   7.899   8.231   2.896
28955WAT      O87106   6.670   2.564   4.860
28955WAT     H187107   6.759   2.523   4.881
28955WAT     H287108   6.649   2.636   4.927
28956WAT      O87109   7.003   7.430   1.090
28956WAT     H187110   7.036   7.458   1.000
28956WAT     H287111   7.041   7.341   1.114
28957WAT      O87112   4.042   6.265   9.852
28957WAT     H187113   3.960   6.242   9.800
28957WAT     H287114   4.089   6.180   9.879
28958WAT      O87115   5.174   3.696   4.139
28958WAT     H187116   5.220   3.761   4.079
28958WAT     H287117   5.135   3.622   4.084
28959WAT      O87118   4.118   9.220   2.658
28959WAT     H187119   4.110   9.223   2.558
28959WAT     H287120   4.204   9.177   2.684
28960WAT      O87121   2.046   0.050   5.855
28960WAT     H187122   1.985  -0.029   5.862
28960WAT     H287123   2.097   0.046   5.770
28961WAT      O87124   7.937   8.664   1.715
28961WAT     H187125   8.018   8.703   1.670
28961WAT     H287126   7.959   8.574   1.753
28962WAT      O87127   6.362   0.724   7.382
28962WAT     H187128   6.425   0.665   7.432
28962WAT     H287129   6.300   0.668   7.328
28963WAT      O87130   9.528   9.478   2.009
28963WAT     H187131   9.429   9.460   2.009
28963WAT     H287132   9.561   9.480   2.103
28964WAT      O87133   9.226   6.674   8.165
28964WAT     H187134   9.261   6.702   8.076
28964WAT     H287135   9.127   6.662   8.160
28965WAT      O87136   1.108   8.541   4.222
28965WAT     H187137   1.172   8.560   4.147
28965WAT     H287138   1.138   8.460   4.272
28966WAT      O87139   9.765   9.406   6.599
28966WAT     H187140   9.724   9.497   6.594
28966WAT     H287141   9.698   9.341   6.634
28967WAT      O87142   2.618   0.198   7.912
28967WAT     H187143   2.596   0.181   7.816
28967WAT     H287144   2.659   0.289   7.921
28968WAT      O87145   0.616   2.984   4.427
28968WAT     H187146   0.716   2.987   4.428
28968WAT     H287147   0.585   2.929   4.349
28969WAT      O87148   9.264   2.710   3.565
28969WAT     H187149   9.231   2.616   3.559
28969WAT     H287150   9.360   2.710   3.592
28970WAT      O87151   7.036   5.936   8.357
28970WAT     H187152   7.030   5.888   8.444
28970WAT     H287153   7.019   5.871   8.282
28971WAT      O87154   3.945   9.793   7.780
28971WAT     H187155   3.880   9.832   7.715
28971WAT     H287156   3.991   9.715   7.739
28972WAT      O87157   4.101   5.472   4.589
28972WAT     H187158   4.048   5.556   4.575
28972WAT     H287159   4.071   5.428   4.673
28973WAT      O87160   7.338   9.498   4.670
28973WAT     H187161   7.329   9.409   4.626
28973WAT     H287162   7.419   9.545   4.635
28974WAT      O87163   8.855   3.636   3.574
28974WAT     H187164   8.861   3.715   3.634
28974WAT     H287165   8.811   3.560   3.623
28975WAT      O87166   9.800   5.537   6.798
28975WAT     H187167   9.782   5.619   6.744
28975WAT     H287168   9.721   5.477   6.794
28976WAT      O87169   7.094   8.342   8.805
28976WAT     H187170   7.108   8.439   8.823
28976WAT     H287171   7.110   8.289   8.889
28977WAT      O87172   0.462   9.632   5.114
28977WAT     H187173   0.487   9.535   5.119
28977WAT     H287174   0.545   9.688   5.121
28978WAT      O87175   3.577   8.121   9.517
28978WAT     H187176   3.669   8.082   9.517
28978WAT     H287177   3.568   8.183   9.439
28979WAT      O87178   6.093   7.394   4.335
28979WAT     H187179   6.187   7.428   4.326
28979WAT     H287180   6.055   7.423   4.423
28980WAT      O87181   3.451   3.741   3.872
28980WAT     H187182   3.401   3.756   3.958
28980WAT     H287183   3.542   3.782   3.880
28981WAT      O87184   6.726   1.250   7.017
28981WAT     H187185   6.799   1.241   6.949
28981WAT     H287186   6.746   1.327   7.077
28982WAT      O87187   5.225   4.888   8.756
28982WAT     H187188   5.179   4.857   8.673
28982WAT     H287189   5.197   4.982   8.777
28983WAT      O87190   3.583   3.548   9.363
28983WAT     H187191   3.649   3.617   9.393
28983WAT     H287192   3.617   3.503   9.280
28984WAT      O87193   6.067   7.309   3.252
28984WAT     H187194   6.166   7.311   3.237
28984WAT     H287195   6.048   7.322   3.350
28985WAT      O87196   8.781   2.380   5.703
28985WAT     H187197   8.751   2.359   5.796
28985WAT     H287198   8.718   2.339   5.638
28986WAT      O87199   4.793   0.558   8.719
28986WAT     H187200   4.837   0.569   8.630
28986WAT     H287201   4.730   0.480   8.717
28987WAT      O87202   6.121   4.398   1.245
28987WAT     H187203   6.145   4.381   1.149
28987WAT     H287204   6.090   4.492   1.256
28988WAT      O87205   7.923   6.798   4.073
28988WAT     H187206   7.938   6.840   4.162
28988WAT     H287207   7.965   6.707   4.071
28989WAT      O87208   6.407   1.173   0.615
28989WAT     H187209   6.419   1.074   0.609
28989WAT     H287210   6.479   1.219   0.565
28990WAT      O87211   3.727   8.546   2.476
28990WAT     H187212   3.770   8.634   2.496
28990WAT     H287213   3.751   8.517   2.383
28991WAT      O87214   5.786   0.798   3.039
28991WAT     H187215   5.818   0.877   3.092
28991WAT     H287216   5.860   0.733   3.027
28992WAT      O87217   0.427   2.496   0.044
28992WAT     H187218   0.375   2.412   0.030
28992WAT     H287219   0.411   2.530   0.136
28993WAT      O87220   7.383   3.577   0.867
28993WAT     H187221   7.390   3.654   0.929
28993WAT     H287222   7.297   3.528   0.883
28994WAT      O87223   1.087   1.290   3.734
28994WAT     H187224   1.154   1.236   3.683
28994WAT     H287225   1.045   1.358   3.673
28995WAT      O87226   0.792   5.721   5.246
28995WAT     H187227   0.819   5.627   5.269
28995WAT     H287228   0.815   5.781   5.323
28996WAT      O87229   5.268   2.702   5.588
28996WAT     H187230   5.276   2.642   5.508
28996WAT     H287231   5.241   2.794   5.557
28997WAT      O87232   0.898   4.848   6.350
28997WAT     H187233   0.963   4.776   6.327
28997WAT     H287234   0.818   4.841   6.290
28998WAT      O87235   6.464   0.610   9.387
28998WAT     H187236   6.379   0.647   9.350
28998WAT     H287237   6.542   0.661   9.349
28999WAT      O87238   8.881   2.062   6.429
28999WAT     H187239   8.903   1.998   6.356
28999WAT     H287240   8.966   2.088   6.477
29000WAT      O87241   2.547   7.564   3.911
29000WAT     H187242   2.565   7.617   3.828
29000WAT     H287243   2.454   7.583   3.943
29001WAT      O87244   6.473   3.467   4.163
29001WAT     H187245   6.382   3.449   4.126
29001WAT     H287246   6.540   3.407   4.118
29002WAT      O87247   0.360   4.260   8.673
29002WAT     H187248   0.437   4.318   8.698
29002WAT     H287249   0.381   4.165   8.697
29003WAT      O87250   9.719   3.536   5.608
29003WAT     H187251   9.711   3.569   5.515
29003WAT     H287252   9.718   3.436   5.608
29004WAT      O87253   9.230   1.609   3.656
29004WAT     H187254   9.292   1.663   3.713
29004WAT     H287255   9.168   1.671   3.607
29005WAT      O87256   3.200   9.805   1.074
29005WAT     H187257   3.247   9.892   1.063
29005WAT     H287258   3.267   9.732   1.087
29006WAT      O87259   2.751   1.398   8.796
29006WAT     H187260   2.730   1.317   8.851
29006WAT     H287261   2.737   1.480   8.852
29007WAT      O87262   4.381   5.109   0.571
29007WAT     H187263   4.283   5.131   0.570
29007WAT     H287264   4.428   5.172   0.632
29008WAT      O87265   3.864   3.850   2.771
29008WAT     H187266   3.834   3.895   2.855
29008WAT     H287267   3.916   3.915   2.715
29009WAT      O87268   0.539   0.106   9.365
29009WAT     H187269   0.616   0.167   9.387
29009WAT     H287270   0.553   0.017   9.408
29010WAT      O87271   8.120   6.218   5.618
29010WAT     H187272   8.022   6.241   5.619
29010WAT     H287273   8.142   6.164   5.699
29011WAT      O87274   9.346   3.304   5.588
29011WAT     H187275   9.290   3.257   5.521
29011WAT     H287276   9.288   3.356   5.651
29012WAT      O87277   5.974   5.688   7.288
29012WAT     H187278   5.914   5.608   7.295
29012WAT     H287279   5.919   5.771   7.291
29013WAT      O87280   3.650   7.084   3.834
29013WAT     H187281   3.720   7.133   3.886
29013WAT     H287282   3.570   7.142   3.822
29014WAT      O87283   0.301   4.386   8.023
29014WAT     H187284   0.279   4.479   8.052
29014WAT     H287285   0.360   4.388   7.943
29015WAT      O87286   5.284   0.145   6.029
29015WAT     H187287   5.300   0.098   6.115
29015WAT     H287288   5.231   0.228   6.046
29016WAT      O87289   9.149   1.036   9.107
29016WAT     H187290   9.193   1.095   9.175
29016WAT     H287291   9.054   1.064   9.096
29017WAT      O87292   5.239   3.649   6.660
29017WAT     H187293   5.266   3.574   6.600
29017WAT     H287294   5.139   3.656   6.662
29018WAT      O87295   0.104   6.253   1.535
29018WAT     H187296   0.169   6.237   1.462
29018WAT     H287297   0.054   6.168   1.554
29019WAT      O87298   7.448   2.932   2.703
29019WAT     H187299   7.459   2.852   2.644
29019WAT     H287300   7.402   2.906   2.788
29020WAT      O87301   1.089   1.952   8.230
29020WAT     H187302   1.108   2.050   8.237
29020WAT     H287303   1.061   1.918   8.320
29021WAT      O87304   2.114   5.031   0.508
29021WAT     H187305   2.024   5.066   0.481
29021WAT     H287306   2.167   5.009   0.426
29022WAT      O87307   2.125   2.103   4.033
29022WAT     H187308   2.125   2.005   4.055
29022WAT     H287309   2.032   2.133   4.014
29023WAT      O87310   3.148   3.649   1.418
29023WAT     H187311   3.071   3.612   1.366
29023WAT     H287312   3.232   3.601   1.392
29024WAT      O87313   0.837   6.824   4.247
29024WAT     H187314   0.919   6.846   4.193
29024WAT     H287315   0.864   6.786   4.335
29025WAT      O87316   6.733   5.867   9.853
29025WAT     H187317   6.637   5.841   9.863
29025WAT     H287318   6.789   5.785   9.842
29026WAT      O87319   4.667   7.758   7.981
29026WAT     H187320   4.580   7.708   7.978
29026WAT     H287321   4.713   7.750   7.892
29027WAT      O87322   3.989   7.686   3.795
29027WAT     H187323   4.040   7.607   3.761
29027WAT     H287324   3.892   7.672   3.777
29028WAT      O87325   8.156   8.352   0.394
29028WAT     H187326   8.074   8.392   0.435
29028WAT     H287327   8.159   8.377   0.297
29029WAT      O87328   4.499   4.718   3.829
29029WAT     H187329   4.475   4.802   3.877
29029WAT     H287330   4.441   4.708   3.749
29030WAT      O87331   1.836   9.424   0.980
29030WAT     H187332   1.772   9.500   0.992
29030WAT     H287333   1.850   9.378   1.067
29031WAT      O87334   8.242   7.333   1.244
29031WAT     H187335   8.254   7.234   1.237
29031WAT     H287336   8.176   7.355   1.316
29032WAT      O87337   3.483   2.845   6.181
29032WAT     H187338   3.435   2.850   6.268
29032WAT     H287339   3.542   2.926   6.170
29033WAT      O87340   7.867   9.315   2.080
29033WAT     H187341   7.785   9.284   2.129
29033WAT     H287342   7.916   9.237   2.043
29034WAT      O87343   6.800   1.976   5.572
29034WAT     H187344   6.836   1.949   5.661
29034WAT     H287345   6.790   2.075   5.569
29035WAT      O87346   0.989   0.923   0.267
29035WAT     H187347   1.068   0.865   0.246
29035WAT     H287348   1.014   0.989   0.337
29036WAT      O87349   3.123   4.785   2.978
29036WAT     H187350   3.026   4.771   2.997
29036WAT     H287351   3.133   4.847   2.899
29037WAT      O87352   2.956   7.085   6.255
29037WAT     H187353   3.018   7.042   6.321
29037WAT     H287354   3.001   7.165   6.214
29038WAT      O87355   6.378   3.106   2.916
29038WAT     H187356   6.336   3.092   2.826
29038WAT     H287357   6.306   3.122   2.984
29039WAT      O87358   4.021   7.002   9.694
29039WAT     H187359   3.941   7.059   9.674
29039WAT     H287360   3.992   6.907   9.706
29040WAT      O87361   3.228   9.259   3.733
29040WAT     H187362   3.217   9.288   3.828
29040WAT     H287363   3.326   9.255   3.711
29041WAT      O87364   9.818   0.300   1.472
29041WAT     H187365   9.897   0.361   1.462
29041WAT     H287366   9.849   0.205   1.473
29042WAT      O87367   5.580   4.141   9.891
29042WAT     H187368   5.551   4.116   9.799
29042WAT     H287369   5.679   4.156   9.892
29043WAT      O87370   3.661   0.618   3.245
29043WAT     H187371   3.670   0.609   3.146
29043WAT     H287372   3.693   0.709   3.273
29044WAT      O87373   7.907   4.015   2.348
29044WAT     H187374   7.813   4.046   2.359
29044WAT     H287375   7.940   3.975   2.433
29045WAT      O87376   8.763   1.265   8.863
29045WAT     H187377   8.831   1.252   8.791
29045WAT     H287378   8.808   1.273   8.952
29046WAT      O87379   2.160   8.493   5.920
29046WAT     H187380   2.106   8.444   5.988
29046WAT     H287381   2.258   8.479   5.939
29047WAT      O87382   3.822   5.364   0.711
29047WAT     H187383   3.824   5.273   0.754
29047WAT     H287384   3.838   5.434   0.781
29048WAT      O87385   3.892   5.898   8.265
29048WAT     H187386   3.877   5.919   8.362
29048WAT     H287387   3.962   5.827   8.257
29049WAT      O87388   9.887   0.675   5.505
29049WAT     H187389   9.788   0.667   5.509
29049WAT     H287390   9.913   0.731   5.426
29050WAT      O87391   0.988   2.405   6.843
29050WAT     H187392   0.929   2.458   6.905
29050WAT     H287393   1.019   2.322   6.890
29051WAT      O87394   7.875   2.218   6.327
29051WAT     H187395   7.936   2.290   6.294
29051WAT     H287396   7.850   2.235   6.422
29052WAT      O87397   9.201   1.225   7.729
29052WAT     H187398   9.239   1.184   7.646
29052WAT     H287399   9.228   1.170   7.808
29053WAT      O87400   3.233   6.960   6.822
29053WAT     H187401   3.246   6.862   6.836
29053WAT     H287402   3.144   6.977   6.780
29054WAT      O87403   6.837   9.749   9.834
29054WAT     H187404   6.883   9.815   9.774
29054WAT     H287405   6.747   9.785   9.860
29055WAT      O87406   3.758   4.291   4.928
29055WAT     H187407   3.685   4.358   4.910
29055WAT     H287408   3.846   4.329   4.900
29056WAT      O87409   7.977   8.262   7.936
29056WAT     H187410   7.985   8.337   8.002
29056WAT     H287411   7.980   8.175   7.985
29057WAT      O87412   9.494   5.774   6.551
29057WAT     H187413   9.400   5.780   6.516
29057WAT     H287414   9.498   5.707   6.624
29058WAT      O87415   4.269   1.681   2.912
29058WAT     H187416   4.216   1.602   2.944
29058WAT     H287417   4.255   1.692   2.813
29059WAT      O87418   5.617   2.804   2.509
29059WAT     H187419   5.561   2.777   2.430
29059WAT     H287420   5.598   2.743   2.586
29060WAT      O87421   9.069   5.214   1.427
29060WAT     H187422   9.077   5.255   1.336
29060WAT     H287423   8.993   5.257   1.476
29061WAT      O87424   1.690   9.258   4.377
29061WAT     H187425   1.657   9.255   4.283
29061WAT     H287426   1.781   9.217   4.381
29062WAT      O87427   8.025   5.095   6.541
29062WAT     H187428   8.052   5.043   6.460
29062WAT     H287429   8.009   5.190   6.516
29063WAT      O87430   3.515   0.184   2.983
29063WAT     H187431   3.514   0.132   3.068
29063WAT     H287432   3.489   0.124   2.907
29064WAT      O87433   9.288   7.866   5.974
29064WAT     H187434   9.235   7.895   6.053
29064WAT     H287435   9.312   7.769   5.983
29065WAT      O87436   8.457   5.701   6.565
29065WAT     H187437   8.500   5.705   6.475
29065WAT     H287438   8.403   5.618   6.574
29066WAT      O87439   9.383   3.622   0.375
29066WAT     H187440   9.457   3.595   0.436
29066WAT     H287441   9.359   3.544   0.316
29067WAT      O87442   4.595   5.309   2.529
29067WAT     H187443   4.605   5.395   2.578
29067WAT     H287444   4.603   5.232   2.593
29068WAT      O87445   7.341   8.567   3.799
29068WAT     H187446   7.373   8.657   3.769
29068WAT     H287447   7.384   8.543   3.886
29069WAT      O87448   1.589   4.320   5.230
29069WAT     H187449   1.601   4.226   5.262
29069WAT     H287450   1.492   4.341   5.223
29070WAT      O87451   0.632   6.686   5.753
29070WAT     H187452   0.541   6.724   5.737
29070WAT     H287453   0.683   6.746   5.813
29071WAT      O87454   6.777   8.639   0.834
29071WAT     H187455   6.741   8.708   0.898
29071WAT     H287456   6.862   8.602   0.870
29072WAT      O87457   4.086   3.442   3.390
29072WAT     H187458   4.119   3.350   3.411
29072WAT     H287459   3.997   3.435   3.345
29073WAT      O87460   0.591   7.328   5.135
29073WAT     H187461   0.536   7.366   5.060
29073WAT     H287462   0.585   7.390   5.214
29074WAT      O87463   9.499   8.056   8.993
29074WAT     H187464   9.485   8.151   8.965
29074WAT     H287465   9.458   7.995   8.926
29075WAT      O87466   7.542   4.240   5.431
29075WAT     H187467   7.533   4.230   5.332
29075WAT     H287468   7.529   4.336   5.456
29076WAT      O87469   1.054   2.509   5.213
29076WAT     H187470   1.008   2.493   5.300
29076WAT     H287471   1.153   2.515   5.228
29077WAT      O87472   4.194   7.336   7.169
29077WAT     H187473   4.128   7.270   7.132
29077WAT     H287474   4.273   7.287   7.206
29078WAT      O87475   1.944   3.064   8.552
29078WAT     H187476   1.966   2.975   8.514
29078WAT     H287477   2.024   3.102   8.598
29079WAT      O87478   6.424   6.471   8.288
29079WAT     H187479   6.400   6.513   8.200
29079WAT     H287480   6.369   6.390   8.303
29080WAT      O87481   0.845   3.748   9.368
29080WAT     H187482   0.820   3.668   9.422
29080WAT     H287483   0.809   3.738   9.275
29081WAT      O87484   1.252   2.492   6.838
29081WAT     H187485   1.158   2.458   6.829
29081WAT     H287486   1.310   2.420   6.876
29082WAT      O87487   7.140   5.729   4.576
29082WAT     H187488   7.059   5.737   4.519
29082WAT     H287489   7.127   5.784   4.659
29083WAT      O87490   4.781   8.798   9.838
29083WAT     H187491   4.776   8.820   9.741
29083WAT     H287492   4.723   8.718   9.857
29084WAT      O87493   7.289   6.891   4.126
29084WAT     H187494   7.361   6.838   4.081
29084WAT     H287495   7.287   6.983   4.087
29085WAT      O87496   2.698   1.368   9.505
29085WAT     H187497   2.794   1.352   9.483
29085WAT     H287498   2.685   1.463   9.532
29086WAT      O87499   7.352   7.058   3.769
29086WAT     H187500   7.325   7.096   3.857
29086WAT     H287501   7.389   6.966   3.782
29087WAT      O87502   8.803   7.723   1.715
29087WAT     H187503   8.720   7.668   1.707
29087WAT     H287504   8.879   7.663   1.741
29088WAT      O87505   6.026   4.683   6.611
29088WAT     H187506   5.939   4.689   6.561
29088WAT     H287507   6.008   4.671   6.708
29089WAT      O87508   0.075   3.648   0.086
29089WAT     H187509   0.048   3.664  -0.009
29089WAT     H287510   0.169   3.678   0.100
29090WAT      O87511   5.763   1.475   8.270
29090WAT     H187512   5.825   1.457   8.193
29090WAT     H287513   5.679   1.423   8.257
29091WAT      O87514   2.395   6.030   5.505
29091WAT     H187515   2.375   6.010   5.409
29091WAT     H287516   2.386   5.947   5.559
29092WAT      O87517   1.906   1.025   7.643
29092WAT     H187518   1.979   1.035   7.575
29092WAT     H287519   1.928   0.949   7.704
29093WAT      O87520   8.717   7.469   9.256
29093WAT     H187521   8.753   7.492   9.165
29093WAT     H287522   8.773   7.515   9.326
29094WAT      O87523   5.546   6.570   7.992
29094WAT     H187524   5.464   6.622   8.016
29094WAT     H287525   5.534   6.475   8.019
29095WAT      O87526   6.835   9.202   5.253
29095WAT     H187527   6.797   9.116   5.220
29095WAT     H287528   6.858   9.195   5.350
29096WAT      O87529   9.525   6.730   2.068
29096WAT     H187530   9.525   6.709   1.970
29096WAT     H287531   9.464   6.665   2.115
29097WAT      O87532   8.521   9.496   7.450
29097WAT     H187533   8.497   9.592   7.440
29097WAT     H287534   8.596   9.487   7.515
29098WAT      O87535   8.644   1.589   5.708
29098WAT     H187536   8.714   1.604   5.777
29098WAT     H287537   8.644   1.493   5.681
29099WAT      O87538   1.797   3.951   0.244
29099WAT     H187539   1.894   3.966   0.264
29099WAT     H287540   1.745   3.950   0.329
29100WAT      O87541   6.310   4.828   7.942
29100WAT     H187542   6.278   4.746   7.990
29100WAT     H287543   6.331   4.900   8.008
29101WAT      O87544   9.477   4.996   9.097
29101WAT     H187545   9.541   5.072   9.108
29101WAT     H287546   9.522   4.923   9.045
29102WAT      O87547   7.282   2.535   5.558
29102WAT     H187548   7.350   2.469   5.526
29102WAT     H287549   7.320   2.589   5.633
29103WAT      O87550   2.524   8.313   0.147
29103WAT     H187551   2.499   8.220   0.123
29103WAT     H287552   2.459   8.349   0.215
29104WAT      O87553   6.859   3.673   7.735
29104WAT     H187554   6.814   3.761   7.751
29104WAT     H287555   6.796   3.599   7.756
29105WAT      O87556   4.588   7.225   8.313
29105WAT     H187557   4.636   7.271   8.238
29105WAT     H287558   4.634   7.246   8.399
29106WAT      O87559   5.705   7.818   5.188
29106WAT     H187560   5.754   7.831   5.274
29106WAT     H287561   5.607   7.811   5.205
29107WAT      O87562   9.138   3.569   3.740
29107WAT     H187563   9.236   3.571   3.763
29107WAT     H287564   9.125   3.605   3.648
29108WAT      O87565   0.823   6.150   4.568
29108WAT     H187566   0.862   6.105   4.487
29108WAT     H287567   0.893   6.207   4.611
29109WAT      O87568   2.315   2.529   7.720
29109WAT     H187569   2.308   2.522   7.621
29109WAT     H287570   2.412   2.531   7.747
29110WAT      O87571   7.271   8.232   4.375
29110WAT     H187572   7.341   8.298   4.401
29110WAT     H287573   7.200   8.278   4.321
29111WAT      O87574   3.485   6.141   3.617
29111WAT     H187575   3.562   6.185   3.664
29111WAT     H287576   3.450   6.067   3.674
29112WAT      O87577   6.212   3.849   1.438
29112WAT     H187578   6.230   3.842   1.339
29112WAT     H287579   6.180   3.941   1.459
29113WAT      O87580   3.637   6.504   1.896
29113WAT     H187581   3.615   6.462   1.984
29113WAT     H287582   3.713   6.455   1.854
29114WAT      O87583   4.506   9.593   0.154
29114WAT     H187584   4.542   9.683   0.177
29114WAT     H287585   4.560   9.553   0.080
29115WAT      O87586   0.114   8.544   7.002
29115WAT     H187587   0.036   8.505   6.954
29115WAT     H287588   0.082   8.609   7.071
29116WAT      O87589   1.392   1.647   5.351
29116WAT     H187590   1.377   1.740   5.319
29116WAT     H287591   1.449   1.598   5.286
29117WAT      O87592   5.902   8.749   9.439
29117WAT     H187593   5.818   8.712   9.400
29117WAT     H287594   5.913   8.715   9.533
29118WAT      O87595   3.464   9.529   0.816
29118WAT     H187596   3.553   9.516   0.860
29118WAT     H287597   3.435   9.624   0.827
29119WAT      O87598   3.415   2.527   9.780
29119WAT     H187599   3.444   2.615   9.742
29119WAT     H287600   3.431   2.454   9.713
29120WAT      O87601   1.031   9.601   6.574
29120WAT     H187602   0.946   9.566   6.613
29120WAT     H287603   1.100   9.609   6.646
29121WAT      O87604   3.375   2.979   0.054
29121WAT     H187605   3.336   3.068   0.029
29121WAT     H287606   3.468   2.992   0.090
29122WAT      O87607   5.170   1.656   3.738
29122WAT     H187608   5.099   1.688   3.675
29122WAT     H287609   5.177   1.720   3.815
29123WAT      O87610   5.248   0.957   7.488
29123WAT     H187611   5.318   1.016   7.448
29123WAT     H287612   5.162   0.969   7.439
29124WAT      O87613   6.718   5.303   0.141
29124WAT     H187614   6.689   5.319   0.235
29124WAT     H287615   6.813   5.272   0.139
29125WAT      O87616   2.425   1.422   6.294
29125WAT     H187617   2.452   1.441   6.200
29125WAT     H287618   2.488   1.468   6.357
29126WAT      O87619   6.648   2.231   9.502
29126WAT     H187620   6.607   2.140   9.504
29126WAT     H287621   6.606   2.286   9.430
29127WAT      O87622   8.508   7.252   3.943
29127WAT     H187623   8.592   7.294   3.978
29127WAT     H287624   8.492   7.166   3.991
29128WAT      O87625   5.740   3.339   3.246
29128WAT     H187626   5.711   3.247   3.271
29128WAT     H287627   5.814   3.368   3.306
29129WAT      O87628   9.246   7.232   1.901
29129WAT     H187629   9.343   7.253   1.885
29129WAT     H287630   9.240   7.148   1.955
29130WAT      O87631   8.976   2.542   5.031
29130WAT     H187632   8.961   2.453   4.987
29130WAT     H287633   8.891   2.574   5.073
29131WAT      O87634   4.767   3.471   6.909
29131WAT     H187635   4.866   3.467   6.924
29131WAT     H287636   4.722   3.506   6.991
29132WAT      O87637   6.109   2.349   5.344
29132WAT     H187638   6.141   2.371   5.252
29132WAT     H287639   6.038   2.415   5.371
29133WAT      O87640   5.596   8.905   2.478
29133WAT     H187641   5.661   8.878   2.407
29133WAT     H287642   5.567   9.000   2.463
29134WAT      O87643   2.283   8.116   6.574
29134WAT     H187644   2.245   8.164   6.496
29134WAT     H287645   2.369   8.159   6.602
29135WAT      O87646   2.926   7.437   6.338
29135WAT     H187647   2.931   7.512   6.404
29135WAT     H287648   2.902   7.352   6.385
29136WAT      O87649   5.343   3.945   9.347
29136WAT     H187650   5.274   4.005   9.388
29136WAT     H287651   5.400   3.998   9.284
29137WAT      O87652   5.158   0.011   0.786
29137WAT     H187653   5.204  -0.031   0.865
29137WAT     H287654   5.223   0.068   0.736
29138WAT      O87655   3.581   0.229   1.154
29138WAT     H187656   3.483   0.240   1.142
29138WAT     H287657   3.600   0.195   1.246
29139WAT      O87658   7.247   2.365   9.278
29139WAT     H187659   7.293   2.448   9.247
29139WAT     H287660   7.243   2.364   9.378
29140WAT      O87661   9.027   8.013   2.610
29140WAT     H187662   8.934   8.046   2.625
29140WAT     H287663   9.036   7.920   2.644
29141WAT      O87664   8.914   0.330   3.463
29141WAT     H187665   8.831   0.355   3.414
29141WAT     H287666   8.932   0.397   3.535
29142WAT      O87667   5.201   0.238   7.216
29142WAT     H187668   5.290   0.271   7.185
29142WAT     H287669   5.187   0.266   7.311
29143WAT      O87670   3.697   1.989   8.031
29143WAT     H187671   3.692   1.998   7.932
29143WAT     H287672   3.792   1.986   8.060
29144WAT      O87673   7.843   9.222   7.900
29144WAT     H187674   7.800   9.197   7.813
29144WAT     H287675   7.792   9.297   7.942
29145WAT      O87676   2.256   2.504   7.011
29145WAT     H187677   2.282   2.479   6.918
29145WAT     H287678   2.201   2.431   7.052
29146WAT      O87679   9.356   4.676   3.620
29146WAT     H187680   9.340   4.652   3.716
29146WAT     H287681   9.270   4.671   3.569
29147WAT      O87682   8.215   8.910   3.186
29147WAT     H187683   8.266   8.933   3.268
29147WAT     H287684   8.149   8.982   3.166
29148WAT      O87685   8.019   5.772   4.600
29148WAT     H187686   8.081   5.694   4.610
29148WAT     H287687   8.067   5.857   4.624
29149WAT      O87688   6.560   9.254   9.124
29149WAT     H187689   6.540   9.307   9.206
29149WAT     H287690   6.484   9.192   9.105
29150WAT      O87691   8.729   0.849   8.111
29150WAT     H187692   8.758   0.764   8.155
29150WAT     H287693   8.690   0.911   8.180
29151WAT      O87694   6.312   7.414   3.958
29151WAT     H187695   6.333   7.327   4.002
29151WAT     H287696   6.332   7.409   3.861
29152WAT      O87697   2.074   1.390   0.165
29152WAT     H187698   2.086   1.309   0.222
29152WAT     H287699   1.986   1.386   0.119
29153WAT      O87700   9.264   6.024   7.512
29153WAT     H187701   9.181   6.064   7.551
29153WAT     H287702   9.322   5.990   7.586
29154WAT      O87703   5.565   6.435   7.109
29154WAT     H187704   5.506   6.364   7.147
29154WAT     H287705   5.560   6.517   7.166
29155WAT      O87706   7.423   3.494   1.304
29155WAT     H187707   7.329   3.510   1.334
29155WAT     H287708   7.426   3.414   1.243
29156WAT      O87709   2.036   3.845   1.341
29156WAT     H187710   1.979   3.864   1.422
29156WAT     H287711   2.041   3.747   1.326
29157WAT      O87712   4.951   2.991   3.793
29157WAT     H187713   4.876   2.986   3.727
29157WAT     H287714   4.941   3.073   3.849
29158WAT      O87715   6.990   7.479   4.435
29158WAT     H187716   6.959   7.409   4.498
29158WAT     H287717   6.973   7.569   4.474
29159WAT      O87718   1.861   9.062   1.581
29159WAT     H187719   1.926   9.105   1.644
29159WAT     H287720   1.833   8.974   1.617
29160WAT      O87721   3.547   3.807   9.688
29160WAT     H187722   3.634   3.756   9.693
29160WAT     H287723   3.505   3.790   9.599
29161WAT      O87724   1.888   8.532   0.514
29161WAT     H187725   1.947   8.598   0.468
29161WAT     H287726   1.794   8.543   0.481
29162WAT      O87727   7.072   4.632   6.889
29162WAT     H187728   7.082   4.640   6.789
29162WAT     H287729   7.057   4.536   6.913
29163WAT      O87730   5.002   2.225   2.513
29163WAT     H187731   5.060   2.189   2.586
29163WAT     H287732   4.946   2.299   2.549
29164WAT      O87733   7.817   2.905   5.543
29164WAT     H187734   7.834   2.933   5.637
29164WAT     H287735   7.862   2.969   5.481
29165WAT      O87736   3.681   6.932   1.334
29165WAT     H187737   3.659   7.007   1.271
29165WAT     H287738   3.598   6.900   1.378
29166WAT      O87739   9.830   1.033   7.816
29166WAT     H187740   9.816   1.109   7.880
29166WAT     H287741   9.782   0.952   7.849
29167WAT      O87742   1.347   3.024   7.764
29167WAT     H187743   1.317   3.024   7.860
29167WAT     H287744   1.394   3.109   7.744
29168WAT      O87745   8.327   0.768   7.034
29168WAT     H187746   8.368   0.685   6.996
29168WAT     H287747   8.228   0.766   7.020
29169WAT      O87748   1.578   2.366   7.535
29169WAT     H187749   1.612   2.424   7.461
29169WAT     H287750   1.582   2.270   7.507
29170WAT      O87751   8.587   9.102   4.492
29170WAT     H187752   8.624   9.029   4.434
29170WAT     H287753   8.621   9.091   4.586
29171WAT      O87754   9.743   3.352   6.905
29171WAT     H187755   9.705   3.261   6.918
29171WAT     H287756   9.775   3.363   6.811
29172WAT      O87757   0.697   8.935   0.249
29172WAT     H187758   0.754   8.906   0.326
29172WAT     H287759   0.605   8.956   0.282
29173WAT      O87760   2.981   2.143   0.997
29173WAT     H187761   2.942   2.194   1.074
29173WAT     H287762   2.908   2.097   0.947
29174WAT      O87763   0.823   8.042   4.188
29174WAT     H187764   0.890   8.115   4.185
29174WAT     H287765   0.843   7.981   4.264
29175WAT      O87766   7.859   9.461   5.301
29175WAT     H187767   7.816   9.462   5.211
29175WAT     H287768   7.799   9.508   5.367
29176WAT      O87769   3.367   1.417   5.822
29176WAT     H187770   3.383   1.511   5.852
29176WAT     H287771   3.445   1.385   5.768
29177WAT      O87772   1.693   3.048   2.265
29177WAT     H187773   1.729   3.130   2.222
29177WAT     H287774   1.593   3.048   2.258
29178WAT      O87775   2.729   2.618   4.835
29178WAT     H187776   2.821   2.657   4.846
29178WAT     H287777   2.668   2.657   4.903
29179WAT      O87778   7.860   7.808   4.569
29179WAT     H187779   7.825   7.789   4.477
29179WAT     H287780   7.824   7.895   4.602
29180WAT      O87781   1.660   7.583   2.890
29180WAT     H187782   1.720   7.518   2.843
29180WAT     H287783   1.677   7.675   2.855
29181WAT      O87784   8.923   1.477   8.315
29181WAT     H187785   8.939   1.457   8.218
29181WAT     H287786   9.006   1.458   8.368
29182WAT      O87787   3.272   4.790   3.498
29182WAT     H187788   3.280   4.857   3.571
29182WAT     H287789   3.189   4.807   3.446
29183WAT      O87790   1.360   3.519   9.022
29183WAT     H187791   1.424   3.457   9.067
29183WAT     H287792   1.366   3.610   9.064
29184WAT      O87793   3.227   4.538   3.085
29184WAT     H187794   3.205   4.614   3.025
29184WAT     H287795   3.202   4.452   3.041
29185WAT      O87796   6.677   4.804   1.097
29185WAT     H187797   6.692   4.830   1.192
29185WAT     H287798   6.634   4.880   1.048
29186WAT      O87799   2.506   0.993   0.536
29186WAT     H187800   2.423   1.016   0.588
29186WAT     H287801   2.584   0.993   0.598
29187WAT      O87802   0.239   4.046   5.384
29187WAT     H187803   0.162   3.986   5.407
29187WAT     H287804   0.206   4.125   5.333
29188WAT      O87805   5.772   0.253   6.641
29188WAT     H187806   5.673   0.260   6.649
29188WAT     H287807   5.797   0.229   6.547
29189WAT      O87808   2.065   3.732   2.796
29189WAT     H187809   2.083   3.806   2.730
29189WAT     H287810   2.152   3.693   2.826
29190WAT      O87811   0.127   2.009   4.569
29190WAT     H187812   0.042   1.984   4.522
29190WAT     H287813   0.111   2.086   4.630
29191WAT      O87814   1.952   2.734   2.273
29191WAT     H187815   1.897   2.784   2.206
29191WAT     H287816   1.893   2.669   2.323
29192WAT      O87817   2.826   1.539   1.820
29192WAT     H187818   2.801   1.569   1.913
29192WAT     H287819   2.818   1.440   1.814
29193WAT      O87820   8.458   2.354   0.972
29193WAT     H187821   8.556   2.367   0.960
29193WAT     H287822   8.428   2.401   1.054
29194WAT      O87823   0.988   1.866   3.032
29194WAT     H187824   0.912   1.874   2.968
29194WAT     H287825   1.073   1.894   2.987
29195WAT      O87826   2.057   0.523   8.386
29195WAT     H187827   2.026   0.508   8.480
29195WAT     H287828   2.090   0.617   8.377
29196WAT      O87829   4.711   4.605   7.830
29196WAT     H187830   4.781   4.654   7.882
29196WAT     H287831   4.651   4.556   7.893
29197WAT      O87832   2.578   5.612   1.213
29197WAT     H187833   2.524   5.691   1.184
29197WAT     H287834   2.536   5.528   1.177
29198WAT      O87835   5.923   7.087   3.167
29198WAT     H187836   5.828   7.064   3.188
29198WAT     H287837   5.940   7.183   3.190
29199WAT      O87838   3.063   3.643   9.674
29199WAT     H187839   3.142   3.687   9.632
29199WAT     H287840   3.019   3.706   9.738
29200WAT      O87841   5.820   8.359   4.697
29200WAT     H187842   5.774   8.348   4.609
29200WAT     H287843   5.845   8.455   4.710
29201WAT      O87844   1.106   9.810   8.985
29201WAT     H187845   1.091   9.830   9.081
29201WAT     H287846   1.143   9.717   8.975
29202WAT      O87847   2.187   1.176   8.516
29202WAT     H187848   2.237   1.261   8.530
29202WAT     H287849   2.246   1.099   8.542
29203WAT      O87850   3.859   1.343   4.971
29203WAT     H187851   3.822   1.413   4.910
29203WAT     H287852   3.908   1.387   5.046
29204WAT      O87853   2.752   9.826   6.564
29204WAT     H187854   2.702   9.744   6.536
29204WAT     H287855   2.767   9.885   6.485
29205WAT      O87856   7.837   1.114   6.882
29205WAT     H187857   7.752   1.138   6.929
29205WAT     H287858   7.912   1.113   6.948
29206WAT      O87859   5.195   7.306   9.360
29206WAT     H187860   5.292   7.329   9.372
29206WAT     H287861   5.177   7.218   9.403
29207WAT      O87862   1.814   3.095   4.367
29207WAT     H187863   1.840   3.169   4.430
29207WAT     H287864   1.801   3.011   4.418
29208WAT      O87865   2.992   4.520   4.158
29208WAT     H187866   3.016   4.550   4.065
29208WAT     H287867   2.901   4.480   4.157
29209WAT      O87868   5.530   4.582   9.515
29209WAT     H187869   5.474   4.521   9.570
29209WAT     H287870   5.612   4.607   9.566
29210WAT      O87871   1.719   3.064   0.158
29210WAT     H187872   1.743   3.035   0.065
29210WAT     H287873   1.619   3.060   0.169
29211WAT      O87874   6.341   7.967   8.696
29211WAT     H187875   6.371   8.032   8.627
29211WAT     H287876   6.261   8.004   8.744
29212WAT      O87877   8.045   6.073   3.587
29212WAT     H187878   8.009   6.109   3.501
29212WAT     H287879   7.970   6.043   3.645
29213WAT      O87880   4.188   1.760   6.792
29213WAT     H187881   4.137   1.843   6.769
29213WAT     H287882   4.125   1.690   6.827
29214WAT      O87883   7.218   9.536   7.505
29214WAT     H187884   7.205   9.575   7.596
29214WAT     H287885   7.311   9.556   7.473
29215WAT      O87886   4.344   8.829   8.182
29215WAT     H187887   4.316   8.733   8.176
29215WAT     H287888   4.431   8.836   8.230
29216WAT      O87889   9.695   0.570   3.030
29216WAT     H187890   9.793   0.550   3.022
29216WAT     H287891   9.683   0.662   3.068
29217WAT      O87892   6.710   1.156   9.435
29217WAT     H187893   6.784   1.188   9.376
29217WAT     H287894   6.646   1.230   9.452
29218WAT      O87895   6.992   2.181   0.012
29218WAT     H187896   6.906   2.186   0.063
29218WAT     H287897   6.992   2.251  -0.060
29219WAT      O87898   6.102   9.768   4.953
29219WAT     H187899   6.192   9.808   4.968
29219WAT     H287900   6.084   9.761   4.855
29220WAT      O87901   3.521   7.651   3.114
29220WAT     H187902   3.566   7.728   3.070
29220WAT     H287903   3.484   7.681   3.203
29221WAT      O87904   0.022   4.517   8.397
29221WAT     H187905   0.054   4.422   8.405
29221WAT     H287906  -0.077   4.519   8.406
29222WAT      O87907   1.810   8.930   2.977
29222WAT     H187908   1.881   8.883   2.925
29222WAT     H287909   1.819   8.908   3.074
29223WAT      O87910   4.192   9.704   7.089
29223WAT     H187911   4.254   9.683   7.164
29223WAT     H287912   4.155   9.796   7.101
29224WAT      O87913   1.874   3.862   1.535
29224WAT     H187914   1.856   3.959   1.551
29224WAT     H287915   1.904   3.820   1.621
29225WAT      O87916   8.231   6.809   0.106
29225WAT     H187917   8.197   6.755   0.029
29225WAT     H287918   8.202   6.766   0.191
29226WAT      O87919   2.082   7.705   7.988
29226WAT     H187920   2.177   7.721   8.014
29226WAT     H287921   2.073   7.613   7.949
29227WAT      O87922   3.369   1.616   5.038
29227WAT     H187923   3.392   1.632   4.942
29227WAT     H287924   3.361   1.704   5.085
29228WAT      O87925   4.589   5.117   4.024
29228WAT     H187926   4.633   5.058   4.092
29228WAT     H287927   4.610   5.212   4.043
29229WAT      O87928   9.888   4.914   9.690
29229WAT     H187929   9.790   4.930   9.702
29229WAT     H287930   9.935   4.932   9.777
29230WAT      O87931   1.049   2.200   2.751
29230WAT     H187932   1.002   2.279   2.790
29230WAT     H287933   1.148   2.216   2.755
29231WAT      O87934   8.902   1.009   5.161
29231WAT     H187935   8.903   0.994   5.062
29231WAT     H287936   8.862   0.930   5.207
29232WAT      O87937   2.105   8.707   7.233
29232WAT     H187938   2.038   8.656   7.287
29232WAT     H287939   2.107   8.802   7.263
29233WAT      O87940   8.994   7.113   2.806
29233WAT     H187941   9.057   7.168   2.862
29233WAT     H287942   8.912   7.092   2.858
29234WAT      O87943   5.537   7.010   4.244
29234WAT     H187944   5.535   7.102   4.205
29234WAT     H287945   5.559   6.943   4.173
29235WAT      O87946   4.394   7.359   0.779
29235WAT     H187947   4.433   7.451   0.769
29235WAT     H287948   4.296   7.362   0.757
29236WAT      O87949   3.679   1.630   5.926
29236WAT     H187950   3.687   1.592   6.018
29236WAT     H287951   3.584   1.658   5.910
29237WAT      O87952   4.167   9.477   9.087
29237WAT     H187953   4.132   9.530   9.164
29237WAT     H287954   4.263   9.453   9.103
29238WAT      O87955   8.782   7.187   3.198
29238WAT     H187956   8.833   7.102   3.213
29238WAT     H287957   8.714   7.198   3.270
29239WAT      O87958   0.041   5.413   3.355
29239WAT     H187959   0.034   5.508   3.384
29239WAT     H287960   0.112   5.367   3.409
29240WAT      O87961   0.608   8.401   2.600
29240WAT     H187962   0.551   8.417   2.680
29240WAT     H287963   0.704   8.390   2.629
29241WAT      O87964   6.339   8.604   4.159
29241WAT     H187965   6.278   8.570   4.087
29241WAT     H287966   6.434   8.591   4.131
29242WAT      O87967   8.848   5.409   6.392
29242WAT     H187968   8.859   5.372   6.484
29242WAT     H287969   8.754   5.442   6.380
29243WAT      O87970   0.536   7.075   3.492
29243WAT     H187971   0.580   7.076   3.402
29243WAT     H287972   0.537   6.983   3.529
29244WAT      O87973   7.949   4.938   0.954
29244WAT     H187974   7.962   5.035   0.976
29244WAT     H287975   7.851   4.921   0.941
29245WAT      O87976   3.631   6.805   7.404
29245WAT     H187977   3.603   6.898   7.428
29245WAT     H287978   3.731   6.799   7.408
29246WAT      O87979   5.802   4.175   0.251
29246WAT     H187980   5.829   4.117   0.328
29246WAT     H287981   5.751   4.254   0.285
29247WAT      O87982   2.459   8.117   0.427
29247WAT     H187983   2.409   8.079   0.505
29247WAT     H287984   2.513   8.045   0.384
29248WAT      O87985   7.535   0.992   3.640
29248WAT     H187986   7.561   0.951   3.552
29248WAT     H287987   7.576   1.082   3.648
29249WAT      O87988   6.607   9.656   9.064
29249WAT     H187989   6.618   9.741   9.012
29249WAT     H287990   6.676   9.653   9.137
29250WAT      O87991   8.188   6.382   2.290
29250WAT     H187992   8.246   6.416   2.217
29250WAT     H287993   8.116   6.448   2.309
29251WAT      O87994   1.369   8.425   1.526
29251WAT     H187995   1.439   8.471   1.472
29251WAT     H287996   1.283   8.475   1.519
29252WAT      O87997   6.689   0.230   5.364
29252WAT     H187998   6.644   0.317   5.381
29252WAT     H287999   6.785   0.235   5.393
29253WAT      O88000   3.320   0.785   1.606
29253WAT     H188001   3.297   0.699   1.561
29253WAT     H288002   3.296   0.779   1.703
29254WAT      O88003   3.206   6.211   7.106
29254WAT     H188004   3.164   6.267   7.176
29254WAT     H288005   3.186   6.114   7.123
29255WAT      O88006   5.578   8.259   0.204
29255WAT     H188007   5.582   8.358   0.189
29255WAT     H288008   5.601   8.240   0.300
29256WAT      O88009   7.630   4.475   4.412
29256WAT     H188010   7.610   4.387   4.370
29256WAT     H288011   7.688   4.529   4.351
29257WAT      O88012   4.310   2.551   0.581
29257WAT     H188013   4.386   2.582   0.637
29257WAT     H288014   4.343   2.524   0.491
29258WAT      O88015   1.953   0.942   2.302
29258WAT     H188016   1.988   1.015   2.360
29258WAT     H288017   1.876   0.977   2.248
29259WAT      O88018   4.901   5.101   4.948
29259WAT     H188019   4.909   5.003   4.927
29259WAT     H288020   4.963   5.153   4.890
29260WAT      O88021   7.195   7.444   5.380
29260WAT     H188022   7.141   7.477   5.303
29260WAT     H288023   7.135   7.428   5.458
29261WAT      O88024   0.371   2.624   8.453
29261WAT     H188025   0.377   2.723   8.439
29261WAT     H288026   0.295   2.587   8.399
29262WAT      O88027   1.854   9.508   7.944
29262WAT     H188028   1.882   9.542   7.854
29262WAT     H288029   1.887   9.415   7.956
29263WAT      O88030   8.888   4.940   2.266
29263WAT     H188031   8.809   4.884   2.241
29263WAT     H288032   8.963   4.922   2.202
29264WAT      O88033   5.973   4.122   2.411
29264WAT     H188034   6.045   4.054   2.400
29264WAT     H288035   5.962   4.172   2.325
29265WAT      O88036   1.828   7.025   6.581
29265WAT     H188037   1.884   7.106   6.597
29265WAT     H288038   1.744   7.031   6.634
29266WAT      O88039   7.215   9.299   4.195
29266WAT     H188040   7.290   9.360   4.223
29266WAT     H288041   7.232   9.267   4.102
29267WAT      O88042   7.425   8.987   2.987
29267WAT     H188043   7.414   8.887   2.989
29267WAT     H288044   7.336   9.031   2.995
29268WAT      O88045   0.474   9.636   2.372
29268WAT     H188046   0.544   9.694   2.330
29268WAT     H288047   0.385   9.656   2.331
29269WAT      O88048   0.090   8.103   6.204
29269WAT     H188049   0.134   8.176   6.257
29269WAT     H288050   0.107   8.117   6.107
29270WAT      O88051   7.482   2.044   3.346
29270WAT     H188052   7.460   2.130   3.392
29270WAT     H288053   7.580   2.026   3.355
29271WAT      O88054   6.471   2.369   1.846
29271WAT     H188055   6.552   2.412   1.804
29271WAT     H288056   6.496   2.280   1.882
29272WAT      O88057   5.672   0.688   8.967
29272WAT     H188058   5.715   0.598   8.959
29272WAT     H288059   5.584   0.688   8.921
29273WAT      O88060   2.968   2.769   0.389
29273WAT     H188061   2.944   2.788   0.294
29273WAT     H288062   2.910   2.696   0.424
29274WAT      O88063   8.545   6.233   9.364
29274WAT     H188064   8.520   6.319   9.408
29274WAT     H288065   8.620   6.190   9.415
29275WAT      O88066   5.107   1.028   8.079
29275WAT     H188067   5.088   0.962   8.152
29275WAT     H288068   5.194   1.005   8.034
29276WAT      O88069   6.890   1.687   0.013
29276WAT     H188070   6.972   1.655   0.061
29276WAT     H288071   6.811   1.638   0.049
29277WAT      O88072   1.167   3.602   4.790
29277WAT     H188073   1.189   3.527   4.727
29277WAT     H288074   1.095   3.573   4.853
29278WAT      O88075   6.806   7.953   6.083
29278WAT     H188076   6.804   7.986   5.989
29278WAT     H288077   6.715   7.918   6.108
29279WAT      O88078   8.277   5.928   7.935
29279WAT     H188079   8.262   5.838   7.975
29279WAT     H288080   8.218   5.995   7.979
29280WAT      O88081   8.254   8.801   8.091
29280WAT     H188082   8.302   8.850   8.018
29280WAT     H288083   8.200   8.727   8.052
29281WAT      O88084   8.477   7.464   0.901
29281WAT     H188085   8.513   7.532   0.836
29281WAT     H288086   8.546   7.444   0.970
29282WAT      O88087   5.487   8.923   7.636
29282WAT     H188088   5.544   9.005   7.639
29282WAT     H288089   5.523   8.860   7.566
29283WAT      O88090   6.077   6.169   2.250
29283WAT     H188091   6.043   6.075   2.257
29283WAT     H288092   6.096   6.190   2.154
29284WAT      O88093   6.469   6.701   9.517
29284WAT     H188094   6.468   6.734   9.423
29284WAT     H288095   6.534   6.626   9.527
29285WAT      O88096   3.753   6.364   5.622
29285WAT     H188097   3.716   6.273   5.638
29285WAT     H288098   3.853   6.359   5.623
29286WAT      O88099   3.518   6.562   7.497
29286WAT     H188100   3.543   6.640   7.439
29286WAT     H288101   3.591   6.494   7.495
29287WAT      O88102   7.749   9.447   1.337
29287WAT     H188103   7.797   9.498   1.266
29287WAT     H288104   7.725   9.357   1.302
29288WAT      O88105   3.229   5.097   8.423
29288WAT     H188106   3.255   5.025   8.360
29288WAT     H288107   3.216   5.183   8.373
29289WAT      O88108   2.779   6.824   8.918
29289WAT     H188109   2.691   6.778   8.922
29289WAT     H288110   2.829   6.793   8.836
29290WAT      O88111   2.155   8.651   8.718
29290WAT     H188112   2.202   8.667   8.805
29290WAT     H288113   2.059   8.679   8.727
29291WAT      O88114   0.062   9.296   5.895
29291WAT     H188115   0.005   9.319   5.815
29291WAT     H288116   0.117   9.376   5.920
29292WAT      O88117   6.354   5.073   4.055
29292WAT     H188118   6.259   5.105   4.056
29292WAT     H288119   6.412   5.141   4.099
29293WAT      O88120   0.937   2.434   7.308
29293WAT     H188121   0.951   2.383   7.393
29293WAT     H288122   0.937   2.371   7.230
29294WAT      O88123   6.647   9.693   7.747
29294WAT     H188124   6.631   9.768   7.683
29294WAT     H288125   6.700   9.726   7.825
29295WAT      O88126   6.465   1.270   9.163
29295WAT     H188127   6.382   1.270   9.219
29295WAT     H288128   6.458   1.198   9.094
29296WAT      O88129   3.797   5.238   4.085
29296WAT     H188130   3.752   5.272   4.167
29296WAT     H288131   3.729   5.221   4.014
29297WAT      O88132   2.562   5.742   9.106
29297WAT     H188133   2.609   5.830   9.111
29297WAT     H288134   2.627   5.670   9.082
29298WAT      O88135   2.154   6.092   3.467
29298WAT     H188136   2.245   6.132   3.477
29298WAT     H288137   2.152   6.034   3.385
29299WAT      O88138   5.503   6.318   9.547
29299WAT     H188139   5.545   6.227   9.555
29299WAT     H288140   5.403   6.308   9.543
29300WAT      O88141   9.317   1.573   7.046
29300WAT     H188142   9.250   1.536   7.109
29300WAT     H288143   9.348   1.663   7.079
29301WAT      O88144   1.874   9.645   3.135
29301WAT     H188145   1.834   9.569   3.084
29301WAT     H288146   1.967   9.662   3.102
29302WAT      O88147   2.593   8.940   8.027
29302WAT     H188148   2.542   8.898   7.952
29302WAT     H288149   2.691   8.920   8.015
29303WAT      O88150   2.146   9.802   3.188
29303WAT     H188151   2.147   9.891   3.234
29303WAT     H288152   2.174   9.814   3.092
29304WAT      O88153   1.824   1.697   4.692
29304WAT     H188154   1.799   1.640   4.614
29304WAT     H288155   1.903   1.754   4.668
29305WAT      O88156   3.538   3.494   9.836
29305WAT     H188157   3.448   3.492   9.793
29305WAT     H288158   3.528   3.492   9.935
29306WAT      O88159   0.510   5.901   5.815
29306WAT     H188160   0.414   5.892   5.842
29306WAT     H288161   0.529   5.996   5.789
29307WAT      O88162   6.390   9.643   8.059
29307WAT     H188163   6.370   9.711   7.988
29307WAT     H288164   6.487   9.622   8.058
29308WAT      O88165   4.672   6.471   4.457
29308WAT     H188166   4.740   6.524   4.406
29308WAT     H288167   4.717   6.418   4.529
29309WAT      O88168   3.518   7.543   2.023
29309WAT     H188169   3.612   7.545   2.058
29309WAT     H288170   3.517   7.504   1.931
29310WAT      O88171   1.361   9.804   3.879
29310WAT     H188172   1.444   9.852   3.851
29310WAT     H288173   1.386   9.719   3.924
29311WAT      O88174   1.606   5.366   8.903
29311WAT     H188175   1.675   5.438   8.892
29311WAT     H288176   1.618   5.297   8.831
29312WAT      O88177   6.366   3.153   9.321
29312WAT     H188178   6.443   3.106   9.363
29312WAT     H288179   6.394   3.246   9.294
29313WAT      O88180   4.430   0.262   9.156
29313WAT     H188181   4.396   0.170   9.171
29313WAT     H288182   4.355   0.321   9.125
29314WAT      O88183   5.042   1.763   3.170
29314WAT     H188184   5.096   1.802   3.244
29314WAT     H288185   4.955   1.813   3.161
29315WAT      O88186   6.021   6.130   9.168
29315WAT     H188187   6.036   6.032   9.179
29315WAT     H288188   6.073   6.163   9.089
29316WAT      O88189   9.744   5.960   1.240
29316WAT     H188190   9.664   5.931   1.291
29316WAT     H288191   9.732   6.054   1.209
29317WAT      O88192   7.977   8.022   8.159
29317WAT     H188193   8.069   7.992   8.184
29317WAT     H288194   7.915   7.944   8.160
29318WAT      O88195   3.887   0.541   5.313
29318WAT     H188196   3.906   0.538   5.215
29318WAT     H288197   3.831   0.463   5.339
29319WAT      O88198   1.694   5.558   4.791
29319WAT     H188199   1.766   5.587   4.728
29319WAT     H288200   1.730   5.486   4.851
29320WAT      O88201   8.700   3.160   3.291
29320WAT     H188202   8.715   3.152   3.389
29320WAT     H288203   8.650   3.245   3.271
29321WAT      O88204   0.729   3.020   5.429
29321WAT     H188205   0.738   3.094   5.496
29321WAT     H288206   0.705   2.935   5.477
29322WAT      O88207   3.587   5.932   8.832
29322WAT     H188208   3.534   6.017   8.827
29322WAT     H288209   3.526   5.854   8.841
29323WAT      O88210   4.254   4.288   2.673
29323WAT     H188211   4.352   4.272   2.681
29323WAT     H288212   4.209   4.266   2.760
29324WAT      O88213   1.165   5.502   1.787
29324WAT     H188214   1.201   5.523   1.878
29324WAT     H288215   1.065   5.494   1.792
29325WAT      O88216   7.771   4.650   3.360
29325WAT     H188217   7.773   4.694   3.450
29325WAT     H288218   7.843   4.581   3.356
29326WAT      O88219   3.669   9.228   7.066
29326WAT     H188220   3.648   9.141   7.110
29326WAT     H288221   3.676   9.215   6.967
29327WAT      O88222   2.901   3.369   2.531
29327WAT     H188223   2.830   3.420   2.484
29327WAT     H288224   2.944   3.306   2.466
29328WAT      O88225   5.938   6.327   3.403
29328WAT     H188226   5.846   6.359   3.423
29328WAT     H288227   5.933   6.244   3.347
29329WAT      O88228   5.470   2.804   4.363
29329WAT     H188229   5.423   2.824   4.277
29329WAT     H288230   5.569   2.799   4.346
29330WAT      O88231   9.369   7.364   6.224
29330WAT     H188232   9.462   7.332   6.206
29330WAT     H288233   9.357   7.456   6.188
29331WAT      O88234   5.260   8.937   4.368
29331WAT     H188235   5.278   8.839   4.371
29331WAT     H288236   5.164   8.954   4.390
29332WAT      O88237   4.358   3.816   1.478
29332WAT     H188238   4.362   3.739   1.415
29332WAT     H288239   4.451   3.837   1.510
29333WAT      O88240   4.679   0.412   7.932
29333WAT     H188241   4.628   0.458   8.005
29333WAT     H288242   4.777   0.428   7.944
29334WAT      O88243   9.877   2.822   7.505
29334WAT     H188244   9.928   2.747   7.463
29334WAT     H288245   9.902   2.908   7.460
29335WAT      O88246   9.033   7.642   5.041
29335WAT     H188247   8.941   7.622   5.007
29335WAT     H288248   9.101   7.608   4.976
29336WAT      O88249   3.900   7.653   1.432
29336WAT     H188250   3.831   7.679   1.365
29336WAT     H288251   3.855   7.632   1.519
29337WAT      O88252   9.270   5.497   0.288
29337WAT     H188253   9.214   5.414   0.286
29337WAT     H288254   9.326   5.501   0.205
29338WAT      O88255   9.419   6.732   0.057
29338WAT     H188256   9.323   6.740   0.084
29338WAT     H288257   9.434   6.786  -0.026
29339WAT      O88258   6.234   7.862   2.059
29339WAT     H188259   6.135   7.856   2.071
29339WAT     H288260   6.279   7.845   2.146
29340WAT      O88261   0.062   5.592   4.448
29340WAT     H188262  -0.015   5.532   4.424
29340WAT     H288263   0.148   5.544   4.429
29341WAT      O88264   0.329   1.860   4.723
29341WAT     H188265   0.370   1.802   4.654
29341WAT     H288266   0.234   1.880   4.699
29342WAT      O88267   3.383   5.832   8.186
29342WAT     H188268   3.321   5.866   8.257
29342WAT     H288269   3.369   5.884   8.102
29343WAT      O88270   9.734   2.454   1.966
29343WAT     H188271   9.653   2.460   1.908
29343WAT     H288272   9.714   2.396   2.045
29344WAT      O88273   4.535   9.008   2.944
29344WAT     H188274   4.605   9.044   3.006
29344WAT     H288275   4.559   8.914   2.919
29345WAT      O88276   9.134   0.646   7.679
29345WAT     H188277   9.087   0.640   7.592
29345WAT     H288278   9.134   0.741   7.710
29346WAT      O88279   4.118   5.988   4.287
29346WAT     H188280   4.207   6.031   4.272
29346WAT     H288281   4.123   5.925   4.365
29347WAT      O88282   4.148   5.859   9.041
29347WAT     H188283   4.087   5.836   9.117
29347WAT     H288284   4.240   5.874   9.077
29348WAT      O88285   5.966   1.630   1.025
29348WAT     H188286   6.028   1.702   0.995
29348WAT     H288287   5.947   1.641   1.122
29349WAT      O88288   4.485   4.319   3.716
29349WAT     H188289   4.527   4.260   3.646
29349WAT     H288290   4.534   4.406   3.720
29350WAT      O88291   2.648   8.226   6.260
29350WAT     H188292   2.729   8.197   6.210
29350WAT     H288293   2.583   8.150   6.265
29351WAT      O88294   4.485   4.190   2.721
29351WAT     H188295   4.561   4.243   2.684
29351WAT     H288296   4.509   4.159   2.814
29352WAT      O88297   8.028   7.789   6.417
29352WAT     H188298   7.960   7.862   6.427
29352WAT     H288299   8.081   7.804   6.333
29353WAT      O88300   4.081   3.081   1.295
29353WAT     H188301   4.114   3.104   1.203
29353WAT     H288302   4.157   3.042   1.348
29354WAT      O88303   0.763   7.656   2.754
29354WAT     H188304   0.754   7.664   2.655
29354WAT     H288305   0.752   7.747   2.796
29355WAT      O88306   7.431   4.862   3.238
29355WAT     H188307   7.515   4.916   3.234
29355WAT     H288308   7.419   4.825   3.330
29356WAT      O88309   7.734   0.613   1.001
29356WAT     H188310   7.668   0.686   1.012
29356WAT     H288311   7.735   0.583   0.905
29357WAT      O88312   7.831   1.400   7.877
29357WAT     H188313   7.816   1.471   7.946
29357WAT     H288314   7.830   1.310   7.920
29358WAT      O88315   8.232   3.264   0.626
29358WAT     H188316   8.203   3.217   0.710
29358WAT     H288317   8.284   3.346   0.650
29359WAT      O88318   3.363   4.385   9.354
29359WAT     H188319   3.370   4.328   9.435
29359WAT     H288320   3.269   4.383   9.319
29360WAT      O88321   5.876   6.619   7.537
29360WAT     H188322   5.803   6.619   7.605
29360WAT     H288323   5.948   6.683   7.564
29361WAT      O88324   2.302   3.930   6.998
29361WAT     H188325   2.339   3.938   7.091
29361WAT     H288326   2.375   3.945   6.931
29362WAT      O88327   1.731   2.113   6.974
29362WAT     H188328   1.827   2.087   6.988
29362WAT     H288329   1.672   2.037   7.001
29363WAT      O88330   7.166   3.696   3.432
29363WAT     H188331   7.255   3.713   3.390
29363WAT     H288332   7.116   3.629   3.378
29364WAT      O88333   9.552   9.648   0.484
29364WAT     H188334   9.561   9.700   0.568
29364WAT     H288335   9.462   9.664   0.443
29365WAT      O88336   7.460   1.550   3.413
29365WAT     H188337   7.413   1.639   3.408
29365WAT     H288338   7.472   1.525   3.509
29366WAT      O88339   5.589   8.637   8.992
29366WAT     H188340   5.626   8.544   8.985
29366WAT     H288341   5.662   8.703   8.977
29367WAT      O88342   3.244   9.027   3.325
29367WAT     H188343   3.203   9.050   3.237
29367WAT     H288344   3.198   9.080   3.397
29368WAT      O88345   9.129   5.025   1.015
29368WAT     H188346   9.122   5.117   1.055
29368WAT     H288347   9.201   4.974   1.062
29369WAT      O88348   5.231   3.964   0.907
29369WAT     H188349   5.281   4.042   0.946
29369WAT     H288350   5.134   3.989   0.899
29370WAT      O88351   9.703   1.309   6.317
29370WAT     H188352   9.757   1.226   6.331
29370WAT     H288353   9.678   1.317   6.221
29371WAT      O88354   9.049   9.037   3.025
29371WAT     H188355   8.961   9.033   2.977
29371WAT     H288356   9.099   9.118   2.996
29372WAT      O88357   5.546   1.390   7.320
29372WAT     H188358   5.494   1.468   7.285
29372WAT     H288359   5.621   1.368   7.257
29373WAT      O88360   2.237   7.073   1.771
29373WAT     H188361   2.274   7.148   1.827
29373WAT     H288362   2.163   7.028   1.822
29374WAT      O88363   1.788   1.816   0.689
29374WAT     H188364   1.821   1.911   0.700
29374WAT     H288365   1.792   1.791   0.593
29375WAT      O88366   7.417   8.191   2.976
29375WAT     H188367   7.454   8.171   3.067
29375WAT     H288368   7.321   8.164   2.973
29376WAT      O88369   4.277   8.414   1.717
29376WAT     H188370   4.305   8.468   1.797
29376WAT     H288371   4.320   8.323   1.723
29377WAT      O88372   6.462   6.680   7.783
29377WAT     H188373   6.412   6.657   7.866
29377WAT     H288374   6.428   6.625   7.707
29378WAT      O88375   3.805   9.186   5.434
29378WAT     H188376   3.861   9.256   5.389
29378WAT     H288377   3.708   9.208   5.422
29379WAT      O88378   2.349   1.867   1.720
29379WAT     H188379   2.437   1.840   1.758
29379WAT     H288380   2.323   1.803   1.647
29380WAT      O88381   3.965   2.787   4.903
29380WAT     H188382   4.023   2.858   4.942
29380WAT     H288383   3.994   2.769   4.809
29381WAT      O88384   9.199   9.755   5.540
29381WAT     H188385   9.269   9.820   5.510
29381WAT     H288386   9.126   9.805   5.586
29382WAT      O88387   6.222   4.050   9.542
29382WAT     H188388   6.160   4.050   9.464
29382WAT     H288389   6.315   4.030   9.512
29383WAT      O88390   7.751   0.441   4.946
29383WAT     H188391   7.657   0.446   4.980
29383WAT     H288392   7.751   0.400   4.855
29384WAT      O88393   6.170   0.943   0.892
29384WAT     H188394   6.084   0.950   0.842
29384WAT     H288395   6.194   0.847   0.903
29385WAT      O88396   9.649   4.783   8.596
29385WAT     H188397   9.697   4.772   8.509
29385WAT     H288398   9.555   4.750   8.586
29386WAT      O88399   0.156   5.340   9.621
29386WAT     H188400   0.167   5.249   9.581
29386WAT     H288401   0.117   5.402   9.553
29387WAT      O88402   3.997   0.797   7.062
29387WAT     H188403   3.936   0.820   6.985
29387WAT     H288404   4.091   0.795   7.030
29388WAT      O88405   2.192   2.013   2.107
29388WAT     H188406   2.129   1.995   2.031
29388WAT     H288407   2.157   1.968   2.189
29389WAT      O88408   1.147   3.372   8.915
29389WAT     H188409   1.211   3.446   8.936
29389WAT     H288410   1.190   3.285   8.937
29390WAT      O88411   7.860   8.060   8.804
29390WAT     H188412   7.902   8.009   8.729
29390WAT     H288413   7.772   8.018   8.828
29391WAT      O88414   1.257   5.060   3.843
29391WAT     H188415   1.324   5.068   3.917
29391WAT     H288416   1.304   5.064   3.755
29392WAT      O88417   0.657   1.349   9.391
29392WAT     H188418   0.582   1.302   9.346
29392WAT     H288419   0.696   1.418   9.330
29393WAT      O88420   7.431   1.901   0.336
29393WAT     H188421   7.506   1.841   0.310
29393WAT     H288422   7.424   1.976   0.270
29394WAT      O88423   9.727   7.378   2.550
29394WAT     H188424   9.707   7.468   2.588
29394WAT     H288425   9.648   7.345   2.499
29395WAT      O88426   9.198   6.312   9.807
29395WAT     H188427   9.243   6.293   9.894
29395WAT     H288428   9.182   6.226   9.758
29396WAT      O88429   4.915   1.305   9.490
29396WAT     H188430   4.916   1.401   9.462
29396WAT     H288431   4.889   1.299   9.587
29397WAT      O88432   0.018   3.420   9.071
29397WAT     H188433  -0.068   3.411   9.020
29397WAT     H288434   0.064   3.331   9.075
29398WAT      O88435   4.372   8.152   1.792
29398WAT     H188436   4.367   8.173   1.890
29398WAT     H288437   4.407   8.059   1.781
29399WAT      O88438   4.237   3.114   3.351
29399WAT     H188439   4.219   3.058   3.271
29399WAT     H288440   4.321   3.166   3.338
29400WAT      O88441   8.970   1.003   8.159
29400WAT     H188442   8.972   1.081   8.096
29400WAT     H288443   8.915   0.930   8.119
29401WAT      O88444   4.360   6.057   8.323
29401WAT     H188445   4.456   6.061   8.350
29401WAT     H288446   4.351   6.072   8.225
29402WAT      O88447   2.741   6.108   5.618
29402WAT     H188448   2.729   6.122   5.520
29402WAT     H288449   2.803   6.031   5.633
29403WAT      O88450   9.849   9.522   4.747
29403WAT     H188451   9.761   9.480   4.724
29403WAT     H288452   9.853   9.614   4.709
29404WAT      O88453   0.858   3.116   0.757
29404WAT     H188454   0.958   3.110   0.764
29404WAT     H288455   0.822   3.027   0.729
29405WAT      O88456   7.963   9.747   7.128
29405WAT     H188457   7.881   9.739   7.184
29405WAT     H288458   8.044   9.728   7.183
29406WAT      O88459   2.152   3.602   4.360
29406WAT     H188460   2.219   3.540   4.321
29406WAT     H288461   2.145   3.684   4.303
29407WAT      O88462   2.265   9.707   6.110
29407WAT     H188463   2.274   9.776   6.038
29407WAT     H288464   2.335   9.637   6.098
29408WAT      O88465   2.627   8.271   3.025
29408WAT     H188466   2.643   8.173   3.014
29408WAT     H288467   2.591   8.289   3.116
29409WAT      O88468   7.580   6.876   8.180
29409WAT     H188469   7.495   6.906   8.224
29409WAT     H288470   7.558   6.806   8.111
29410WAT      O88471   9.317   8.874   2.597
29410WAT     H188472   9.346   8.791   2.646
29410WAT     H288473   9.393   8.940   2.598
29411WAT      O88474   2.161   8.368   8.471
29411WAT     H188475   2.236   8.376   8.537
29411WAT     H288476   2.091   8.436   8.494
29412WAT      O88477   3.469   8.509   6.547
29412WAT     H188478   3.490   8.553   6.460
29412WAT     H288479   3.460   8.410   6.534
29413WAT      O88480   8.200   4.178   9.460
29413WAT     H188481   8.283   4.179   9.515
29413WAT     H288482   8.139   4.251   9.490
29414WAT      O88483   2.727   9.770   5.306
29414WAT     H188484   2.674   9.817   5.378
29414WAT     H288485   2.665   9.722   5.245
29415WAT      O88486   1.421   1.154   8.915
29415WAT     H188487   1.511   1.186   8.885
29415WAT     H288488   1.350   1.213   8.877
29416WAT      O88489   6.273   1.346   1.299
29416WAT     H188490   6.209   1.354   1.223
29416WAT     H288491   6.243   1.272   1.360
29417WAT      O88492   4.252   6.944   0.510
29417WAT     H188493   4.162   6.930   0.551
29417WAT     H288494   4.241   6.990   0.422
29418WAT      O88495   8.056   2.801   1.451
29418WAT     H188496   7.980   2.737   1.439
29418WAT     H288497   8.041   2.854   1.534
29419WAT      O88498   0.781   4.169   0.070
29419WAT     H188499   0.731   4.095   0.024
29419WAT     H288500   0.722   4.211   0.139
29420WAT      O88501   8.782   2.021   1.333
29420WAT     H188502   8.782   1.956   1.256
29420WAT     H288503   8.875   2.034   1.365
29421WAT      O88504   3.224   8.851   2.876
29421WAT     H188505   3.137   8.880   2.915
29421WAT     H288506   3.299   8.874   2.939
29422WAT      O88507   1.599   4.190   7.500
29422WAT     H188508   1.533   4.184   7.424
29422WAT     H288509   1.613   4.286   7.524
29423WAT      O88510   4.988   4.115   7.039
29423WAT     H188511   4.974   4.018   7.058
29423WAT     H288512   4.945   4.139   6.952
29424WAT      O88513   5.576   0.883   0.733
29424WAT     H188514   5.593   0.888   0.634
29424WAT     H288515   5.662   0.865   0.781
29425WAT      O88516   0.840   2.489   3.553
29425WAT     H188517   0.912   2.422   3.540
29425WAT     H288518   0.775   2.456   3.621
29426WAT      O88519   8.849   1.333   6.160
29426WAT     H188520   8.762   1.377   6.142
29426WAT     H288521   8.838   1.233   6.157
29427WAT      O88522   1.612   8.658   2.297
29427WAT     H188523   1.540   8.698   2.240
29427WAT     H288524   1.687   8.722   2.308
29428WAT      O88525   6.048   6.545   2.240
29428WAT     H188526   6.083   6.520   2.331
29428WAT     H288527   5.983   6.620   2.249
29429WAT      O88528   4.618   6.852   9.321
29429WAT     H188529   4.593   6.785   9.252
29429WAT     H288530   4.717   6.849   9.337
29430WAT      O88531   0.321   5.652   1.890
29430WAT     H188532   0.222   5.666   1.888
29430WAT     H288533   0.343   5.572   1.946
29431WAT      O88534   6.196   4.446   7.494
29431WAT     H188535   6.224   4.412   7.404
29431WAT     H288536   6.127   4.385   7.533
29432WAT      O88537   6.251   6.770   9.869
29432WAT     H188538   6.183   6.836   9.902
29432WAT     H288539   6.339   6.817   9.856
29433WAT      O88540   9.329   2.237   2.061
29433WAT     H188541   9.234   2.247   2.032
29433WAT     H288542   9.372   2.161   2.012
29434WAT      O88543   5.234   9.563   3.085
29434WAT     H188544   5.178   9.609   3.016
29434WAT     H288545   5.238   9.619   3.168
29435WAT      O88546   0.349   7.385   8.944
29435WAT     H188547   0.393   7.468   8.978
29435WAT     H288548   0.357   7.313   9.013
29436WAT      O88549   2.282   2.010   4.598
29436WAT     H188550   2.294   2.063   4.682
29436WAT     H288551   2.370   1.997   4.553
29437WAT      O88552   5.523   6.434   8.593
29437WAT     H188553   5.483   6.408   8.681
29437WAT     H288554   5.612   6.391   8.583
29438WAT      O88555   0.463   4.720   3.911
29438WAT     H188556   0.429   4.657   3.841
29438WAT     H288557   0.387   4.747   3.970
29439WAT      O88558   1.443   8.574   9.272
29439WAT     H188559   1.453   8.670   9.297
29439WAT     H288560   1.447   8.565   9.173
29440WAT      O88561   5.937   1.135   0.148
29440WAT     H188562   6.026   1.125   0.192
29440WAT     H288563   5.927   1.065   0.077
29441WAT      O88564   5.912   8.017   0.669
29441WAT     H188565   5.845   7.959   0.716
29441WAT     H288566   5.943   8.088   0.732
29442WAT      O88567   2.103   0.609   9.661
29442WAT     H188568   2.125   0.699   9.623
29442WAT     H288569   2.047   0.620   9.743
29443WAT      O88570   4.858   5.186   6.736
29443WAT     H188571   4.950   5.170   6.772
29443WAT     H288572   4.834   5.115   6.670
29444WAT      O88573   7.687   4.248   5.924
29444WAT     H188574   7.625   4.199   5.985
29444WAT     H288575   7.636   4.287   5.847
29445WAT      O88576   5.751   0.233   1.420
29445WAT     H188577   5.672   0.246   1.358
29445WAT     H288578   5.719   0.229   1.514
29446WAT      O88579   8.782   7.061   4.876
29446WAT     H188580   8.720   7.012   4.816
29446WAT     H288581   8.834   6.996   4.931
29447WAT      O88582   8.170   5.974   4.643
29447WAT     H188583   8.246   6.030   4.610
29447WAT     H288584   8.127   6.019   4.722
29448WAT      O88585   6.832   7.668   8.014
29448WAT     H188586   6.812   7.761   8.047
29448WAT     H288587   6.827   7.667   7.914
29449WAT      O88588   1.994   6.398   5.718
29449WAT     H188589   1.967   6.477   5.773
29449WAT     H288590   1.916   6.366   5.665
29450WAT      O88591   2.671   9.812   0.408
29450WAT     H188592   2.647   9.766   0.323
29450WAT     H288593   2.754   9.865   0.396
29451WAT      O88594   8.926   3.881   3.651
29451WAT     H188595   8.968   3.879   3.741
29451WAT     H288596   8.954   3.964   3.603
29452WAT      O88597   7.597   0.248   0.537
29452WAT     H188598   7.651   0.304   0.600
29452WAT     H288599   7.500   0.257   0.560
29453WAT      O88600   6.459   5.247   0.039
29453WAT     H188601   6.550   5.268   0.075
29453WAT     H288602   6.448   5.147   0.033
29454WAT      O88603   5.985   2.607   4.965
29454WAT     H188604   5.980   2.704   4.987
29454WAT     H288605   5.972   2.553   5.048
29455WAT      O88606   7.517   0.357   5.565
29455WAT     H188607   7.599   0.312   5.531
29455WAT     H288608   7.450   0.288   5.593
29456WAT      O88609   1.945   7.883   1.714
29456WAT     H188610   1.866   7.913   1.767
29456WAT     H288611   2.029   7.906   1.764
29457WAT      O88612   6.205   0.966   5.492
29457WAT     H188613   6.109   0.951   5.514
29457WAT     H288614   6.212   1.023   5.410
29458WAT      O88615   7.908   5.286   6.177
29458WAT     H188616   7.950   5.326   6.258
29458WAT     H288617   7.854   5.205   6.203
29459WAT      O88618   7.166   4.085   7.480
29459WAT     H188619   7.169   4.125   7.572
29459WAT     H288620   7.120   3.996   7.484
29460WAT      O88621   7.339   7.594   0.923
29460WAT     H188622   7.301   7.621   1.011
29460WAT     H288623   7.402   7.517   0.936
29461WAT      O88624   3.075   2.121   5.404
29461WAT     H188625   3.149   2.181   5.435
29461WAT     H288626   3.110   2.029   5.390
29462WAT      O88627   9.683   5.220   1.303
29462WAT     H188628   9.682   5.320   1.304
29462WAT     H288629   9.629   5.187   1.226
29463WAT      O88630   9.866   9.106   3.180
29463WAT     H188631   9.913   9.166   3.114
29463WAT     H288632   9.929   9.083   3.254
29464WAT      O88633   4.878   7.112   6.367
29464WAT     H188634   4.929   7.112   6.453
29464WAT     H288635   4.852   7.019   6.343
29465WAT      O88636   3.980   6.953   6.514
29465WAT     H188637   3.987   6.979   6.418
29465WAT     H288638   3.895   6.902   6.529
29466WAT      O88639   1.868   7.539   4.727
29466WAT     H188640   1.793   7.594   4.765
29466WAT     H288641   1.854   7.527   4.628
29467WAT      O88642   3.024   4.482   7.148
29467WAT     H188643   2.986   4.575   7.144
29467WAT     H288644   2.991   4.430   7.070
29468WAT      O88645   7.016   5.633   0.235
29468WAT     H188646   6.920   5.661   0.232
29468WAT     H288647   7.055   5.654   0.324
29469WAT      O88648   5.504   4.116   9.210
29469WAT     H188649   5.570   4.108   9.135
29469WAT     H288650   5.460   4.205   9.207
29470WAT      O88651   9.291   9.712   4.228
29470WAT     H188652   9.391   9.714   4.229
29470WAT     H288653   9.259   9.631   4.279
29471WAT      O88654   8.375   6.030   4.948
29471WAT     H188655   8.426   6.023   4.863
29471WAT     H288656   8.433   6.072   5.018
29472WAT      O88657   0.947   5.462   4.969
29472WAT     H188658   0.925   5.471   5.066
29472WAT     H288659   1.037   5.502   4.951
29473WAT      O88660   1.911   1.837   4.131
29473WAT     H188661   1.991   1.845   4.191
29473WAT     H288662   1.847   1.911   4.152
29474WAT      O88663   4.764   5.757   2.655
29474WAT     H188664   4.802   5.824   2.592
29474WAT     H288665   4.790   5.781   2.749
29475WAT      O88666   5.567   6.058   0.112
29475WAT     H188667   5.626   6.010   0.176
29475WAT     H288668   5.618   6.135   0.071
29476WAT      O88669   0.713   1.319   7.478
29476WAT     H188670   0.684   1.283   7.389
29476WAT     H288671   0.702   1.248   7.547
29477WAT      O88672   3.569   5.063   8.819
29477WAT     H188673   3.647   5.088   8.763
29477WAT     H288674   3.491   5.041   8.759
29478WAT      O88675   9.345   2.393   7.166
29478WAT     H188676   9.349   2.294   7.172
29478WAT     H288677   9.271   2.427   7.224
29479WAT      O88678   6.379   2.232   8.907
29479WAT     H188679   6.369   2.326   8.938
29479WAT     H288680   6.319   2.172   8.960
29480WAT      O88681   6.774   3.602   9.516
29480WAT     H188682   6.801   3.637   9.606
29480WAT     H288683   6.857   3.580   9.463
29481WAT      O88684   3.619   2.808   5.731
29481WAT     H188685   3.551   2.822   5.803
29481WAT     H288686   3.572   2.777   5.648
29482WAT      O88687   9.388   1.488   2.862
29482WAT     H188688   9.402   1.450   2.770
29482WAT     H288689   9.452   1.445   2.926
29483WAT      O88690   6.922   6.588   3.186
29483WAT     H188691   6.904   6.496   3.222
29483WAT     H288692   6.875   6.599   3.098
29484WAT      O88693   6.282   2.382   7.366
29484WAT     H188694   6.238   2.470   7.352
29484WAT     H288695   6.380   2.391   7.354
29485WAT      O88696   5.659   8.325   2.145
29485WAT     H188697   5.619   8.410   2.111
29485WAT     H288698   5.585   8.262   2.170
29486WAT      O88699   1.594   1.095   1.729
29486WAT     H188700   1.542   1.058   1.652
29486WAT     H288701   1.610   1.192   1.715
29487WAT      O88702   4.515   5.092   7.451
29487WAT     H188703   4.526   5.188   7.478
29487WAT     H288704   4.477   5.041   7.528
29488WAT      O88705   7.573   5.789   6.538
29488WAT     H188706   7.526   5.748   6.460
29488WAT     H288707   7.505   5.829   6.600
29489WAT      O88708   8.731   8.784   6.224
29489WAT     H188709   8.698   8.768   6.131
29489WAT     H288710   8.656   8.818   6.280
29490WAT      O88711   9.553   4.952   4.874
29490WAT     H188712   9.536   4.887   4.800
29490WAT     H288713   9.521   4.913   4.960
29491WAT      O88714   8.919   4.790   3.895
29491WAT     H188715   8.827   4.814   3.865
29491WAT     H288716   8.986   4.837   3.837
29492WAT      O88717   4.852   7.478   0.409
29492WAT     H188718   4.891   7.512   0.323
29492WAT     H288719   4.834   7.380   0.401
29493WAT      O88720   2.546   4.102   4.721
29493WAT     H188721   2.545   4.022   4.661
29493WAT     H288722   2.615   4.089   4.793
29494WAT      O88723   4.592   2.729   5.953
29494WAT     H188724   4.656   2.763   5.885
29494WAT     H288725   4.636   2.728   6.043
29495WAT      O88726   7.391   4.957   1.993
29495WAT     H188727   7.323   4.888   1.969
29495WAT     H288728   7.345   5.040   2.024
29496WAT      O88729   6.821   3.734   8.847
29496WAT     H188730   6.909   3.748   8.802
29496WAT     H288731   6.792   3.819   8.891
29497WAT      O88732   3.199   7.941   2.852
29497WAT     H188733   3.150   7.856   2.832
29497WAT     H288734   3.153   8.017   2.807
29498WAT      O88735   5.461   9.196   6.295
29498WAT     H188736   5.542   9.163   6.343
29498WAT     H288737   5.469   9.174   6.197
29499WAT      O88738   3.936   0.618   1.686
29499WAT     H188739   4.006   0.631   1.615
29499WAT     H288740   3.905   0.523   1.685
29500WAT      O88741   9.869   1.458   4.296
29500WAT     H188742   9.792   1.503   4.250
29500WAT     H288743   9.948   1.455   4.235
29501WAT      O88744   0.352   2.667   6.464
29501WAT     H188745   0.345   2.728   6.544
29501WAT     H288746   0.447   2.663   6.435
29502WAT      O88747   3.536   4.550   2.157
29502WAT     H188748   3.491   4.476   2.208
29502WAT     H288749   3.492   4.561   2.068
29503WAT      O88750   6.577   6.687   6.845
29503WAT     H188751   6.585   6.786   6.839
29503WAT     H288752   6.515   6.655   6.773
29504WAT      O88753   6.146   8.821   6.760
29504WAT     H188754   6.195   8.805   6.675
29504WAT     H288755   6.210   8.846   6.832
29505WAT      O88756   0.911   4.002   8.321
29505WAT     H188757   0.836   4.045   8.372
29505WAT     H288758   0.878   3.974   8.231
29506WAT      O88759   4.293   4.412   1.844
29506WAT     H188760   4.338   4.452   1.764
29506WAT     H288761   4.268   4.484   1.909
29507WAT      O88762   3.602   8.981   8.193
29507WAT     H188763   3.531   8.979   8.263
29507WAT     H288764   3.565   8.950   8.106
29508WAT      O88765   4.244   9.486   0.158
29508WAT     H188766   4.341   9.505   0.143
29508WAT     H288767   4.230   9.387   0.164
29509WAT      O88768   7.468   6.968   1.325
29509WAT     H188769   7.535   6.962   1.399
29509WAT     H288770   7.488   6.897   1.257
29510WAT      O88771   3.278   7.432   7.896
29510WAT     H188772   3.363   7.479   7.873
29510WAT     H288773   3.201   7.486   7.864
29511WAT      O88774   2.941   4.152   0.133
29511WAT     H188775   2.999   4.079   0.168
29511WAT     H288776   2.995   4.236   0.122
29512WAT      O88777   1.625   3.990   6.863
29512WAT     H188778   1.638   4.034   6.774
29512WAT     H288779   1.709   3.943   6.889
29513WAT      O88780   5.914   9.635   3.981
29513WAT     H188781   5.869   9.676   3.901
29513WAT     H288782   5.888   9.685   4.063
29514WAT      O88783   5.521   4.571   9.238
29514WAT     H188784   5.568   4.487   9.214
29514WAT     H288785   5.514   4.578   9.338
29515WAT      O88786   0.843   1.471   1.708
29515WAT     H188787   0.864   1.491   1.612
29515WAT     H288788   0.857   1.373   1.725
29516WAT      O88789   7.189   2.043   4.918
29516WAT     H188790   7.125   1.977   4.957
29516WAT     H288791   7.247   1.998   4.851
29517WAT      O88792   1.408   0.988   8.577
29517WAT     H188793   1.498   1.026   8.598
29517WAT     H288794   1.355   1.054   8.524
29518WAT      O88795   9.447   6.361   4.103
29518WAT     H188796   9.348   6.354   4.092
29518WAT     H288797   9.472   6.457   4.115
29519WAT      O88798   2.630   0.890   3.523
29519WAT     H188799   2.688   0.865   3.446
29519WAT     H288800   2.613   0.989   3.521
29520WAT      O88801   5.023   6.384   7.587
29520WAT     H188802   5.092   6.372   7.658
29520WAT     H288803   4.987   6.478   7.591
29521WAT      O88804   2.789   3.734   5.707
29521WAT     H188805   2.831   3.756   5.795
29521WAT     H288806   2.859   3.736   5.635
29522WAT      O88807   6.518   8.719   4.838
29522WAT     H188808   6.526   8.790   4.768
29522WAT     H288809   6.448   8.653   4.811
29523WAT      O88810   9.727   8.508   8.006
29523WAT     H188811   9.795   8.581   8.021
29523WAT     H288812   9.649   8.545   7.957
29524WAT      O88813   4.597   0.312   4.641
29524WAT     H188814   4.504   0.319   4.605
29524WAT     H288815   4.607   0.226   4.690
29525WAT      O88816   1.414   0.800   9.833
29525WAT     H188817   1.318   0.780   9.852
29525WAT     H288818   1.423   0.893   9.799
29526WAT      O88819   2.341   9.655   7.621
29526WAT     H188820   2.420   9.601   7.594
29526WAT     H288821   2.348   9.747   7.581
29527WAT      O88822   5.139   5.040   2.662
29527WAT     H188823   5.061   5.095   2.691
29527WAT     H288824   5.148   4.960   2.721
29528WAT      O88825   4.202   1.134   4.685
29528WAT     H188826   4.122   1.102   4.635
29528WAT     H288827   4.206   1.234   4.682
29529WAT      O88828   1.285   4.277   2.072
29529WAT     H188829   1.202   4.320   2.037
29529WAT     H288830   1.345   4.253   1.996
29530WAT      O88831   7.292   7.756   8.188
29530WAT     H188832   7.262   7.809   8.109
29530WAT     H288833   7.221   7.691   8.213
29531WAT      O88834   4.502   5.947   3.909
29531WAT     H188835   4.446   5.884   3.963
29531WAT     H288836   4.596   5.913   3.906
29532WAT      O88837   0.286   3.704   1.304
29532WAT     H188838   0.219   3.645   1.349
29532WAT     H288839   0.240   3.758   1.233
29533WAT      O88840   6.961   3.969   1.376
29533WAT     H188841   6.927   4.031   1.305
29533WAT     H288842   7.053   3.937   1.350
29534WAT      O88843   0.249   2.056   3.485
29534WAT     H188844   0.278   1.965   3.515
29534WAT     H288845   0.216   2.108   3.563
29535WAT      O88846   3.782   7.551   3.253
29535WAT     H188847   3.828   7.477   3.204
29535WAT     H288848   3.707   7.586   3.196
29536WAT      O88849   6.876   6.322   2.574
29536WAT     H188850   6.928   6.362   2.650
29536WAT     H288851   6.803   6.384   2.547
29537WAT      O88852   5.436   1.808   8.673
29537WAT     H188853   5.352   1.763   8.705
29537WAT     H288854   5.515   1.766   8.719
29538WAT      O88855   1.258   0.010   0.282
29538WAT     H188856   1.296  -0.039   0.360
29538WAT     H288857   1.330   0.029   0.216
29539WAT      O88858   7.673   6.041   6.231
29539WAT     H188859   7.751   6.008   6.177
29539WAT     H288860   7.605   5.968   6.238
29540WAT      O88861   1.961   7.844   5.644
29540WAT     H188862   1.940   7.857   5.547
29540WAT     H288863   1.894   7.892   5.700
29541WAT      O88864   1.563   2.639   3.628
29541WAT     H188865   1.606   2.633   3.538
29541WAT     H288866   1.535   2.734   3.645
29542WAT      O88867   0.696   2.450   5.051
29542WAT     H188868   0.723   2.542   5.078
29542WAT     H288869   0.720   2.435   4.955
29543WAT      O88870   3.070   2.205   4.959
29543WAT     H188871   3.156   2.254   4.974
29543WAT     H288872   3.013   2.257   4.895
29544WAT      O88873   9.556   0.195   0.518
29544WAT     H188874   9.612   0.162   0.594
29544WAT     H288875   9.475   0.241   0.553
29545WAT      O88876   9.140   4.922   2.142
29545WAT     H188877   9.178   4.990   2.080
29545WAT     H288878   9.173   4.831   2.116
29546WAT      O88879   3.366   3.121   0.963
29546WAT     H188880   3.336   3.102   1.056
29546WAT     H288881   3.453   3.171   0.966
29547WAT      O88882   4.113   7.642   3.057
29547WAT     H188883   4.063   7.712   3.006
29547WAT     H288884   4.084   7.643   3.152
29548WAT      O88885   5.217   8.852   0.537
29548WAT     H188886   5.298   8.796   0.549
29548WAT     H288887   5.139   8.807   0.581
29549WAT      O88888   9.259   5.457   5.123
29549WAT     H188889   9.345   5.502   5.099
29549WAT     H288890   9.186   5.490   5.063
29550WAT      O88891   7.323   2.708   3.123
29550WAT     H188892   7.387   2.652   3.071
29550WAT     H288893   7.231   2.670   3.116
29551WAT      O88894   0.603   2.528   8.301
29551WAT     H188895   0.529   2.545   8.366
29551WAT     H288896   0.667   2.461   8.340
29552WAT      O88897   9.230   1.597   9.058
29552WAT     H188898   9.182   1.560   9.138
29552WAT     H288899   9.165   1.615   8.985
29553WAT      O88900   3.218   2.193   4.345
29553WAT     H188901   3.238   2.212   4.249
29553WAT     H288902   3.121   2.176   4.357
29554WAT      O88903   0.268   7.233   4.125
29554WAT     H188904   0.342   7.267   4.182
29554WAT     H288905   0.244   7.302   4.056
29555WAT      O88906   7.722   6.482   7.652
29555WAT     H188907   7.652   6.442   7.711
29555WAT     H288908   7.767   6.557   7.700
29556WAT      O88909   6.146   6.390   7.134
29556WAT     H188910   6.057   6.375   7.176
29556WAT     H288911   6.184   6.302   7.106
29557WAT      O88912   0.544   0.199   5.239
29557WAT     H188913   0.603   0.154   5.307
29557WAT     H288914   0.479   0.259   5.286
29558WAT      O88915   4.389   8.678   3.169
29558WAT     H188916   4.355   8.605   3.109
29558WAT     H288917   4.334   8.681   3.252
29559WAT      O88918   5.018   5.360   7.007
29559WAT     H188919   4.935   5.410   7.029
29559WAT     H288920   5.043   5.376   6.912
29560WAT      O88921   4.073   9.062   7.799
29560WAT     H188922   4.163   9.034   7.831
29560WAT     H288923   4.004   9.037   7.868
29561WAT      O88924   4.634   2.011   8.102
29561WAT     H188925   4.705   2.011   8.031
29561WAT     H288926   4.656   2.079   8.171
29562WAT      O88927   8.105   2.296   9.634
29562WAT     H188928   8.138   2.384   9.670
29562WAT     H288929   8.037   2.258   9.696
29563WAT      O88930   7.768   6.300   7.262
29563WAT     H188931   7.838   6.238   7.298
29563WAT     H288932   7.760   6.380   7.322
29564WAT      O88933   1.164   6.823   1.872
29564WAT     H188934   1.241   6.759   1.871
29564WAT     H288935   1.189   6.903   1.926
29565WAT      O88936   0.385   3.409   1.499
29565WAT     H188937   0.415   3.411   1.404
29565WAT     H288938   0.387   3.502   1.537
29566WAT      O88939   7.549   0.511   0.371
29566WAT     H188940   7.480   0.508   0.443
29566WAT     H288941   7.639   0.523   0.412
29567WAT      O88942   2.921   5.174   0.157
29567WAT     H188943   2.918   5.210   0.064
29567WAT     H288944   3.016   5.153   0.181
29568WAT      O88945   2.242   6.502   9.480
29568WAT     H188946   2.207   6.445   9.406
29568WAT     H288947   2.172   6.511   9.551
29569WAT      O88948   2.876   5.882   8.871
29569WAT     H188949   2.973   5.894   8.848
29569WAT     H288950   2.830   5.834   8.796
29570WAT      O88951   7.343   9.658   2.841
29570WAT     H188952   7.313   9.566   2.869
29570WAT     H288953   7.286   9.726   2.886
29571WAT      O88954   6.396   6.078   8.990
29571WAT     H188955   6.429   5.988   8.962
29571WAT     H288956   6.299   6.085   8.970
29572WAT      O88957   8.461   1.942   0.802
29572WAT     H188958   8.440   1.935   0.704
29572WAT     H288959   8.383   1.983   0.849
29573WAT      O88960   7.168   1.888   6.272
29573WAT     H188961   7.153   1.791   6.295
29573WAT     H288962   7.226   1.930   6.342
29574WAT      O88963   7.817   8.661   8.273
29574WAT     H188964   7.722   8.687   8.258
29574WAT     H288965   7.877   8.725   8.225
29575WAT      O88966   1.227   0.752   0.240
29575WAT     H188967   1.246   0.708   0.328
29575WAT     H288968   1.221   0.682   0.168
29576WAT      O88969   6.173   8.432   6.934
29576WAT     H188970   6.261   8.460   6.972
29576WAT     H288971   6.122   8.513   6.906
29577WAT      O88972   1.200   8.547   9.429
29577WAT     H188973   1.276   8.512   9.375
29577WAT     H288974   1.196   8.646   9.421
29578WAT      O88975   4.186   6.761   4.359
29578WAT     H188976   4.192   6.778   4.458
29578WAT     H288977   4.177   6.849   4.311
29579WAT      O88978   5.961   8.938   8.037
29579WAT     H188979   5.927   8.979   8.121
29579WAT     H288980   5.944   9.000   7.960
29580WAT      O88981   1.695   9.498   6.117
29580WAT     H188982   1.610   9.502   6.064
29580WAT     H288983   1.742   9.586   6.111
29581WAT      O88984   5.373   8.741   8.659
29581WAT     H188985   5.306   8.690   8.712
29581WAT     H288986   5.462   8.697   8.666
29582WAT      O88987   0.318   2.889   6.602
29582WAT     H188988   0.257   2.961   6.636
29582WAT     H288989   0.388   2.929   6.543
29583WAT      O88990   0.292   0.194   0.335
29583WAT     H188991   0.303   0.260   0.409
29583WAT     H288992   0.367   0.204   0.270
29584WAT      O88993   0.579   5.778   6.237
29584WAT     H188994   0.570   5.685   6.200
29584WAT     H288995   0.530   5.842   6.178
29585WAT      O88996   3.474   5.187   7.180
29585WAT     H188997   3.432   5.221   7.264
29585WAT     H288998   3.492   5.089   7.189
29586WAT      O88999   2.683   9.776   0.663
29586WAT     H189000   2.691   9.789   0.564
29586WAT     H289001   2.699   9.862   0.710
29587WAT      O89002   1.072   7.183   0.101
29587WAT     H189003   1.168   7.162   0.083
29587WAT     H289004   1.024   7.195   0.014
29588WAT      O89005   9.280   5.858   8.724
29588WAT     H189006   9.319   5.847   8.632
29588WAT     H289007   9.181   5.856   8.718
29589WAT      O89008   2.442   6.943   3.173
29589WAT     H189009   2.483   7.031   3.195
29589WAT     H289010   2.343   6.953   3.169
29590WAT      O89011   1.318   3.811   0.044
29590WAT     H189012   1.315   3.766  -0.045
29590WAT     H289013   1.320   3.741   0.116
29591WAT      O89014   4.078   5.219   8.059
29591WAT     H189015   4.019   5.217   8.140
29591WAT     H289016   4.036   5.277   7.989
29592WAT      O89017   8.144   1.537   8.816
29592WAT     H189018   8.065   1.577   8.769
29592WAT     H289019   8.120   1.517   8.911
29593WAT      O89020   1.038   2.440   4.084
29593WAT     H189021   1.005   2.349   4.110
29593WAT     H289022   0.995   2.509   4.144
29594WAT      O89023   8.414   7.088   3.713
29594WAT     H189024   8.430   7.184   3.733
29594WAT     H289025   8.361   7.046   3.786
29595WAT      O89026   6.153   8.468   4.663
29595WAT     H189027   6.058   8.497   4.680
29595WAT     H289028   6.173   8.477   4.566
29596WAT      O89029   0.795   0.341   2.735
29596WAT     H189030   0.849   0.383   2.662
29596WAT     H289031   0.700   0.333   2.706
29597WAT      O89032   7.008   0.069   5.313
29597WAT     H189033   6.984   0.164   5.331
29597WAT     H289034   7.046   0.028   5.396
29598WAT      O89035   5.131   9.272   0.593
29598WAT     H189036   5.139   9.321   0.506
29598WAT     H289037   5.213   9.288   0.648
29599WAT      O89038   0.751   5.235   4.038
29599WAT     H189039   0.722   5.141   4.016
29599WAT     H289040   0.780   5.281   3.954
29600WAT      O89041   5.826   8.734   0.763
29600WAT     H189042   5.792   8.770   0.676
29600WAT     H289043   5.843   8.636   0.754
29601WAT      O89044   0.467   8.191   6.751
29601WAT     H189045   0.507   8.143   6.673
29601WAT     H289046   0.540   8.231   6.806
29602WAT      O89047   2.901   4.285   3.426
29602WAT     H189048   2.838   4.241   3.491
29602WAT     H289049   2.920   4.223   3.350
29603WAT      O89050   0.383   4.970   9.123
29603WAT     H189051   0.341   5.030   9.055
29603WAT     H289052   0.452   4.912   9.080
29604WAT      O89053   6.306   3.659   5.643
29604WAT     H189054   6.293   3.679   5.740
29604WAT     H289055   6.319   3.560   5.631
29605WAT      O89056   9.098   9.130   1.859
29605WAT     H189057   9.126   9.055   1.919
29605WAT     H289058   9.006   9.113   1.824
29606WAT      O89059   2.058   7.648   0.603
29606WAT     H189060   2.118   7.726   0.587
29606WAT     H289061   1.972   7.661   0.554
29607WAT      O89062   4.452   1.021   6.835
29607WAT     H189063   4.497   1.101   6.796
29607WAT     H289064   4.454   0.946   6.769
29608WAT      O89065   4.932   9.782   6.756
29608WAT     H189066   4.873   9.797   6.676
29608WAT     H289067   4.980   9.695   6.746
29609WAT      O89068   8.405   8.512   6.231
29609WAT     H189069   8.435   8.417   6.219
29609WAT     H289070   8.370   8.525   6.323
29610WAT      O89071   7.861   4.268   0.835
29610WAT     H189072   7.785   4.333   0.846
29610WAT     H289073   7.835   4.180   0.874
29611WAT      O89074   6.273   7.199   4.821
29611WAT     H189075   6.189   7.161   4.783
29611WAT     H289076   6.348   7.134   4.810
29612WAT      O89077   4.548   4.031   9.390
29612WAT     H189078   4.624   4.054   9.329
29612WAT     H289079   4.499   3.952   9.353
29613WAT      O89080   8.467   7.818   4.767
29613WAT     H189081   8.380   7.772   4.751
29613WAT     H289082   8.512   7.779   4.847
29614WAT      O89083   8.523   3.104   8.884
29614WAT     H189084   8.461   3.119   8.807
29614WAT     H289085   8.472   3.113   8.969
29615WAT      O89086   2.192   2.074   3.096
29615WAT     H189087   2.097   2.073   3.065
29615WAT     H289088   2.207   2.156   3.151
29616WAT      O89089   6.301   9.685   9.411
29616WAT     H189090   6.218   9.737   9.430
29616WAT     H289091   6.288   9.589   9.436
29617WAT      O89092   1.496   4.741   7.242
29617WAT     H189093   1.444   4.764   7.325
29617WAT     H289094   1.590   4.772   7.252
29618WAT      O89095   2.942   0.477   0.508
29618WAT     H189096   2.931   0.490   0.410
29618WAT     H289097   2.926   0.381   0.531
29619WAT      O89098   0.379   8.470   7.405
29619WAT     H189099   0.386   8.481   7.505
29619WAT     H289100   0.382   8.372   7.383
29620WAT      O89101   6.400   7.347   3.705
29620WAT     H189102   6.498   7.331   3.716
29620WAT     H289103   6.365   7.287   3.633
29621WAT      O89104   8.990   8.740   8.415
29621WAT     H189105   8.995   8.769   8.320
29621WAT     H289106   8.963   8.644   8.419
29622WAT      O89107   1.245   0.820   6.850
29622WAT     H189108   1.228   0.910   6.890
29622WAT     H289109   1.320   0.827   6.783
29623WAT      O89110   9.551   3.901   7.332
29623WAT     H189111   9.483   3.875   7.263
29623WAT     H289112   9.552   4.000   7.343
29624WAT      O89113   5.880   4.948   3.269
29624WAT     H189114   5.972   4.925   3.300
29624WAT     H289115   5.816   4.939   3.345
29625WAT      O89116   4.371   0.532   3.038
29625WAT     H189117   4.338   0.446   3.077
29625WAT     H289118   4.392   0.520   2.941
29626WAT      O89119   6.070   5.297   6.455
29626WAT     H189120   5.993   5.334   6.404
29626WAT     H289121   6.038   5.256   6.541
29627WAT      O89122   4.429   3.146   5.853
29627WAT     H189123   4.478   3.181   5.773
29627WAT     H289124   4.339   3.113   5.826
29628WAT      O89125   0.553   7.189   5.750
29628WAT     H189126   0.514   7.276   5.721
29628WAT     H289127   0.639   7.206   5.799
29629WAT      O89128   7.209   1.834   4.501
29629WAT     H189129   7.234   1.743   4.466
29629WAT     H289130   7.232   1.903   4.432
29630WAT      O89131   5.069   8.560   3.874
29630WAT     H189132   4.994   8.518   3.926
29630WAT     H289133   5.114   8.490   3.819
29631WAT      O89134   2.618   3.519   5.740
29631WAT     H189135   2.693   3.583   5.722
29631WAT     H289136   2.597   3.518   5.838
29632WAT      O89137   9.679   4.263   6.225
29632WAT     H189138   9.749   4.197   6.255
29632WAT     H289139   9.720   4.329   6.162
29633WAT      O89140   0.528   0.711   4.399
29633WAT     H189141   0.501   0.765   4.479
29633WAT     H289142   0.447   0.664   4.362
29634WAT      O89143   4.932   2.246   0.029
29634WAT     H189144   5.013   2.243   0.087
29634WAT     H289145   4.850   2.236   0.086
29635WAT      O89146   6.387   9.273   1.749
29635WAT     H189147   6.383   9.366   1.712
29635WAT     H289148   6.391   9.208   1.673
29636WAT      O89149   9.838   8.431   9.041
29636WAT     H189150   9.926   8.417   8.996
29636WAT     H289151   9.853   8.454   9.137
29637WAT      O89152   8.520   2.601   8.939
29637WAT     H189153   8.538   2.522   8.880
29637WAT     H289154   8.606   2.630   8.981
29638WAT      O89155   0.680   2.868   1.359
29638WAT     H189156   0.706   2.772   1.348
29638WAT     H289157   0.693   2.916   1.272
29639WAT      O89158   5.916   1.343   5.828
29639WAT     H189159   5.871   1.429   5.805
29639WAT     H289160   5.847   1.271   5.836
29640WAT      O89161   1.137   0.194   8.861
29640WAT     H189162   1.132   0.252   8.943
29640WAT     H289163   1.138   0.098   8.889
29641WAT      O89164   1.420   3.254   4.031
29641WAT     H189165   1.359   3.187   4.073
29641WAT     H289166   1.492   3.279   4.096
29642WAT      O89167   9.590   9.330   9.319
29642WAT     H189168   9.503   9.287   9.342
29642WAT     H289169   9.665   9.268   9.342
29643WAT      O89170   7.150   0.619   6.637
29643WAT     H189171   7.192   0.709   6.653
29643WAT     H289172   7.221   0.552   6.615
29644WAT      O89173   5.314   6.337   2.899
29644WAT     H189174   5.378   6.362   2.971
29644WAT     H289175   5.221   6.343   2.933
29645WAT      O89176   2.658   1.218   6.931
29645WAT     H189177   2.736   1.165   6.900
29645WAT     H289178   2.687   1.282   7.002
29646WAT      O89179   5.506   0.168   5.669
29646WAT     H189180   5.484   0.257   5.710
29646WAT     H289181   5.443   0.099   5.703
29647WAT      O89182   4.093   4.564   3.885
29647WAT     H189183   4.130   4.593   3.973
29647WAT     H289184   4.167   4.555   3.819
29648WAT      O89185   2.730   4.019   8.021
29648WAT     H189186   2.793   4.005   8.098
29648WAT     H289187   2.777   3.996   7.936
29649WAT      O89188   1.610   6.866   3.929
29649WAT     H189189   1.648   6.954   3.900
29649WAT     H289190   1.513   6.862   3.906
29650WAT      O89191   9.128   9.174   1.376
29650WAT     H189192   9.074   9.090   1.363
29650WAT     H289193   9.190   9.162   1.454
29651WAT      O89194   3.309   2.632   2.201
29651WAT     H189195   3.339   2.693   2.274
29651WAT     H289196   3.260   2.685   2.131
29652WAT      O89197   3.166   7.610   0.007
29652WAT     H189198   3.199   7.660  -0.073
29652WAT     H289199   3.242   7.597   0.071
29653WAT      O89200   6.968   6.761   6.735
29653WAT     H189201   6.932   6.849   6.704
29653WAT     H289202   7.052   6.776   6.788
29654WAT      O89203   0.616   5.110   0.214
29654WAT     H189204   0.707   5.072   0.196
29654WAT     H289205   0.613   5.205   0.182
29655WAT      O89206   5.708   4.479   0.011
29655WAT     H189207   5.771   4.450   0.083
29655WAT     H289208   5.614   4.459   0.039
29656WAT      O89209   7.659   6.825   7.609
29656WAT     H189210   7.690   6.909   7.654
29656WAT     H289211   7.721   6.750   7.633
29657WAT      O89212   6.435   5.995   5.473
29657WAT     H189213   6.529   6.029   5.468
29657WAT     H289214   6.371   6.071   5.459
29658WAT      O89215   4.140   1.110   5.138
29658WAT     H189216   4.174   1.091   5.046
29658WAT     H289217   4.081   1.191   5.135
29659WAT      O89218   2.289   9.035   7.552
29659WAT     H189219   2.198   9.045   7.593
29659WAT     H289220   2.318   8.940   7.560
29660WAT      O89221   4.115   9.520   8.835
29660WAT     H189222   4.173   9.592   8.797
29660WAT     H289223   4.126   9.518   8.934
29661WAT      O89224   4.996   6.153   1.206
29661WAT     H189225   4.981   6.209   1.124
29661WAT     H289226   4.999   6.056   1.179
29662WAT      O89227   7.726   3.084   6.986
29662WAT     H189228   7.714   3.080   6.887
29662WAT     H289229   7.763   2.997   7.018
29663WAT      O89230   2.297   7.572   6.901
29663WAT     H189231   2.259   7.578   6.993
29663WAT     H289232   2.378   7.512   6.902
29664WAT      O89233   7.068   1.329   1.059
29664WAT     H189234   7.049   1.371   1.148
29664WAT     H289235   7.167   1.331   1.042
29665WAT      O89236   4.644   1.125   2.225
29665WAT     H189237   4.728   1.151   2.178
29665WAT     H289238   4.630   1.186   2.304
29666WAT      O89239   4.858   7.937   0.057
29666WAT     H189240   4.917   7.996   0.111
29666WAT     H289241   4.771   7.983   0.039
29667WAT      O89242   5.253   1.604   1.377
29667WAT     H189243   5.261   1.655   1.463
29667WAT     H289244   5.163   1.562   1.371
29668WAT      O89245   1.911   4.831   2.832
29668WAT     H189246   1.872   4.770   2.763
29668WAT     H289247   1.993   4.875   2.795
29669WAT      O89248   4.414   1.672   6.667
29669WAT     H189249   4.318   1.700   6.671
29669WAT     H289250   4.471   1.742   6.709
29670WAT      O89251   9.549   6.486  -0.001
29670WAT     H189252   9.556   6.437   0.085
29670WAT     H289253   9.500   6.573   0.014
29671WAT      O89254   1.530   2.883   5.789
29671WAT     H189255   1.585   2.947   5.735
29671WAT     H289256   1.589   2.814   5.829
29672WAT      O89257   5.064   9.334   6.562
29672WAT     H189258   5.156   9.314   6.598
29672WAT     H289259   5.004   9.256   6.581
29673WAT      O89260   4.965   7.246   7.057
29673WAT     H189261   5.061   7.268   7.044
29673WAT     H289262   4.915   7.330   7.081
29674WAT      O89263   3.027   9.770   5.337
29674WAT     H189264   3.023   9.827   5.419
29674WAT     H289265   2.948   9.708   5.336
29675WAT      O89266   7.612   4.538   7.335
29675WAT     H189267   7.588   4.442   7.332
29675WAT     H289268   7.712   4.547   7.340
29676WAT      O89269   3.676   1.623   7.815
29676WAT     H189270   3.628   1.624   7.728
29676WAT     H289271   3.729   1.707   7.825
29677WAT      O89272   1.358   0.338   5.104
29677WAT     H189273   1.442   0.388   5.127
29677WAT     H289274   1.350   0.258   5.163
29678WAT      O89275   6.773   9.678   6.532
29678WAT     H189276   6.685   9.661   6.488
29678WAT     H289277   6.806   9.769   6.506
29679WAT      O89278   4.262   1.226   3.596
29679WAT     H189279   4.328   1.151   3.585
29679WAT     H289280   4.254   1.249   3.693
29680WAT      O89281   8.151   4.504   8.594
29680WAT     H189282   8.161   4.432   8.526
29680WAT     H289283   8.111   4.467   8.677
29681WAT      O89284   7.923   3.939   9.234
29681WAT     H189285   7.945   4.037   9.236
29681WAT     H289286   7.984   3.894   9.168
29682WAT      O89287   8.090   2.299   8.648
29682WAT     H189288   8.049   2.267   8.733
29682WAT     H289289   8.018   2.325   8.583
29683WAT      O89290   6.775   3.802   3.044
29683WAT     H189291   6.802   3.761   2.957
29683WAT     H289292   6.676   3.794   3.055
29684WAT      O89293   5.358   8.170   3.769
29684WAT     H189294   5.359   8.141   3.673
29684WAT     H289295   5.451   8.163   3.807
29685WAT      O89296   0.412   8.874   8.618
29685WAT     H189297   0.411   8.969   8.586
29685WAT     H289298   0.318   8.841   8.630
29686WAT      O89299   9.828   8.396   6.054
29686WAT     H189300   9.823   8.463   6.128
29686WAT     H289301   9.924   8.370   6.039
29687WAT      O89302   3.372   5.472   6.836
29687WAT     H189303   3.435   5.403   6.870
29687WAT     H289304   3.411   5.516   6.755
29688WAT      O89305   6.568   4.935   4.726
29688WAT     H189306   6.486   4.924   4.782
29688WAT     H289307   6.638   4.872   4.757
29689WAT      O89308   3.612   8.360   8.990
29689WAT     H189309   3.572   8.415   9.064
29689WAT     H289310   3.540   8.305   8.947
29690WAT      O89311   9.559   0.193   1.423
29690WAT     H189312   9.532   0.102   1.390
29690WAT     H289313   9.511   0.213   1.508
29691WAT      O89314   1.321   4.114   3.516
29691WAT     H189315   1.259   4.041   3.487
29691WAT     H289316   1.268   4.193   3.546
29692WAT      O89317   4.256   7.011   1.384
29692WAT     H189318   4.208   6.939   1.332
29692WAT     H289319   4.316   7.061   1.322
29693WAT      O89320   4.914   5.922   8.898
29693WAT     H189321   4.898   5.838   8.847
29693WAT     H289322   4.827   5.961   8.927
29694WAT      O89323   4.603   1.912   4.506
29694WAT     H189324   4.679   1.976   4.506
29694WAT     H289325   4.522   1.956   4.546
29695WAT      O89326   4.100   7.400   1.210
29695WAT     H189327   4.067   7.483   1.255
29695WAT     H289328   4.024   7.338   1.193
29696WAT      O89329   0.810   9.342   1.452
29696WAT     H189330   0.800   9.373   1.357
29696WAT     H289331   0.898   9.294   1.461
29697WAT      O89332   4.162   4.352   9.072
29697WAT     H189333   4.116   4.274   9.031
29697WAT     H289334   4.145   4.434   9.017
29698WAT      O89335   0.492   7.036   5.161
29698WAT     H189336   0.417   7.065   5.101
29698WAT     H289337   0.498   7.097   5.239
29699WAT      O89338   9.052   6.875   6.985
29699WAT     H189339   9.074   6.793   7.038
29699WAT     H289340   9.100   6.954   7.025
29700WAT      O89341   2.891   1.268   5.334
29700WAT     H189342   2.900   1.345   5.271
29700WAT     H289343   2.795   1.240   5.338
29701WAT      O89344   8.751   6.702   1.153
29701WAT     H189345   8.740   6.768   1.228
29701WAT     H289346   8.669   6.703   1.096
29702WAT      O89347   6.796   1.690   8.097
29702WAT     H189348   6.874   1.645   8.053
29702WAT     H289349   6.825   1.781   8.129
29703WAT      O89350   4.522   3.239   6.674
29703WAT     H189351   4.564   3.329   6.685
29703WAT     H289352   4.493   3.204   6.763
29704WAT      O89353   2.235   0.742   0.088
29704WAT     H189354   2.306   0.672   0.099
29704WAT     H289355   2.148   0.698   0.065
29705WAT      O89356   0.596   9.499   9.118
29705WAT     H189357   0.588   9.579   9.178
29705WAT     H289358   0.567   9.417   9.168
29706WAT      O89359   3.383   1.325   7.108
29706WAT     H189360   3.388   1.341   7.009
29706WAT     H289361   3.294   1.354   7.142
29707WAT      O89362   4.777   3.062   6.742
29707WAT     H189363   4.708   2.992   6.720
29707WAT     H289364   4.868   3.025   6.725
29708WAT      O89365   6.820   6.536   6.780
29708WAT     H189366   6.888   6.606   6.758
29708WAT     H289367   6.731   6.579   6.795
29709WAT      O89368   2.616   3.584   0.079
29709WAT     H189369   2.596   3.653   0.149
29709WAT     H289370   2.702   3.538   0.101
29710WAT      O89371   3.491   9.566   2.598
29710WAT     H189372   3.544   9.485   2.622
29710WAT     H289373   3.553   9.640   2.573
29711WAT      O89374   7.587   6.331   9.140
29711WAT     H189375   7.630   6.270   9.207
29711WAT     H289376   7.653   6.355   9.069
29712WAT      O89377   6.441   5.991   0.671
29712WAT     H189378   6.416   5.898   0.644
29712WAT     H289379   6.523   6.019   0.620
29713WAT      O89380   8.038   7.775   1.475
29713WAT     H189381   8.053   7.777   1.376
29713WAT     H289382   7.940   7.781   1.494
29714WAT      O89383   6.554   0.448   7.083
29714WAT     H189384   6.462   0.410   7.084
29714WAT     H289385   6.574   0.484   6.992
29715WAT      O89386   4.145   8.366   2.795
29715WAT     H189387   4.157   8.295   2.725
29715WAT     H289388   4.072   8.428   2.766
29716WAT      O89389   1.743   9.711   5.173
29716WAT     H189390   1.662   9.652   5.176
29716WAT     H289391   1.800   9.686   5.095
29717WAT      O89392   5.904   9.806   8.740
29717WAT     H189393   5.902   9.732   8.674
29717WAT     H289394   5.851   9.781   8.821
29718WAT      O89395   0.531   0.593   5.290
29718WAT     H189396   0.479   0.507   5.286
29718WAT     H289397   0.478   0.666   5.248
29719WAT      O89398   0.049   0.963   8.807
29719WAT     H189399   0.104   1.031   8.855
29719WAT     H289400   0.006   1.005   8.727
29720WAT      O89401   4.107   2.654   9.361
29720WAT     H189402   4.191   2.704   9.381
29720WAT     H289403   4.036   2.718   9.331
29721WAT      O89404   0.364   0.863   4.977
29721WAT     H189405   0.418   0.931   4.927
29721WAT     H289406   0.286   0.835   4.921
29722WAT      O89407   6.186   6.391   5.147
29722WAT     H189408   6.249   6.452   5.194
29722WAT     H289409   6.233   6.304   5.127
29723WAT      O89410   4.754   3.136   9.213
29723WAT     H189411   4.790   3.146   9.121
29723WAT     H289412   4.823   3.093   9.272
29724WAT      O89413   0.354   1.837   0.023
29724WAT     H189414   0.377   1.843   0.120
29724WAT     H289415   0.350   1.741  -0.005
29725WAT      O89416   5.625   0.847   4.255
29725WAT     H189417   5.713   0.805   4.234
29725WAT     H289418   5.555   0.776   4.264
29726WAT      O89419   6.197   7.509   9.249
29726WAT     H189420   6.222   7.537   9.341
29726WAT     H289421   6.221   7.413   9.235
29727WAT      O89422   4.769   5.229   2.937
29727WAT     H189423   4.706   5.286   2.884
29727WAT     H289424   4.728   5.138   2.951
29728WAT      O89425   4.157   6.816   7.906
29728WAT     H189426   4.181   6.885   7.838
29728WAT     H289427   4.079   6.847   7.960
29729WAT      O89428   6.228   1.302   6.034
29729WAT     H189429   6.269   1.212   6.018
29729WAT     H289430   6.185   1.303   6.125
29730WAT      O89431   8.647   6.622   3.425
29730WAT     H189432   8.661   6.523   3.433
29730WAT     H289433   8.597   6.641   3.340
29731WAT      O89434   8.345   4.569   6.638
29731WAT     H189435   8.262   4.576   6.693
29731WAT     H289436   8.361   4.473   6.614
29732WAT      O89437   4.961   5.137   3.170
29732WAT     H189438   4.906   5.176   3.096
29732WAT     H289439   4.912   5.148   3.257
29733WAT      O89440   5.229   6.613   4.193
29733WAT     H189441   5.325   6.613   4.222
29733WAT     H289442   5.185   6.697   4.225
29734WAT      O89443   0.348   4.877   2.075
29734WAT     H189444   0.444   4.862   2.101
29734WAT     H289445   0.343   4.954   2.012
29735WAT      O89446   3.207   4.029   0.232
29735WAT     H189447   3.239   4.122   0.250
29735WAT     H289448   3.195   3.980   0.318
29736WAT      O89449   6.472   1.693   9.366
29736WAT     H189450   6.536   1.699   9.443
29736WAT     H289451   6.517   1.649   9.288
29737WAT      O89452   8.091   0.709   6.083
29737WAT     H189453   8.050   0.696   6.174
29737WAT     H289454   8.088   0.623   6.032
29738WAT      O89455   9.564   5.108   0.390
29738WAT     H189456   9.495   5.124   0.462
29738WAT     H289457   9.522   5.122   0.300
29739WAT      O89458   6.923   1.288   2.820
29739WAT     H189459   6.838   1.333   2.791
29739WAT     H289460   6.903   1.220   2.890
29740WAT      O89461   1.872   2.546   5.583
29740WAT     H189462   1.789   2.550   5.526
29740WAT     H289463   1.919   2.634   5.578
29741WAT      O89464   4.835   1.893   9.497
29741WAT     H189465   4.795   1.801   9.496
29741WAT     H289466   4.778   1.953   9.553
29742WAT      O89467   4.435   8.874   1.104
29742WAT     H189468   4.392   8.811   1.168
29742WAT     H289469   4.413   8.846   1.010
29743WAT      O89470   1.389   7.579   0.885
29743WAT     H189471   1.447   7.648   0.927
29743WAT     H289472   1.352   7.614   0.799
29744WAT      O89473   3.285   1.941   9.556
29744WAT     H189474   3.281   1.882   9.636
29744WAT     H289475   3.377   1.940   9.518
29745WAT      O89476   2.508   5.071   4.020
29745WAT     H189477   2.503   5.094   4.117
29745WAT     H289478   2.514   5.155   3.966
29746WAT      O89479   4.614   5.389   4.407
29746WAT     H189480   4.662   5.474   4.384
29746WAT     H289481   4.531   5.411   4.459
29747WAT      O89482   4.701   3.878   1.754
29747WAT     H189483   4.649   3.904   1.673
29747WAT     H289484   4.643   3.891   1.835
29748WAT      O89485   6.408   6.998   7.899
29748WAT     H189486   6.324   6.945   7.884
29748WAT     H289487   6.411   7.030   7.993
29749WAT      O89488   2.615   0.760   1.916
29749WAT     H189489   2.623   0.698   1.838
29749WAT     H289490   2.670   0.725   1.991
29750WAT      O89491   2.919   2.213   5.605
29750WAT     H189492   2.963   2.173   5.525
29750WAT     H289493   2.915   2.313   5.595
29751WAT      O89494   6.467   3.452   5.287
29751WAT     H189495   6.459   3.523   5.358
29751WAT     H289496   6.500   3.367   5.329
29752WAT      O89497   9.480   5.164   5.638
29752WAT     H189498   9.472   5.264   5.642
29752WAT     H289499   9.415   5.129   5.570
29753WAT      O89500   4.342   7.661   1.271
29753WAT     H189501   4.310   7.756   1.271
29753WAT     H289502   4.405   7.647   1.348
29754WAT      O89503   6.348   6.192   4.224
29754WAT     H189504   6.328   6.118   4.289
29754WAT     H289505   6.407   6.157   4.151
29755WAT      O89506   7.507   5.352   4.298
29755WAT     H189507   7.489   5.259   4.267
29755WAT     H289508   7.523   5.411   4.219
29756WAT      O89509   4.727   8.619   8.327
29756WAT     H189510   4.727   8.552   8.402
29756WAT     H289511   4.707   8.710   8.364
29757WAT      O89512   3.221   4.632   4.973
29757WAT     H189513   3.270   4.664   5.055
29757WAT     H289514   3.201   4.535   4.983
29758WAT      O89515   4.383   9.410   8.753
29758WAT     H189516   4.393   9.312   8.774
29758WAT     H289517   4.287   9.430   8.731
29759WAT      O89518   1.841   1.770   8.478
29759WAT     H189519   1.886   1.807   8.559
29759WAT     H289520   1.743   1.763   8.494
29760WAT      O89521   6.146   6.791   4.562
29760WAT     H189522   6.219   6.724   4.578
29760WAT     H289523   6.145   6.815   4.465
29761WAT      O89524   8.596   9.837   8.390
29761WAT     H189525   8.695   9.852   8.400
29761WAT     H289526   8.554   9.918   8.349
29762WAT      O89527   0.617   1.336   4.146
29762WAT     H189528   0.582   1.369   4.234
29762WAT     H289529   0.707   1.295   4.160
29763WAT      O89530   4.185   0.666   7.671
29763WAT     H189531   4.105   0.606   7.670
29763WAT     H289532   4.260   0.622   7.721
29764WAT      O89533   9.583   9.491   2.294
29764WAT     H189534   9.539   9.576   2.323
29764WAT     H289535   9.675   9.486   2.333
29765WAT      O89536   4.843   9.558   0.966
29765WAT     H189537   4.794   9.637   1.004
29765WAT     H289538   4.838   9.561   0.866
29766WAT      O89539   8.939   4.800   4.459
29766WAT     H189540   8.985   4.845   4.536
29766WAT     H289541   8.965   4.846   4.374
29767WAT      O89542   1.403   7.452   9.424
29767WAT     H189543   1.470   7.517   9.461
29767WAT     H289544   1.436   7.359   9.437
29768WAT      O89545   9.569   4.668   0.653
29768WAT     H189546   9.578   4.605   0.731
29768WAT     H289547   9.489   4.727   0.667
29769WAT      O89548   1.807   7.065   1.740
29769WAT     H189549   1.727   7.006   1.750
29769WAT     H289550   1.778   7.154   1.705
29770WAT      O89551   7.240   3.825   4.812
29770WAT     H189552   7.200   3.777   4.890
29770WAT     H289553   7.238   3.924   4.830
29771WAT      O89554   9.138   8.568   7.476
29771WAT     H189555   9.088   8.545   7.392
29771WAT     H289556   9.231   8.532   7.472
29772WAT      O89557   6.195   4.606   6.405
29772WAT     H189558   6.218   4.509   6.411
29772WAT     H289559   6.123   4.628   6.471
29773WAT      O89560   0.172   4.933   1.761
29773WAT     H189561   0.121   4.868   1.817
29773WAT     H289562   0.146   4.923   1.665
29774WAT      O89563   1.087   5.655   8.901
29774WAT     H189564   0.993   5.649   8.934
29774WAT     H289565   1.104   5.580   8.837
29775WAT      O89566   4.819   4.077   9.701
29775WAT     H189567   4.869   4.112   9.621
29775WAT     H289568   4.767   3.996   9.674
29776WAT      O89569   4.506   7.011   3.002
29776WAT     H189570   4.566   7.033   2.925
29776WAT     H289571   4.525   6.919   3.035
29777WAT      O89572   8.381   9.778   6.990
29777WAT     H189573   8.455   9.756   7.054
29777WAT     H289574   8.372   9.877   6.982
29778WAT      O89575   2.835   9.700   5.911
29778WAT     H189576   2.812   9.796   5.926
29778WAT     H289577   2.841   9.682   5.813
29779WAT      O89578   3.098   1.559   4.305
29779WAT     H189579   3.190   1.590   4.331
29779WAT     H289580   3.101   1.461   4.283
29780WAT      O89581   1.246   0.684   4.796
29780WAT     H189582   1.175   0.676   4.867
29780WAT     H289583   1.293   0.772   4.806
29781WAT      O89584   1.811   0.284   6.178
29781WAT     H189585   1.727   0.337   6.160
29781WAT     H289586   1.797   0.189   6.151
29782WAT      O89587   3.414   6.576   6.430
29782WAT     H189588   3.348   6.502   6.440
29782WAT     H289589   3.503   6.547   6.466
29783WAT      O89590   6.949   8.622   8.007
29783WAT     H189591   6.929   8.649   8.101
29783WAT     H289592   6.962   8.523   8.004
29784WAT      O89593   3.753   4.708   4.582
29784WAT     H189594   3.846   4.694   4.549
29784WAT     H289595   3.717   4.793   4.544
29785WAT      O89596   9.847   4.841   8.098
29785WAT     H189597   9.897   4.774   8.044
29785WAT     H289598   9.883   4.933   8.078
29786WAT      O89599   6.643   5.383   1.848
29786WAT     H189600   6.688   5.420   1.766
29786WAT     H289601   6.681   5.293   1.868
29787WAT      O89602   0.135   2.706   3.796
29787WAT     H189603   0.229   2.724   3.823
29787WAT     H289604   0.129   2.699   3.697
29788WAT      O89605   5.682   5.954   6.361
29788WAT     H189606   5.668   5.855   6.369
29788WAT     H289607   5.641   5.986   6.276
29789WAT      O89608   7.823   2.774   6.527
29789WAT     H189609   7.807   2.717   6.608
29789WAT     H289610   7.804   2.721   6.444
29790WAT      O89611   2.060   1.910   2.596
29790WAT     H189612   2.143   1.964   2.591
29790WAT     H289613   2.011   1.930   2.681
29791WAT      O89614   0.840   6.290   7.748
29791WAT     H189615   0.828   6.343   7.664
29791WAT     H289616   0.780   6.326   7.819
29792WAT      O89617   2.817   0.231   8.890
29792WAT     H189618   2.773   0.298   8.831
29792WAT     H289619   2.915   0.227   8.869
29793WAT      O89620   3.756   1.754   3.835
29793WAT     H189621   3.768   1.660   3.804
29793WAT     H289622   3.833   1.810   3.803
29794WAT      O89623   7.805   3.635   5.626
29794WAT     H189624   7.850   3.722   5.647
29794WAT     H289625   7.710   3.638   5.659
29795WAT      O89626   1.528   7.383   2.103
29795WAT     H189627   1.564   7.290   2.095
29795WAT     H289628   1.463   7.400   2.029
29796WAT      O89629   0.372   4.189   0.185
29796WAT     H189630   0.328   4.201   0.274
29796WAT     H289631   0.392   4.092   0.170
29797WAT      O89632   8.671   9.238   4.889
29797WAT     H189633   8.725   9.321   4.876
29797WAT     H289634   8.710   9.164   4.836
29798WAT      O89635   0.406   3.326   6.273
29798WAT     H189636   0.363   3.237   6.259
29798WAT     H289637   0.364   3.371   6.352
29799WAT      O89638   1.761   7.850   0.083
29799WAT     H189639   1.722   7.920   0.144
29799WAT     H289640   1.817   7.787   0.136
29800WAT      O89641   0.841   2.710   5.136
29800WAT     H189642   0.912   2.656   5.182
29800WAT     H289643   0.861   2.713   5.038
29801WAT      O89644   7.720   2.750   9.531
29801WAT     H189645   7.764   2.781   9.447
29801WAT     H289646   7.628   2.790   9.537
29802WAT      O89647   7.313   7.393   3.432
29802WAT     H189648   7.251   7.429   3.363
29802WAT     H289649   7.272   7.403   3.523
29803WAT      O89650   6.321   3.586   2.942
29803WAT     H189651   6.279   3.666   2.898
29803WAT     H289652   6.355   3.611   3.032
29804WAT      O89653   1.765   0.379   2.596
29804WAT     H189654   1.728   0.348   2.508
29804WAT     H289655   1.851   0.332   2.614
29805WAT      O89656   5.596   5.680   7.330
29805WAT     H189657   5.666   5.752   7.336
29805WAT     H289658   5.641   5.591   7.319
29806WAT      O89659   3.444   4.870   6.743
29806WAT     H189660   3.448   4.819   6.657
29806WAT     H289661   3.512   4.834   6.807
29807WAT      O89662   8.838   3.810   2.977
29807WAT     H189663   8.850   3.720   2.935
29807WAT     H289664   8.914   3.870   2.952
29808WAT      O89665   3.744   3.497   5.484
29808WAT     H189666   3.835   3.465   5.510
29808WAT     H289667   3.741   3.596   5.489
29809WAT      O89668   6.464   7.602   0.086
29809WAT     H189669   6.376   7.643   0.109
29809WAT     H289670   6.534   7.633   0.150
29810WAT      O89671   7.460   1.075   1.672
29810WAT     H189672   7.517   1.157   1.667
29810WAT     H289673   7.392   1.087   1.744
29811WAT      O89674   9.370   3.904   6.447
29811WAT     H189675   9.326   3.941   6.529
29811WAT     H289676   9.361   3.805   6.446
29812WAT      O89677   4.648   6.078   8.341
29812WAT     H189678   4.748   6.078   8.346
29812WAT     H289679   4.616   5.985   8.321
29813WAT      O89680   8.377   8.979   4.711
29813WAT     H189681   8.402   9.075   4.721
29813WAT     H289682   8.456   8.927   4.679
29814WAT      O89683   2.203   3.313   8.901
29814WAT     H189684   2.232   3.344   8.810
29814WAT     H289685   2.262   3.354   8.970
29815WAT      O89686   4.390   3.195   4.272
29815WAT     H189687   4.387   3.294   4.265
29815WAT     H289688   4.462   3.168   4.336
29816WAT      O89689   7.444   2.146   7.268
29816WAT     H189690   7.519   2.183   7.323
29816WAT     H289691   7.461   2.049   7.250
29817WAT      O89692   2.394   6.196   3.541
29817WAT     H189693   2.447   6.130   3.594
29817WAT     H289694   2.442   6.218   3.457
29818WAT      O89695   8.570   6.287   3.800
29818WAT     H189696   8.543   6.349   3.726
29818WAT     H289697   8.581   6.195   3.764
29819WAT      O89698   9.165   1.577   9.832
29819WAT     H189699   9.240   1.516   9.806
29819WAT     H289700   9.202   1.656   9.882
29820WAT      O89701   4.903   5.159   7.522
29820WAT     H189702   4.938   5.085   7.580
29820WAT     H289703   4.874   5.121   7.434
29821WAT      O89704   7.977   8.814   3.609
29821WAT     H189705   7.950   8.812   3.513
29821WAT     H289706   7.904   8.855   3.663
29822WAT      O89707   4.132   8.064   0.108
29822WAT     H189708   4.091   8.130   0.045
29822WAT     H289709   4.065   8.037   0.177
29823WAT      O89710   6.223   2.178   6.393
29823WAT     H189711   6.318   2.184   6.361
29823WAT     H289712   6.203   2.084   6.419
29824WAT      O89713   0.005   2.784   7.766
29824WAT     H189714   0.006   2.687   7.792
29824WAT     H289715   0.031   2.793   7.670
29825WAT      O89716   9.587   9.815   2.398
29825WAT     H189717   9.595   9.908   2.434
29825WAT     H289718   9.517   9.766   2.450
29826WAT      O89719   0.391   7.331   0.026
29826WAT     H189720   0.392   7.399   0.099
29826WAT     H289721   0.324   7.260   0.048
29827WAT      O89722   6.175   2.085   8.995
29827WAT     H189723   6.130   2.100   8.907
29827WAT     H289724   6.182   1.986   9.012
29828WAT      O89725   1.666   7.219   2.846
29828WAT     H189726   1.705   7.290   2.788
29828WAT     H289727   1.697   7.129   2.814
29829WAT      O89728   8.359   8.186   4.989
29829WAT     H189729   8.330   8.268   4.941
29829WAT     H289730   8.402   8.211   5.076
29830WAT      O89731   1.772   4.416   1.144
29830WAT     H189732   1.820   4.364   1.215
29830WAT     H289733   1.822   4.501   1.127
29831WAT      O89734   6.844   5.852   2.251
29831WAT     H189735   6.935   5.877   2.284
29831WAT     H289736   6.852   5.778   2.184
29832WAT      O89737   2.514   4.488   6.858
29832WAT     H189738   2.567   4.482   6.774
29832WAT     H289739   2.418   4.506   6.836
29833WAT      O89740   2.622   7.298   3.804
29833WAT     H189741   2.709   7.267   3.843
29833WAT     H289742   2.609   7.395   3.826
29834WAT      O89743   1.107   7.728   0.054
29834WAT     H189744   1.028   7.685   0.012
29834WAT     H289745   1.117   7.694   0.148
29835WAT      O89746   7.303   9.643   7.976
29835WAT     H189747   7.353   9.637   7.890
29835WAT     H289748   7.226   9.579   7.973
29836WAT      O89749   8.353   9.343   5.852
29836WAT     H189750   8.428   9.361   5.915
29836WAT     H289751   8.383   9.277   5.783
29837WAT      O89752   5.142   7.000   8.833
29837WAT     H189753   5.070   6.931   8.825
29837WAT     H289754   5.144   7.033   8.928
29838WAT      O89755   1.777   3.477   4.571
29838WAT     H189756   1.805   3.572   4.559
29838WAT     H289757   1.858   3.419   4.583
29839WAT      O89758   3.830   5.682   7.769
29839WAT     H189759   3.883   5.758   7.732
29839WAT     H289760   3.780   5.713   7.850
29840WAT      O89761   3.099   2.820   9.284
29840WAT     H189762   3.173   2.802   9.350
29840WAT     H289763   3.011   2.809   9.330
29841WAT      O89764   1.760   6.970   6.044
29841WAT     H189765   1.805   7.011   5.965
29841WAT     H289766   1.741   6.874   6.026
29842WAT      O89767   2.012   0.376   0.581
29842WAT     H189768   2.082   0.305   0.590
29842WAT     H289769   2.014   0.412   0.488
29843WAT      O89770   9.148   2.965   4.549
29843WAT     H189771   9.154   2.870   4.519
29843WAT     H289772   9.183   2.973   4.642
29844WAT      O89773   6.976   7.141   2.125
29844WAT     H189774   6.893   7.183   2.090
29844WAT     H289775   6.978   7.149   2.225
29845WAT      O89776   0.385   1.584   6.216
29845WAT     H189777   0.450   1.509   6.210
29845WAT     H289778   0.434   1.669   6.235
29846WAT      O89779   1.840   4.391   6.655
29846WAT     H189780   1.785   4.310   6.631
29846WAT     H289781   1.806   4.428   6.742
29847WAT      O89782   2.035   6.062   1.806
29847WAT     H189783   1.943   6.057   1.767
29847WAT     H289784   2.048   5.989   1.873
29848WAT      O89785   6.082   0.623   6.293
29848WAT     H189786   6.084   0.523   6.283
29848WAT     H289787   5.995   0.650   6.335
29849WAT      O89788   7.553   4.059   9.488
29849WAT     H189789   7.484   4.014   9.432
29849WAT     H289790   7.644   4.027   9.462
29850WAT      O89791   4.081   4.181   2.872
29850WAT     H189792   4.113   4.258   2.927
29850WAT     H289793   4.098   4.095   2.922
29851WAT      O89794   6.922   9.104   6.290
29851WAT     H189795   6.869   9.138   6.368
29851WAT     H289796   6.981   9.177   6.256
29852WAT      O89797   7.251   9.323   7.257
29852WAT     H189798   7.247   9.346   7.354
29852WAT     H289799   7.252   9.224   7.246
29853WAT      O89800   3.200   3.766   5.604
29853WAT     H189801   3.125   3.792   5.664
29853WAT     H289802   3.167   3.760   5.510
29854WAT      O89803   1.167   7.780   5.307
29854WAT     H189804   1.173   7.867   5.355
29854WAT     H289805   1.080   7.775   5.259
29855WAT      O89806   3.532   3.036   4.472
29855WAT     H189807   3.446   3.069   4.434
29855WAT     H289808   3.594   3.010   4.398
29856WAT      O89809   2.157   7.121   4.550
29856WAT     H189810   2.170   7.122   4.451
29856WAT     H289811   2.104   7.200   4.578
29857WAT      O89812   5.892   4.436   9.548
29857WAT     H189813   5.965   4.399   9.605
29857WAT     H289814   5.829   4.489   9.604
29858WAT      O89815   5.319   4.222   7.406
29858WAT     H189816   5.383   4.218   7.329
29858WAT     H289817   5.363   4.184   7.487
29859WAT      O89818   7.566   7.561   4.834
29859WAT     H189819   7.488   7.501   4.850
29859WAT     H289820   7.641   7.509   4.795
29860WAT      O89821   2.395   8.352   3.535
29860WAT     H189822   2.325   8.413   3.570
29860WAT     H289823   2.484   8.376   3.575
29861WAT      O89824   0.014   0.462   5.136
29861WAT     H189825   0.068   0.425   5.212
29861WAT     H289826   0.023   0.401   5.057
29862WAT      O89827   4.171   4.353   3.047
29862WAT     H189828   4.139   4.404   3.126
29862WAT     H289829   4.242   4.406   2.999
29863WAT      O89830   2.318   0.980   5.600
29863WAT     H189831   2.275   0.959   5.512
29863WAT     H289832   2.269   0.933   5.673
29864WAT      O89833   8.973   2.200   3.683
29864WAT     H189834   8.875   2.213   3.700
29864WAT     H289835   8.987   2.177   3.587
29865WAT      O89836   2.272   3.357   2.319
29865WAT     H189837   2.228   3.282   2.369
29865WAT     H289838   2.349   3.321   2.266
29866WAT      O89839   0.405   4.395   7.770
29866WAT     H189840   0.426   4.467   7.705
29866WAT     H289841   0.402   4.307   7.722
29867WAT      O89842   3.772   3.815   6.443
29867WAT     H189843   3.686   3.865   6.443
29867WAT     H289844   3.815   3.823   6.534
29868WAT      O89845   2.171   0.942   1.742
29868WAT     H189846   2.233   0.866   1.722
29868WAT     H289847   2.139   0.934   1.837
29869WAT      O89848   3.441   0.422   9.384
29869WAT     H189849   3.375   0.425   9.309
29869WAT     H289850   3.531   0.395   9.349
29870WAT      O89851   8.583   8.870   7.229
29870WAT     H189852   8.591   8.951   7.170
29870WAT     H289853   8.549   8.897   7.319
29871WAT      O89854   5.692   3.299   8.670
29871WAT     H189855   5.632   3.291   8.590
29871WAT     H289856   5.780   3.257   8.650
29872WAT      O89857   3.087   2.378   6.619
29872WAT     H189858   3.062   2.384   6.522
29872WAT     H289859   3.183   2.405   6.631
29873WAT      O89860   4.237   7.155   9.633
29873WAT     H189861   4.285   7.106   9.560
29873WAT     H289862   4.163   7.097   9.668
29874WAT      O89863   0.767   8.017   7.165
29874WAT     H189864   0.841   8.033   7.230
29874WAT     H289865   0.709   8.098   7.159
29875WAT      O89866   6.489   2.628   7.981
29875WAT     H189867   6.498   2.638   8.080
29875WAT     H289868   6.487   2.718   7.938
29876WAT      O89869   2.785   0.109   6.333
29876WAT     H189870   2.839   0.163   6.268
29876WAT     H289871   2.708   0.066   6.284
29877WAT      O89872   1.608   0.429   2.158
29877WAT     H189873   1.530   0.418   2.097
29877WAT     H289874   1.614   0.524   2.187
29878WAT      O89875   0.657   0.995   1.434
29878WAT     H189876   0.653   1.039   1.345
29878WAT     H289877   0.750   0.961   1.450
29879WAT      O89878   5.744   3.861   9.755
29879WAT     H189879   5.669   3.846   9.691
29879WAT     H289880   5.715   3.835   9.847
29880WAT      O89881   4.706   3.828   8.921
29880WAT     H189882   4.750   3.855   8.835
29880WAT     H289883   4.761   3.758   8.966
29881WAT      O89884   1.824   1.079   9.766
29881WAT     H189885   1.908   1.099   9.817
29881WAT     H289886   1.816   1.144   9.690
29882WAT      O89887   8.030   2.658   9.771
29882WAT     H189888   8.111   2.604   9.749
29882WAT     H289889   7.952   2.622   9.721
29883WAT      O89890   0.536   9.047   6.811
29883WAT     H189891   0.574   9.126   6.859
29883WAT     H289892   0.439   9.038   6.835
29884WAT      O89893   4.264   2.098   2.667
29884WAT     H189894   4.308   2.159   2.602
29884WAT     H289895   4.333   2.049   2.720
29885WAT      O89896   5.123   3.110   7.936
29885WAT     H189897   5.210   3.160   7.932
29885WAT     H289898   5.061   3.156   7.999
29886WAT      O89899   9.607   7.470   1.664
29886WAT     H189900   9.558   7.413   1.598
29886WAT     H289901   9.579   7.446   1.757
29887WAT      O89902   9.235   0.091   9.716
29887WAT     H189903   9.155   0.090   9.656
29887WAT     H289904   9.217   0.034   9.796
29888WAT      O89905   2.266   1.044   0.663
29888WAT     H189906   2.257   0.954   0.705
29888WAT     H289907   2.238   1.114   0.729
29889WAT      O89908   9.870   6.107   5.383
29889WAT     H189909   9.805   6.119   5.458
29889WAT     H289910   9.821   6.113   5.296
29890WAT      O89911   7.563   4.858   6.674
29890WAT     H189912   7.632   4.917   6.634
29890WAT     H289913   7.583   4.762   6.652
29891WAT      O89914   7.041   0.129   9.366
29891WAT     H189915   6.969   0.160   9.304
29891WAT     H289916   7.000   0.078   9.442
29892WAT      O89917   8.446   2.122   5.766
29892WAT     H189918   8.512   2.092   5.836
29892WAT     H289919   8.364   2.065   5.771
29893WAT      O89920   3.765   8.076   7.548
29893WAT     H189921   3.843   8.026   7.510
29893WAT     H289922   3.773   8.173   7.525
29894WAT      O89923   8.097   3.193   1.381
29894WAT     H189924   8.036   3.134   1.327
29894WAT     H289925   8.043   3.255   1.437
29895WAT      O89926   5.705   5.127   1.954
29895WAT     H189927   5.782   5.158   2.009
29895WAT     H289928   5.643   5.204   1.937
29896WAT      O89929   5.652   8.950   9.228
29896WAT     H189930   5.737   9.002   9.244
29896WAT     H289931   5.576   9.014   9.216
29897WAT      O89932   0.083   0.989   6.827
29897WAT     H189933   0.164   0.931   6.830
29897WAT     H289934   0.080   1.047   6.908
29898WAT      O89935   3.814   5.166   5.587
29898WAT     H189936   3.722   5.135   5.611
29898WAT     H289937   3.837   5.135   5.494
29899WAT      O89938   4.967   3.931   3.019
29899WAT     H189939   4.908   3.900   2.944
29899WAT     H289940   4.918   3.919   3.106
29900WAT      O89941   3.015   3.902   5.798
29900WAT     H189942   3.074   3.955   5.859
29900WAT     H289943   2.933   3.874   5.848
29901WAT      O89944   5.762   0.923   6.157
29901WAT     H189945   5.808   1.011   6.160
29901WAT     H289946   5.678   0.927   6.211
29902WAT      O89947   8.385   2.797   6.187
29902WAT     H189948   8.321   2.812   6.111
29902WAT     H289949   8.417   2.702   6.185
29903WAT      O89950   9.638   4.260   9.353
29903WAT     H189951   9.648   4.287   9.258
29903WAT     H289952   9.554   4.207   9.364
29904WAT      O89953   5.950   4.590   9.334
29904WAT     H189954   5.881   4.640   9.282
29904WAT     H289955   5.908   4.556   9.419
29905WAT      O89956   5.031   3.224   3.393
29905WAT     H189957   4.942   3.241   3.436
29905WAT     H289958   5.086   3.166   3.452
29906WAT      O89959   6.256   2.097   0.102
29906WAT     H189960   6.191   2.066   0.171
29906WAT     H289961   6.219   2.178   0.056
29907WAT      O89962   0.611   9.473   7.818
29907WAT     H189963   0.577   9.506   7.907
29907WAT     H289964   0.556   9.513   7.745
29908WAT      O89965   6.418   3.578   1.931
29908WAT     H189966   6.396   3.542   2.021
29908WAT     H289967   6.495   3.642   1.938
29909WAT      O89968   5.468   2.451   4.619
29909WAT     H189969   5.480   2.459   4.718
29909WAT     H289970   5.537   2.506   4.572
29910WAT      O89971   4.259   4.501   3.665
29910WAT     H189972   4.325   4.426   3.660
29910WAT     H289973   4.298   4.582   3.621
29911WAT      O89974   0.081   4.522   5.875
29911WAT     H189975   0.041   4.558   5.790
29911WAT     H289976   0.079   4.593   5.945
29912WAT      O89977   6.284   9.231   7.340
29912WAT     H189978   6.379   9.243   7.312
29912WAT     H289979   6.251   9.142   7.307
29913WAT      O89980   6.128   1.154   3.556
29913WAT     H189981   6.209   1.206   3.581
29913WAT     H289982   6.125   1.068   3.607
29914WAT      O89983   9.154   4.341   3.426
29914WAT     H189984   9.068   4.390   3.441
29914WAT     H289985   9.201   4.328   3.513
29915WAT      O89986   3.084   9.371   8.404
29915WAT     H189987   3.145   9.375   8.483
29915WAT     H289988   3.025   9.451   8.402
29916WAT      O89989   1.417   4.583   4.953
29916WAT     H189990   1.327   4.591   4.997
29916WAT     H289991   1.405   4.572   4.854
29917WAT      O89992   2.357   6.234   9.032
29917WAT     H189993   2.392   6.140   9.034
29917WAT     H289994   2.361   6.269   8.938
29918WAT      O89995   6.203   6.320   6.585
29918WAT     H189996   6.216   6.248   6.517
29918WAT     H289997   6.168   6.279   6.670
29919WAT      O89998   4.433   0.629   0.680
29919WAT     H189999   4.516   0.630   0.623
29919WAT     H290000   4.457   0.599   0.773
29920WAT      O90001   0.284   8.123   1.427
29920WAT     H190002   0.314   8.035   1.392
29920WAT     H290003   0.253   8.114   1.521
29921WAT      O90004   8.291   6.368   5.853
29921WAT     H190005   8.264   6.427   5.930
29921WAT     H290006   8.214   6.358   5.790
29922WAT      O90007   8.993   8.190   7.319
29922WAT     H190008   8.900   8.193   7.282
29922WAT     H290009   9.029   8.283   7.323
29923WAT      O90010   4.216   8.417   5.806
29923WAT     H190011   4.130   8.467   5.817
29923WAT     H290012   4.240   8.372   5.892
29924WAT      O90013   6.667   4.402   1.585
29924WAT     H190014   6.716   4.318   1.561
29924WAT     H290015   6.697   4.476   1.524
29925WAT      O90016   5.395   6.602   0.639
29925WAT     H190017   5.428   6.545   0.564
29925WAT     H290018   5.304   6.571   0.667
29926WAT      O90019   5.931   0.101   3.568
29926WAT     H190020   5.900   0.175   3.508
29926WAT     H290021   6.016   0.062   3.531
29927WAT      O90022   0.561   5.797   0.384
29927WAT     H190023   0.606   5.708   0.385
29927WAT     H290024   0.462   5.785   0.387
29928WAT      O90025   6.361   3.025   1.570
29928WAT     H190026   6.445   3.051   1.522
29928WAT     H290027   6.351   2.926   1.569
29929WAT      O90028   0.209   5.466   2.644
29929WAT     H190029   0.227   5.418   2.558
29929WAT     H290030   0.246   5.559   2.638
29930WAT      O90031   6.002   8.998   3.481
29930WAT     H190032   6.068   9.053   3.533
29930WAT     H290033   6.038   8.982   3.389
29931WAT      O90034   7.082   7.500   9.608
29931WAT     H190035   7.099   7.448   9.692
29931WAT     H290036   7.073   7.597   9.630
29932WAT      O90037   5.098   0.998   4.203
29932WAT     H190038   5.127   0.921   4.260
29932WAT     H290039   5.166   1.071   4.208
29933WAT      O90040   2.219   1.624   3.681
29933WAT     H190041   2.270   1.571   3.748
29933WAT     H290042   2.217   1.720   3.708
29934WAT      O90043   6.147   8.141   3.629
29934WAT     H190044   6.068   8.190   3.590
29934WAT     H290045   6.202   8.103   3.555
29935WAT      O90046   4.068   6.415   3.327
29935WAT     H190047   4.126   6.341   3.361
29935WAT     H290048   4.011   6.381   3.253
29936WAT      O90049   8.957   5.619   4.277
29936WAT     H190050   9.021   5.680   4.230
29936WAT     H290051   8.928   5.662   4.363
29937WAT      O90052   5.936   7.808   8.643
29937WAT     H190053   6.006   7.741   8.668
29937WAT     H290054   5.979   7.893   8.614
29938WAT      O90055   3.383   5.863   2.074
29938WAT     H190056   3.298   5.873   2.126
29938WAT     H290057   3.377   5.784   2.014
29939WAT      O90058   3.966   3.814   0.661
29939WAT     H190059   3.893   3.822   0.593
29939WAT     H290060   3.991   3.906   0.693
29940WAT      O90061   7.042   1.177   4.204
29940WAT     H190062   6.977   1.170   4.128
29940WAT     H290063   7.076   1.085   4.227
29941WAT      O90064   3.230   0.413   3.861
29941WAT     H190065   3.143   0.449   3.826
29941WAT     H290066   3.212   0.357   3.942
29942WAT      O90067   9.794   9.424   3.255
29942WAT     H190068   9.802   9.326   3.239
29942WAT     H290069   9.821   9.474   3.172
29943WAT      O90070   0.633   2.655   9.509
29943WAT     H190071   0.578   2.594   9.565
29943WAT     H290072   0.574   2.711   9.451
29944WAT      O90073   5.043   7.625   5.222
29944WAT     H190074   4.972   7.600   5.157
29944WAT     H290075   5.123   7.566   5.207
29945WAT      O90076   7.044   7.937   3.772
29945WAT     H190077   7.058   8.027   3.730
29945WAT     H290078   7.122   7.914   3.829
29946WAT      O90079   4.993   7.119   4.545
29946WAT     H190080   4.926   7.145   4.614
29946WAT     H290081   4.990   7.185   4.469
29947WAT      O90082   5.574   8.769   0.264
29947WAT     H190083   5.477   8.758   0.284
29947WAT     H290084   5.584   8.810   0.173
29948WAT      O90085   6.774   1.406   8.669
29948WAT     H190086   6.705   1.340   8.638
29948WAT     H290087   6.728   1.485   8.710
29949WAT      O90088   9.376   8.431   7.457
29949WAT     H190089   9.409   8.503   7.517
29949WAT     H290090   9.415   8.443   7.366
29950WAT      O90091   8.937   2.980   1.068
29950WAT     H190092   8.981   2.932   1.144
29950WAT     H290093   8.884   3.058   1.103
29951WAT      O90094   2.774   0.958   0.693
29951WAT     H190095   2.852   0.930   0.749
29951WAT     H290096   2.796   0.945   0.596
29952WAT      O90097   1.125   6.402   0.812
29952WAT     H190098   1.120   6.494   0.850
29952WAT     H290099   1.220   6.379   0.791
29953WAT      O90100   4.182   7.661   1.519
29953WAT     H190101   4.252   7.645   1.449
29953WAT     H290102   4.091   7.651   1.479
29954WAT      O90103   8.259   0.092   1.238
29954WAT     H190104   8.233   0.047   1.324
29954WAT     H290105   8.226   0.038   1.161
29955WAT      O90106   5.868   9.682   5.359
29955WAT     H190107   5.772   9.701   5.376
29955WAT     H290108   5.892   9.712   5.267
29956WAT      O90109   4.884   8.825   5.053
29956WAT     H190110   4.974   8.827   5.009
29956WAT     H290111   4.822   8.767   5.000
29957WAT      O90112   4.297   5.753   4.366
29957WAT     H190113   4.299   5.745   4.267
29957WAT     H290114   4.346   5.676   4.407
29958WAT      O90115   5.474   7.389   1.171
29958WAT     H190116   5.430   7.299   1.161
29958WAT     H290117   5.452   7.446   1.092
29959WAT      O90118   7.514   1.266   3.985
29959WAT     H190119   7.608   1.255   3.951
29959WAT     H290120   7.509   1.346   4.044
29960WAT      O90121   4.860   2.371   0.864
29960WAT     H190122   4.875   2.468   0.845
29960WAT     H290123   4.804   2.331   0.790
29961WAT      O90124   9.612   8.633   4.764
29961WAT     H190125   9.612   8.557   4.830
29961WAT     H290126   9.679   8.616   4.693
29962WAT      O90127   8.592   6.489   8.564
29962WAT     H190128   8.569   6.477   8.467
29962WAT     H290129   8.678   6.443   8.584
29963WAT      O90130   6.779   6.716   4.887
29963WAT     H190131   6.731   6.804   4.880
29963WAT     H290132   6.797   6.681   4.796
29964WAT      O90133   1.669   7.344   7.235
29964WAT     H190134   1.611   7.310   7.161
29964WAT     H290135   1.623   7.421   7.280
29965WAT      O90136   1.496   7.524   7.667
29965WAT     H190137   1.444   7.553   7.747
29965WAT     H290138   1.586   7.569   7.668
29966WAT      O90139   6.793   9.271   5.699
29966WAT     H190140   6.720   9.336   5.682
29966WAT     H290141   6.842   9.297   5.783
29967WAT      O90142   3.093   0.546   2.162
29967WAT     H190143   3.192   0.560   2.157
29967WAT     H290144   3.052   0.616   2.220
29968WAT      O90145   3.481   7.422   4.283
29968WAT     H190146   3.519   7.341   4.238
29968WAT     H290147   3.406   7.459   4.228
29969WAT      O90148   0.655   3.964   9.836
29969WAT     H190149   0.563   3.962   9.877
29969WAT     H290150   0.693   3.871   9.835
29970WAT      O90151   5.978   2.669   6.948
29970WAT     H190152   5.924   2.589   6.974
29970WAT     H290153   6.026   2.650   6.862
29971WAT      O90154   9.643   7.828   1.634
29971WAT     H190155   9.666   7.783   1.548
29971WAT     H290156   9.570   7.777   1.680
29972WAT      O90157   9.432   5.741   2.466
29972WAT     H190158   9.376   5.733   2.549
29972WAT     H290159   9.411   5.665   2.405
29973WAT      O90160   4.559   6.045   2.061
29973WAT     H190161   4.489   6.052   1.991
29973WAT     H290162   4.650   6.052   2.019
29974WAT      O90163   1.815   8.175   7.429
29974WAT     H190164   1.882   8.243   7.460
29974WAT     H290165   1.836   8.149   7.335
29975WAT      O90166   0.577   8.221   7.138
29975WAT     H190167   0.567   8.253   7.232
29975WAT     H290168   0.497   8.168   7.112
29976WAT      O90169   0.006   3.492   1.894
29976WAT     H190170  -0.093   3.502   1.890
29976WAT     H290171   0.046   3.576   1.932
29977WAT      O90172   5.658   8.931   8.676
29977WAT     H190173   5.560   8.932   8.693
29977WAT     H290174   5.676   8.933   8.578
29978WAT      O90175   1.761   6.298   7.230
29978WAT     H190176   1.843   6.355   7.240
29978WAT     H290177   1.766   6.246   7.145
29979WAT      O90178   6.687   1.024   5.127
29979WAT     H190179   6.681   1.080   5.044
29979WAT     H290180   6.756   1.063   5.188
29980WAT      O90181   4.934   4.510   1.030
29980WAT     H190182   4.963   4.540   0.939
29980WAT     H290183   4.926   4.410   1.031
29981WAT      O90184   8.809   0.766   7.804
29981WAT     H190185   8.890   0.801   7.852
29981WAT     H290186   8.814   0.667   7.797
29982WAT      O90187   2.038   9.554   7.372
29982WAT     H190188   2.111   9.603   7.323
29982WAT     H290189   1.973   9.517   7.307
29983WAT      O90190   5.013   6.158   8.965
29983WAT     H190191   4.982   6.064   8.955
29983WAT     H290192   4.955   6.218   8.909
29984WAT      O90193   6.701   3.163   0.179
29984WAT     H190194   6.635   3.088   0.176
29984WAT     H290195   6.789   3.128   0.209
29985WAT      O90196   3.359   8.735   3.317
29985WAT     H190197   3.418   8.655   3.308
29985WAT     H290198   3.346   8.758   3.413
29986WAT      O90199   2.504   1.745   5.847
29986WAT     H190200   2.584   1.695   5.816
29986WAT     H290201   2.441   1.683   5.893
29987WAT      O90202   0.185   3.290   0.806
29987WAT     H190203   0.218   3.199   0.782
29987WAT     H290204   0.106   3.313   0.750
29988WAT      O90205   7.471   5.498   1.191
29988WAT     H190206   7.489   5.407   1.154
29988WAT     H290207   7.461   5.492   1.290
29989WAT      O90208   4.298   8.109   1.465
29989WAT     H190209   4.365   8.183   1.464
29989WAT     H290210   4.206   8.146   1.479
29990WAT      O90211   6.411   0.857   5.690
29990WAT     H190212   6.354   0.907   5.624
29990WAT     H290213   6.388   0.887   5.783
29991WAT      O90214   4.521   3.909   4.109
29991WAT     H190215   4.500   3.966   4.029
29991WAT     H290216   4.620   3.900   4.118
29992WAT      O90217   4.695   1.625   3.442
29992WAT     H190218   4.711   1.591   3.349
29992WAT     H290219   4.781   1.663   3.478
29993WAT      O90220   7.825   2.635   1.422
29993WAT     H190221   7.739   2.615   1.470
29993WAT     H290222   7.805   2.668   1.330
29994WAT      O90223   7.516   1.698   3.800
29994WAT     H190224   7.610   1.664   3.798
29994WAT     H290225   7.483   1.699   3.895
29995WAT      O90226   7.619   0.623   6.945
29995WAT     H190227   7.637   0.696   6.878
29995WAT     H290228   7.689   0.552   6.936
29996WAT      O90229   9.711   7.533   0.375
29996WAT     H190230   9.716   7.604   0.305
29996WAT     H290231   9.616   7.520   0.403
29997WAT      O90232   3.828   3.791   1.084
29997WAT     H190233   3.733   3.782   1.115
29997WAT     H290234   3.829   3.802   0.984
29998WAT      O90235   9.144   1.079   5.288
29998WAT     H190236   9.125   1.155   5.350
29998WAT     H290237   9.058   1.044   5.251
29999WAT      O90238   0.456   0.060   3.617
29999WAT     H190239   0.489  -0.029   3.648
29999WAT     H290240   0.379   0.089   3.673
30000WAT      O90241   6.391   3.750   4.592
30000WAT     H190242   6.459   3.804   4.640
30000WAT     H290243   6.436   3.692   4.524
30001WAT      O90244   1.392   6.665   3.040
30001WAT     H190245   1.323   6.733   3.015
30001WAT     H290246   1.475   6.712   3.071
30002WAT      O90247   8.456   3.372   0.005
30002WAT     H190248   8.369   3.366   0.054
30002WAT     H290249   8.516   3.436   0.053
30003WAT      O90250   1.610   1.687   6.778
30003WAT     H190251   1.672   1.608   6.778
30003WAT     H290252   1.627   1.743   6.859
30004WAT      O90253   3.757   3.850   9.237
30004WAT     H190254   3.839   3.835   9.293
30004WAT     H290255   3.723   3.943   9.252
30005WAT      O90256   3.061   8.343   7.171
30005WAT     H190257   3.047   8.439   7.150
30005WAT     H290258   3.158   8.326   7.186
30006WAT      O90259   9.418   5.295   1.627
30006WAT     H190260   9.389   5.229   1.557
30006WAT     H290261   9.354   5.372   1.629
30007WAT      O90262   5.396   9.768   7.021
30007WAT     H190263   5.417   9.861   7.049
30007WAT     H290264   5.477   9.710   7.034
30008WAT      O90265   9.628   4.348   4.415
30008WAT     H190266   9.593   4.279   4.478
30008WAT     H290267   9.637   4.309   4.323
30009WAT      O90268   2.587   9.517   8.937
30009WAT     H190269   2.539   9.596   8.975
30009WAT     H290270   2.577   9.516   8.837
30010WAT      O90271   6.726   5.355   8.155
30010WAT     H190272   6.693   5.422   8.222
30010WAT     H290273   6.826   5.360   8.150
30011WAT      O90274   0.171   4.239   6.170
30011WAT     H190275   0.113   4.185   6.230
30011WAT     H290276   0.260   4.254   6.214
30012WAT      O90277   2.418   1.676   8.978
30012WAT     H190278   2.480   1.732   9.032
30012WAT     H290279   2.452   1.669   8.884
30013WAT      O90280   3.094   1.146   1.121
30013WAT     H190281   3.034   1.221   1.093
30013WAT     H290282   3.143   1.171   1.204
30014WAT      O90283   7.928   9.345   6.516
30014WAT     H190284   7.846   9.304   6.475
30014WAT     H290285   7.945   9.302   6.605
30015WAT      O90286   6.935   0.236   3.296
30015WAT     H190287   6.905   0.227   3.391
30015WAT     H290288   6.882   0.174   3.238
30016WAT      O90289   3.006   8.409   0.543
30016WAT     H190290   2.980   8.316   0.570
30016WAT     H290291   2.923   8.464   0.529
30017WAT      O90292   2.379   5.589   0.353
30017WAT     H190293   2.403   5.512   0.294
30017WAT     H290294   2.323   5.654   0.302
30018WAT      O90295   0.068   0.307   4.891
30018WAT     H190296   0.026   0.227   4.934
30018WAT     H290297   0.167   0.305   4.907
30019WAT      O90298   8.520   5.012   8.425
30019WAT     H190299   8.488   4.937   8.482
30019WAT     H290300   8.566   4.976   8.344
30020WAT      O90301   5.209   8.606   5.068
30020WAT     H190302   5.246   8.684   5.119
30020WAT     H290303   5.153   8.640   4.993
30021WAT      O90304   3.538   6.837   1.033
30021WAT     H190305   3.554   6.924   1.078
30021WAT     H290306   3.526   6.765   1.102
30022WAT      O90307   6.707   3.034   1.762
30022WAT     H190308   6.742   3.117   1.718
30022WAT     H290309   6.612   3.049   1.789
30023WAT      O90310   8.628   8.311   9.805
30023WAT     H190311   8.703   8.319   9.739
30023WAT     H290312   8.618   8.216   9.833
30024WAT      O90313   7.056   4.916   5.554
30024WAT     H190314   7.063   4.998   5.497
30024WAT     H290315   7.139   4.861   5.544
30025WAT      O90316   1.043   6.139   2.886
30025WAT     H190317   1.039   6.103   2.980
30025WAT     H290318   0.991   6.224   2.880
30026WAT      O90319   2.168   4.086   1.285
30026WAT     H190320   2.117   4.002   1.303
30026WAT     H290321   2.216   4.114   1.367
30027WAT      O90322   8.989   6.247   2.868
30027WAT     H190323   8.966   6.201   2.953
30027WAT     H290324   8.945   6.337   2.865
30028WAT      O90325   2.642   0.653   5.841
30028WAT     H190326   2.702   0.728   5.868
30028WAT     H290327   2.646   0.640   5.742
30029WAT      O90328   1.353   5.355   9.033
30029WAT     H190329   1.313   5.269   9.001
30029WAT     H290330   1.441   5.370   8.988
30030WAT      O90331   3.832   6.618   7.688
30030WAT     H190332   3.773   6.698   7.680
30030WAT     H290333   3.900   6.618   7.615
30031WAT      O90334   6.403   0.275   9.895
30031WAT     H190335   6.420   0.237   9.804
30031WAT     H290336   6.376   0.371   9.886
30032WAT      O90337   7.253   8.886   3.862
30032WAT     H190338   7.172   8.931   3.899
30032WAT     H290339   7.331   8.902   3.923
30033WAT      O90340   5.186   7.236   0.321
30033WAT     H190341   5.204   7.320   0.271
30033WAT     H290342   5.216   7.157   0.267
30034WAT      O90343   9.106   5.140   0.605
30034WAT     H190344   9.066   5.072   0.666
30034WAT     H290345   9.133   5.221   0.657
30035WAT      O90346   6.060   8.686   7.759
30035WAT     H190347   5.992   8.742   7.711
30035WAT     H290348   6.134   8.664   7.696
30036WAT      O90349   7.216   0.809   5.429
30036WAT     H190350   7.159   0.888   5.448
30036WAT     H290351   7.309   0.838   5.408
30037WAT      O90352   4.326   0.218   1.359
30037WAT     H190353   4.386   0.222   1.280
30037WAT     H290354   4.272   0.303   1.365
30038WAT      O90355   3.166   0.166   8.148
30038WAT     H190356   3.118   0.079   8.137
30038WAT     H290357   3.118   0.238   8.097
30039WAT      O90358   2.440   1.815   2.044
30039WAT     H190359   2.346   1.807   2.010
30039WAT     H290360   2.438   1.843   2.140
30040WAT      O90361   3.354   1.191   3.371
30040WAT     H190362   3.273   1.142   3.403
30040WAT     H290363   3.373   1.267   3.433
30041WAT      O90364   1.740   2.883   4.493
30041WAT     H190365   1.783   2.809   4.442
30041WAT     H290366   1.780   2.889   4.584
30042WAT      O90367   5.573   1.998   7.065
30042WAT     H190368   5.581   2.093   7.035
30042WAT     H290369   5.493   1.989   7.124
30043WAT      O90370   9.255   7.089   7.168
30043WAT     H190371   9.271   7.145   7.086
30043WAT     H290372   9.300   7.132   7.246
30044WAT      O90373   3.823   2.638   1.242
30044WAT     H190374   3.793   2.634   1.147
30044WAT     H290375   3.745   2.663   1.300
30045WAT      O90376   3.845   5.975   5.783
30045WAT     H190377   3.764   6.022   5.749
30045WAT     H290378   3.843   5.879   5.753
30046WAT      O90379   4.378   5.604   8.335
30046WAT     H190380   4.303   5.558   8.286
30046WAT     H290381   4.344   5.689   8.375
30047WAT      O90382   9.558   3.367   7.185
30047WAT     H190383   9.625   3.415   7.129
30047WAT     H290384   9.532   3.423   7.264
30048WAT      O90385   3.442   5.254   1.005
30048WAT     H190386   3.540   5.265   1.021
30048WAT     H290387   3.401   5.205   1.082
30049WAT      O90388   6.068   9.504   1.095
30049WAT     H190389   6.027   9.574   1.037
30049WAT     H290390   6.035   9.512   1.188
30050WAT      O90391   5.907   2.068   6.242
30050WAT     H190392   6.004   2.059   6.218
30050WAT     H290393   5.894   2.153   6.293
30051WAT      O90394   4.142   0.073   6.369
30051WAT     H190395   4.214   0.010   6.397
30051WAT     H290396   4.115   0.130   6.447
30052WAT      O90397   5.972   6.703   9.241
30052WAT     H190398   5.925   6.633   9.294
30052WAT     H290399   5.910   6.739   9.171
30053WAT      O90400   4.949   4.985   9.431
30053WAT     H190401   4.854   4.971   9.459
30053WAT     H290402   5.009   4.933   9.492
30054WAT      O90403   2.933   1.586   6.859
30054WAT     H190404   2.952   1.660   6.923
30054WAT     H290405   2.834   1.577   6.847
30055WAT      O90406   1.782   6.227   2.780
30055WAT     H190407   1.708   6.221   2.846
30055WAT     H290408   1.744   6.240   2.688
30056WAT      O90409   9.281   0.214   6.220
30056WAT     H190410   9.267   0.163   6.136
30056WAT     H290411   9.301   0.150   6.295
30057WAT      O90412   0.325   7.075   3.309
30057WAT     H190413   0.397   7.088   3.377
30057WAT     H290414   0.238   7.107   3.347
30058WAT      O90415   1.554   5.130   6.131
30058WAT     H190416   1.556   5.032   6.152
30058WAT     H290417   1.500   5.145   6.049
30059WAT      O90418   1.457   2.673   6.965
30059WAT     H190419   1.425   2.760   7.003
30059WAT     H290420   1.402   2.649   6.885
30060WAT      O90421   7.266   4.936   7.880
30060WAT     H190422   7.169   4.926   7.858
30060WAT     H290423   7.292   4.870   7.950
30061WAT      O90424   7.620   3.084   3.839
30061WAT     H190425   7.547   3.150   3.854
30061WAT     H290426   7.618   3.014   3.911
30062WAT      O90427   8.616   0.521   2.000
30062WAT     H190428   8.674   0.579   1.943
30062WAT     H290429   8.565   0.457   1.942
30063WAT      O90430   5.008   0.340   7.049
30063WAT     H190431   4.940   0.347   7.122
30063WAT     H290432   5.092   0.301   7.086
30064WAT      O90433   4.296   1.721   4.923
30064WAT     H190434   4.323   1.784   4.996
30064WAT     H290435   4.378   1.673   4.889
30065WAT      O90436   3.111   5.532   7.810
30065WAT     H190437   3.044   5.457   7.807
30065WAT     H290438   3.161   5.536   7.724
30066WAT      O90439   7.837   9.561   2.302
30066WAT     H190440   7.779   9.481   2.310
30066WAT     H290441   7.785   9.643   2.327
30067WAT      O90442   9.407   2.410   6.161
30067WAT     H190443   9.402   2.509   6.172
30067WAT     H290444   9.475   2.373   6.224
30068WAT      O90445   6.027   6.325   0.635
30068WAT     H190446   6.105   6.272   0.602
30068WAT     H290447   5.994   6.284   0.720
30069WAT      O90448   0.482   0.447   1.361
30069WAT     H190449   0.465   0.384   1.285
30069WAT     H290450   0.580   0.467   1.367
30070WAT      O90451   0.400   9.666   6.001
30070WAT     H190452   0.462   9.694   6.075
30070WAT     H290453   0.337   9.742   5.981
30071WAT      O90454   2.203   2.480   5.949
30071WAT     H190455   2.114   2.488   5.993
30071WAT     H290456   2.210   2.392   5.903
30072WAT      O90457   5.828   4.135   5.955
30072WAT     H190458   5.833   4.126   6.054
30072WAT     H290459   5.920   4.136   5.917
30073WAT      O90460   7.926   0.599   4.709
30073WAT     H190461   7.874   0.514   4.705
30073WAT     H290462   7.864   0.676   4.723
30074WAT      O90463   2.541   8.029   8.629
30074WAT     H190464   2.601   7.949   8.627
30074WAT     H290465   2.594   8.110   8.652
30075WAT      O90466   7.435   3.030   2.081
30075WAT     H190467   7.423   3.129   2.066
30075WAT     H290468   7.379   2.980   2.015
30076WAT      O90469   4.672   4.215   6.581
30076WAT     H190470   4.581   4.251   6.560
30076WAT     H290471   4.742   4.273   6.540
30077WAT      O90472   6.243   1.865   4.225
30077WAT     H190473   6.231   1.766   4.217
30077WAT     H290474   6.206   1.897   4.312
30078WAT      O90475   7.873   5.211   0.837
30078WAT     H190476   7.912   5.141   0.777
30078WAT     H290477   7.924   5.296   0.826
30079WAT      O90478   7.714   1.630   6.871
30079WAT     H190479   7.712   1.532   6.855
30079WAT     H290480   7.804   1.666   6.846
30080WAT      O90481   6.871   8.010   2.675
30080WAT     H190482   6.921   8.082   2.626
30080WAT     H290483   6.858   7.931   2.615
30081WAT      O90484   5.394   8.432   4.262
30081WAT     H190485   5.347   8.349   4.293
30081WAT     H290486   5.488   8.410   4.238
30082WAT      O90487   4.733   8.537   6.923
30082WAT     H190488   4.709   8.551   6.827
30082WAT     H290489   4.756   8.441   6.937
30083WAT      O90490   3.099   0.170   0.074
30083WAT     H190491   3.147   0.196  -0.010
30083WAT     H290492   3.165   0.161   0.149
30084WAT      O90493   8.925   5.023   7.828
30084WAT     H190494   9.024   5.032   7.839
30084WAT     H290495   8.899   5.049   7.734
30085WAT      O90496   1.071   0.808   6.052
30085WAT     H190497   1.055   0.786   5.956
30085WAT     H290498   0.984   0.810   6.100
30086WAT      O90499   0.314   3.342   2.930
30086WAT     H190500   0.371   3.299   3.001
30086WAT     H290501   0.230   3.289   2.918
30087WAT      O90502   2.670   4.573   7.068
30087WAT     H190503   2.634   4.536   6.982
30087WAT     H290504   2.651   4.509   7.143
30088WAT      O90505   0.620   6.438   9.184
30088WAT     H190506   0.591   6.370   9.116
30088WAT     H290507   0.619   6.396   9.275
30089WAT      O90508   4.865   7.741   4.089
30089WAT     H190509   4.859   7.654   4.040
30089WAT     H290510   4.896   7.724   4.183
30090WAT      O90511   4.361   8.820   4.821
30090WAT     H190512   4.368   8.721   4.829
30090WAT     H290513   4.448   8.859   4.793
30091WAT      O90514   4.629   9.265   6.142
30091WAT     H190515   4.615   9.363   6.129
30091WAT     H290516   4.719   9.250   6.185
30092WAT      O90517   1.379   2.889   8.626
30092WAT     H190518   1.396   2.988   8.624
30092WAT     H290519   1.459   2.841   8.589
30093WAT      O90520   1.428   2.182   8.170
30093WAT     H190521   1.462   2.153   8.080
30093WAT     H290522   1.506   2.203   8.230
30094WAT      O90523   0.065   0.010   6.169
30094WAT     H190524   0.013  -0.033   6.243
30094WAT     H290525   0.121   0.084   6.206
30095WAT      O90526   9.012   6.602   4.213
30095WAT     H190527   8.913   6.596   4.210
30095WAT     H290528   9.043   6.608   4.308
30096WAT      O90529   1.422   9.413   5.767
30096WAT     H190530   1.357   9.340   5.787
30096WAT     H290531   1.511   9.373   5.744
30097WAT      O90532   4.428   4.198   0.189
30097WAT     H190533   4.370   4.267   0.234
30097WAT     H290534   4.372   4.143   0.128
30098WAT      O90535   7.337   4.829   6.257
30098WAT     H190536   7.387   4.779   6.328
30098WAT     H290537   7.381   4.815   6.169
30099WAT      O90538   9.160   6.448   6.175
30099WAT     H190539   9.244   6.409   6.140
30099WAT     H290540   9.116   6.385   6.238
30100WAT      O90541   1.844   4.230   1.345
30100WAT     H190542   1.827   4.215   1.442
30100WAT     H290543   1.823   4.147   1.294
30101WAT      O90544   6.607   0.607   1.377
30101WAT     H190545   6.636   0.678   1.313
30101WAT     H290546   6.671   0.602   1.454
30102WAT      O90547   9.642   6.443   4.600
30102WAT     H190548   9.679   6.451   4.508
30102WAT     H290549   9.583   6.521   4.619
30103WAT      O90550   8.428   8.982   4.099
30103WAT     H190551   8.335   8.946   4.090
30103WAT     H290552   8.481   8.921   4.159
30104WAT      O90553   6.035   0.019   6.800
30104WAT     H190554   5.948  -0.029   6.803
30104WAT     H290555   6.055   0.044   6.705
30105WAT      O90556   4.020   6.375   5.623
30105WAT     H190557   4.026   6.391   5.721
30105WAT     H290558   4.091   6.426   5.576
30106WAT      O90559   4.686   6.036   7.009
30106WAT     H190560   4.682   6.129   6.973
30106WAT     H290561   4.777   6.020   7.049
30107WAT      O90562   9.148   8.256   4.914
30107WAT     H190563   9.068   8.220   4.865
30107WAT     H290564   9.183   8.186   4.976
30108WAT      O90565   3.850   4.978   3.904
30108WAT     H190566   3.770   4.981   3.964
30108WAT     H290567   3.924   5.034   3.943
30109WAT      O90568   3.843   0.581   0.720
30109WAT     H190569   3.887   0.541   0.801
30109WAT     H290570   3.769   0.521   0.690
30110WAT      O90571   8.744   3.332   8.709
30110WAT     H190572   8.772   3.376   8.624
30110WAT     H290573   8.742   3.232   8.696
30111WAT      O90574   9.605   0.708   5.869
30111WAT     H190575   9.535   0.773   5.899
30111WAT     H290576   9.691   0.757   5.851
30112WAT      O90577   9.535   9.651   8.889
30112WAT     H190578   9.589   9.580   8.845
30112WAT     H290579   9.576   9.675   8.976
30113WAT      O90580   8.336   2.179   0.154
30113WAT     H190581   8.282   2.109   0.108
30113WAT     H290582   8.432   2.172   0.125
30114WAT      O90583   4.312   7.233   8.870
30114WAT     H190584   4.412   7.236   8.860
30114WAT     H290585   4.288   7.228   8.967
30115WAT      O90586   4.731   6.713   7.878
30115WAT     H190587   4.814   6.737   7.828
30115WAT     H290588   4.684   6.796   7.907
30116WAT      O90589   6.708   3.496   5.928
30116WAT     H190590   6.778   3.425   5.937
30116WAT     H290591   6.711   3.556   6.007
30117WAT      O90592   5.206   1.755   3.978
30117WAT     H190593   5.124   1.725   4.026
30117WAT     H290594   5.283   1.759   4.042
30118WAT      O90595   4.028   6.735   1.986
30118WAT     H190596   4.049   6.688   2.072
30118WAT     H290597   4.073   6.824   1.984
30119WAT      O90598   9.331   2.736   5.351
30119WAT     H190599   9.358   2.706   5.442
30119WAT     H290600   9.242   2.696   5.327
30120WAT      O90601   9.617   9.197   1.579
30120WAT     H190602   9.658   9.177   1.490
30120WAT     H290603   9.602   9.111   1.628
30121WAT      O90604   0.723   7.432   9.635
30121WAT     H190605   0.749   7.526   9.659
30121WAT     H290606   0.639   7.433   9.582
30122WAT      O90607   5.376   8.636   0.603
30122WAT     H190608   5.457   8.605   0.652
30122WAT     H290609   5.313   8.559   0.590
30123WAT      O90610   3.498   2.247   4.778
30123WAT     H190611   3.471   2.268   4.685
30123WAT     H290612   3.443   2.171   4.813
30124WAT      O90613   5.931   2.908   1.589
30124WAT     H190614   5.844   2.957   1.587
30124WAT     H290615   6.006   2.972   1.574
30125WAT      O90616   8.842   7.534   3.811
30125WAT     H190617   8.840   7.560   3.715
30125WAT     H290618   8.904   7.595   3.860
30126WAT      O90619   4.229   3.154   3.870
30126WAT     H190620   4.276   3.110   3.947
30126WAT     H290621   4.137   3.182   3.900
30127WAT      O90622   6.694   8.198   3.999
30127WAT     H190623   6.698   8.119   3.938
30127WAT     H290624   6.709   8.167   4.093
30128WAT      O90625   0.522   0.181   5.923
30128WAT     H190626   0.539   0.226   6.011
30128WAT     H290627   0.425   0.186   5.900
30129WAT      O90628   6.813   4.749   0.601
30129WAT     H190629   6.731   4.801   0.627
30129WAT     H290630   6.816   4.664   0.652
30130WAT      O90631   8.345   5.460   6.445
30130WAT     H190632   8.286   5.401   6.389
30130WAT     H290633   8.392   5.404   6.514
30131WAT      O90634   8.967   9.835   3.334
30131WAT     H190635   9.019   9.910   3.374
30131WAT     H290636   8.887   9.871   3.285
30132WAT      O90637   8.087   7.078   6.658
30132WAT     H190638   8.167   7.138   6.663
30132WAT     H290639   8.015   7.123   6.604
30133WAT      O90640   1.174   7.533   1.846
30133WAT     H190641   1.108   7.548   1.772
30133WAT     H290642   1.128   7.539   1.934
30134WAT      O90643   6.469   7.839   1.271
30134WAT     H190644   6.555   7.795   1.247
30134WAT     H290645   6.398   7.769   1.284
30135WAT      O90646   1.993   5.277   8.105
30135WAT     H190647   2.073   5.301   8.050
30135WAT     H290648   2.022   5.241   8.193
30136WAT      O90649   0.511   8.078   8.703
30136WAT     H190650   0.458   8.078   8.618
30136WAT     H290651   0.590   8.139   8.693
30137WAT      O90652   4.953   1.733   7.058
30137WAT     H190653   5.040   1.732   7.107
30137WAT     H290654   4.969   1.711   6.962
30138WAT      O90655   8.529   4.381   5.312
30138WAT     H190656   8.441   4.390   5.358
30138WAT     H290657   8.529   4.300   5.254
30139WAT      O90658   2.155   6.209   3.872
30139WAT     H190659   2.088   6.173   3.808
30139WAT     H290660   2.108   6.258   3.945
30140WAT      O90661   3.950   5.738   9.695
30140WAT     H190662   3.889   5.814   9.670
30140WAT     H290663   3.928   5.658   9.641
30141WAT      O90664   1.572   9.302   3.077
30141WAT     H190665   1.492   9.362   3.086
30141WAT     H290666   1.644   9.350   3.028
30142WAT      O90667   4.174   9.009   1.946
30142WAT     H190668   4.269   9.036   1.929
30142WAT     H290669   4.149   9.036   2.039
30143WAT      O90670   0.595   9.604   0.421
30143WAT     H190671   0.672   9.566   0.471
30143WAT     H290672   0.624   9.685   0.371
30144WAT      O90673   5.422   6.798   1.372
30144WAT     H190674   5.499   6.739   1.397
30144WAT     H290675   5.443   6.892   1.398
30145WAT      O90676   8.202   1.066   8.214
30145WAT     H190677   8.225   1.089   8.309
30145WAT     H290678   8.148   0.982   8.212
30146WAT      O90679   0.278   5.764   6.697
30146WAT     H190680   0.326   5.754   6.610
30146WAT     H290681   0.209   5.836   6.688
30147WAT      O90682   3.003   3.199   3.141
30147WAT     H190683   3.010   3.099   3.136
30147WAT     H290684   3.084   3.240   3.097
30148WAT      O90685   2.523   6.007   9.864
30148WAT     H190686   2.607   6.051   9.829
30148WAT     H290687   2.443   6.051   9.822
30149WAT      O90688   6.137   6.299   1.591
30149WAT     H190689   6.220   6.344   1.624
30149WAT     H290690   6.092   6.251   1.667
30150WAT      O90691   4.167   0.342   0.181
30150WAT     H190692   4.256   0.336   0.227
30150WAT     H290693   4.169   0.287   0.097
30151WAT      O90694   2.210   9.002   8.582
30151WAT     H190695   2.161   9.077   8.626
30151WAT     H290696   2.307   9.008   8.604
30152WAT      O90697   7.797   6.362   4.024
30152WAT     H190698   7.798   6.379   3.925
30152WAT     H290699   7.729   6.422   4.067
30153WAT      O90700   9.242   2.451   1.645
30153WAT     H190701   9.178   2.479   1.717
30153WAT     H290702   9.210   2.365   1.605
30154WAT      O90703   6.140   9.508   0.351
30154WAT     H190704   6.050   9.466   0.347
30154WAT     H290705   6.135   9.602   0.318
30155WAT      O90706   2.767   8.209   3.475
30155WAT     H190707   2.806   8.131   3.425
30155WAT     H290708   2.707   8.175   3.548
30156WAT      O90709   3.103   3.208   5.617
30156WAT     H190710   3.086   3.212   5.716
30156WAT     H290711   3.140   3.295   5.585
30157WAT      O90712   0.641   0.359   6.931
30157WAT     H190713   0.670   0.321   6.844
30157WAT     H290714   0.550   0.401   6.921
30158WAT      O90715   1.512   3.054   9.396
30158WAT     H190716   1.430   3.070   9.450
30158WAT     H290717   1.504   2.965   9.350
30159WAT      O90718   4.874   3.176   2.093
30159WAT     H190719   4.888   3.086   2.052
30159WAT     H290720   4.923   3.245   2.041
30160WAT      O90721   7.015   9.755   0.623
30160WAT     H190722   6.923   9.770   0.589
30160WAT     H290723   7.019   9.779   0.720
30161WAT      O90724   5.188   1.098   1.345
30161WAT     H190725   5.241   1.154   1.282
30161WAT     H290726   5.105   1.147   1.372
30162WAT      O90727   3.578   4.901   3.424
30162WAT     H190728   3.490   4.854   3.436
30162WAT     H290729   3.636   4.884   3.504
30163WAT      O90730   9.805   4.432   6.069
30163WAT     H190731   9.851   4.444   5.981
30163WAT     H290732   9.738   4.505   6.082
30164WAT      O90733   3.312   8.237   7.188
30164WAT     H190734   3.315   8.210   7.092
30164WAT     H290735   3.361   8.170   7.244
30165WAT      O90736   4.911   2.505   0.542
30165WAT     H190737   4.821   2.521   0.584
30165WAT     H290738   4.906   2.425   0.483
30166WAT      O90739   0.974   9.520   6.315
30166WAT     H190740   0.988   9.558   6.407
30166WAT     H290741   0.989   9.592   6.247
30167WAT      O90742   0.113   8.753   4.750
30167WAT     H190743   0.031   8.731   4.697
30167WAT     H290744   0.175   8.807   4.694
30168WAT      O90745   2.548   1.990   7.278
30168WAT     H190746   2.504   2.017   7.363
30168WAT     H290747   2.482   1.995   7.203
30169WAT      O90748   2.104   4.889   8.214
30169WAT     H190749   2.022   4.855   8.169
30169WAT     H290750   2.170   4.919   8.144
30170WAT      O90751   8.462   2.938   8.118
30170WAT     H190752   8.368   2.907   8.133
30170WAT     H290753   8.519   2.861   8.089
30171WAT      O90754   0.621   0.379   1.834
30171WAT     H190755   0.622   0.327   1.749
30171WAT     H290756   0.711   0.420   1.850
30172WAT      O90757   6.559   0.904   7.887
30172WAT     H190758   6.532   0.997   7.911
30172WAT     H290759   6.524   0.882   7.796
30173WAT      O90760   0.081   4.450   0.808
30173WAT     H190761   0.119   4.412   0.723
30173WAT     H290762   0.085   4.549   0.805
30174WAT      O90763   1.624   6.908   7.803
30174WAT     H190764   1.573   6.948   7.727
30174WAT     H290765   1.561   6.867   7.868
30175WAT      O90766   3.876   8.951   3.294
30175WAT     H190767   3.970   8.954   3.261
30175WAT     H290768   3.821   9.017   3.243
30176WAT      O90769   7.958   9.072   4.990
30176WAT     H190770   8.041   9.016   4.995
30176WAT     H290771   7.982   9.164   4.958
30177WAT      O90772   5.705   8.836   7.257
30177WAT     H190773   5.735   8.931   7.262
30177WAT     H290774   5.782   8.779   7.226
30178WAT      O90775   8.928   7.218   1.263
30178WAT     H190776   8.850   7.158   1.249
30178WAT     H290777   8.900   7.299   1.314
30179WAT      O90778   5.421   7.837   6.581
30179WAT     H190779   5.337   7.890   6.594
30179WAT     H290780   5.398   7.744   6.555
30180WAT      O90781   1.302   0.305   6.138
30180WAT     H190782   1.257   0.390   6.112
30180WAT     H290783   1.242   0.228   6.119
30181WAT      O90784   5.896   6.060   8.823
30181WAT     H190785   5.814   6.110   8.851
30181WAT     H290786   5.869   5.975   8.777
30182WAT      O90787   8.378   3.554   4.965
30182WAT     H190788   8.441   3.565   5.042
30182WAT     H290789   8.377   3.637   4.910
30183WAT      O90790   4.041   9.061   4.498
30183WAT     H190791   4.122   9.009   4.473
30183WAT     H290792   3.988   9.010   4.565
30184WAT      O90793   2.364   0.156   5.697
30184WAT     H190794   2.364   0.114   5.606
30184WAT     H290795   2.357   0.084   5.766
30185WAT      O90796   6.915   1.395   6.090
30185WAT     H190797   6.924   1.475   6.031
30185WAT     H290798   6.831   1.402   6.144
30186WAT      O90799   7.216   2.337   6.786
30186WAT     H190800   7.190   2.264   6.722
30186WAT     H290801   7.134   2.369   6.835
30187WAT      O90802   2.048   6.536   0.304
30187WAT     H190803   2.110   6.614   0.305
30187WAT     H290804   2.096   6.455   0.338
30188WAT      O90805   2.785   5.102   8.495
30188WAT     H190806   2.812   5.157   8.416
30188WAT     H290807   2.716   5.152   8.548
30189WAT      O90808   1.167   4.960   0.058
30189WAT     H190809   1.244   5.024   0.054
30189WAT     H290810   1.126   4.963   0.149
30190WAT      O90811   5.843   8.631   6.439
30190WAT     H190812   5.937   8.638   6.405
30190WAT     H290813   5.786   8.700   6.394
30191WAT      O90814   1.733   6.838   9.127
30191WAT     H190815   1.789   6.919   9.145
30191WAT     H290816   1.694   6.844   9.035
30192WAT      O90817   0.363   0.074   7.104
30192WAT     H190818   0.441   0.065   7.042
30192WAT     H290819   0.391   0.046   7.196
30193WAT      O90820   3.638   1.994   6.278
30193WAT     H190821   3.668   1.982   6.184
30193WAT     H290822   3.551   2.043   6.280
30194WAT      O90823   6.583   5.729   7.904
30194WAT     H190824   6.600   5.802   7.838
30194WAT     H290825   6.486   5.728   7.930
30195WAT      O90826   3.301   1.928   1.837
30195WAT     H190827   3.210   1.934   1.879
30195WAT     H290828   3.293   1.941   1.739
30196WAT      O90829   3.926   6.803   0.112
30196WAT     H190830   4.017   6.823   0.147
30196WAT     H290831   3.932   6.774   0.016
30197WAT      O90832   4.127   0.787   2.957
30197WAT     H190833   4.205   0.838   2.994
30197WAT     H290834   4.059   0.774   3.030
30198WAT      O90835   6.465   8.521   6.349
30198WAT     H190836   6.408   8.592   6.391
30198WAT     H290837   6.443   8.432   6.389
30199WAT      O90838   2.381   9.129   5.753
30199WAT     H190839   2.369   9.101   5.848
30199WAT     H290840   2.296   9.113   5.702
30200WAT      O90841   6.196   6.185   3.016
30200WAT     H190842   6.195   6.284   3.030
30200WAT     H290843   6.132   6.161   2.944
30201WAT      O90844   6.348   4.580   4.169
30201WAT     H190845   6.426   4.571   4.107
30201WAT     H290846   6.350   4.505   4.236
30202WAT      O90847   6.676   5.622   8.630
30202WAT     H190848   6.619   5.551   8.671
30202WAT     H290849   6.765   5.623   8.675
30203WAT      O90850   1.462   1.203   2.082
30203WAT     H190851   1.416   1.136   2.023
30203WAT     H290852   1.463   1.169   2.176
30204WAT      O90853   2.637   6.143   7.165
30204WAT     H190854   2.716   6.157   7.105
30204WAT     H290855   2.609   6.047   7.162
30205WAT      O90856   9.592   8.902   5.244
30205WAT     H190857   9.560   8.830   5.306
30205WAT     H290858   9.583   8.870   5.150
30206WAT      O90859   8.444   6.442   3.594
30206WAT     H190860   8.365   6.383   3.576
30206WAT     H290861   8.416   6.538   3.586
30207WAT      O90862   2.529   2.406   7.061
30207WAT     H190863   2.598   2.428   7.130
30207WAT     H290864   2.438   2.426   7.098
30208WAT      O90865   2.436   4.315   9.243
30208WAT     H190866   2.508   4.288   9.180
30208WAT     H290867   2.395   4.234   9.284
30209WAT      O90868   5.328   6.607   3.923
30209WAT     H190869   5.282   6.648   4.001
30209WAT     H290870   5.286   6.519   3.902
30210WAT      O90871   4.500   1.332   9.381
30210WAT     H190872   4.530   1.407   9.441
30210WAT     H290873   4.404   1.344   9.358
30211WAT      O90874   2.021   7.040   0.767
30211WAT     H190875   2.042   7.137   0.778
30211WAT     H290876   2.094   6.995   0.717
30212WAT      O90877   5.087   1.632   2.293
30212WAT     H190878   4.989   1.648   2.287
30212WAT     H290879   5.128   1.641   2.202
30213WAT      O90880   8.235   2.495   9.748
30213WAT     H190881   8.267   2.496   9.842
30213WAT     H290882   8.311   2.477   9.686
30214WAT      O90883   4.673   3.859   9.594
30214WAT     H190884   4.603   3.808   9.644
30214WAT     H290885   4.630   3.916   9.524
30215WAT      O90886   8.733   7.158   8.489
30215WAT     H190887   8.693   7.244   8.459
30215WAT     H290888   8.665   7.105   8.540
30216WAT      O90889   5.637   0.216   0.605
30216WAT     H190890   5.702   0.164   0.660
30216WAT     H290891   5.644   0.188   0.509
30217WAT      O90892   2.546   4.425   5.613
30217WAT     H190893   2.635   4.466   5.593
30217WAT     H290894   2.479   4.455   5.545
30218WAT      O90895   0.190   3.849   1.084
30218WAT     H190896   0.256   3.857   1.009
30218WAT     H290897   0.119   3.783   1.059
30219WAT      O90898   7.892   3.435   2.772
30219WAT     H190899   7.799   3.471   2.780
30219WAT     H290900   7.931   3.422   2.863
30220WAT      O90901   8.208   1.597   1.157
30220WAT     H190902   8.211   1.598   1.057
30220WAT     H290903   8.298   1.572   1.193
30221WAT      O90904   7.993   8.574   2.483
30221WAT     H190905   8.072   8.533   2.438
30221WAT     H290906   7.909   8.543   2.439
30222WAT      O90907   1.141   0.848   5.201
30222WAT     H190908   1.125   0.769   5.141
30222WAT     H290909   1.085   0.839   5.283
30223WAT      O90910   4.940   3.995   3.724
30223WAT     H190911   4.869   4.058   3.755
30223WAT     H290912   5.024   4.011   3.776
30224WAT      O90913   4.542   0.907   5.325
30224WAT     H190914   4.593   0.972   5.381
30224WAT     H290915   4.447   0.935   5.318
30225WAT      O90916   0.566   2.572   2.237
30225WAT     H190917   0.627   2.493   2.242
30225WAT     H290918   0.473   2.541   2.214
30226WAT      O90919   5.473   1.206   8.686
30226WAT     H190920   5.544   1.182   8.621
30226WAT     H290921   5.458   1.130   8.749
30227WAT      O90922   1.304   1.771   7.964
30227WAT     H190923   1.211   1.808   7.961
30227WAT     H290924   1.327   1.731   7.875
30228WAT      O90925   8.954   1.013   6.381
30228WAT     H190926   8.937   1.094   6.439
30228WAT     H290927   9.040   0.970   6.409
30229WAT      O90928   8.191   1.125   0.286
30229WAT     H190929   8.189   1.177   0.371
30229WAT     H290930   8.162   1.184   0.210
30230WAT      O90931   0.063   2.641   8.881
30230WAT     H190932   0.020   2.551   8.881
30230WAT     H290933   0.015   2.701   8.945
30231WAT      O90934   7.737   1.651   8.891
30231WAT     H190935   7.826   1.658   8.938
30231WAT     H290936   7.735   1.713   8.814
30232WAT      O90937   5.689   4.177   7.777
30232WAT     H190938   5.768   4.234   7.798
30232WAT     H290939   5.673   4.113   7.853
30233WAT      O90940   5.761   8.086   4.398
30233WAT     H190941   5.845   8.068   4.347
30233WAT     H290942   5.736   8.004   4.451
30234WAT      O90943   0.471   0.019   1.610
30234WAT     H190944   0.494  -0.050   1.542
30234WAT     H290945   0.510   0.107   1.583
30235WAT      O90946   0.640   6.809   3.856
30235WAT     H190947   0.736   6.791   3.833
30235WAT     H290948   0.610   6.743   3.925
30236WAT      O90949   8.181   1.407   5.035
30236WAT     H190950   8.085   1.379   5.033
30236WAT     H290951   8.188   1.503   5.010
30237WAT      O90952   7.739   3.101   1.348
30237WAT     H190953   7.677   3.159   1.401
30237WAT     H290954   7.802   3.054   1.410
30238WAT      O90955   2.023   2.217   9.050
30238WAT     H190956   2.116   2.212   9.087
30238WAT     H290957   1.962   2.161   9.106
30239WAT      O90958   2.935   7.109   4.367
30239WAT     H190959   2.933   7.059   4.453
30239WAT     H290960   2.917   7.045   4.292
30240WAT      O90961   2.742   4.365   4.187
30240WAT     H190962   2.655   4.403   4.218
30240WAT     H290963   2.777   4.302   4.257
30241WAT      O90964   7.625   8.628   4.919
30241WAT     H190965   7.638   8.540   4.965
30241WAT     H290966   7.698   8.691   4.946
30242WAT      O90967   2.231   0.393   8.753
30242WAT     H190968   2.209   0.437   8.841
30242WAT     H290969   2.324   0.418   8.726
30243WAT      O90970   1.590   6.951   2.430
30243WAT     H190971   1.515   6.911   2.378
30243WAT     H290972   1.664   6.976   2.369
30244WAT      O90973   2.677   0.706   5.064
30244WAT     H190974   2.679   0.652   4.980
30244WAT     H290975   2.636   0.651   5.138
30245WAT      O90976   6.184   0.585   3.382
30245WAT     H190977   6.113   0.548   3.443
30245WAT     H290978   6.225   0.510   3.330
30246WAT      O90979   0.770   0.480   5.180
30246WAT     H190980   0.768   0.490   5.081
30246WAT     H290981   0.692   0.528   5.220
30247WAT      O90982   3.238   0.403   1.272
30247WAT     H190983   3.153   0.448   1.299
30247WAT     H290984   3.273   0.349   1.348
30248WAT      O90985   0.619   6.605   5.103
30248WAT     H190986   0.700   6.613   5.045
30248WAT     H290987   0.645   6.565   5.191
30249WAT      O90988   8.698   7.385   9.681
30249WAT     H190989   8.666   7.468   9.636
30249WAT     H290990   8.788   7.401   9.721
30250WAT      O90991   6.747   8.598   1.560
30250WAT     H190992   6.790   8.688   1.563
30250WAT     H290993   6.705   8.584   1.471
30251WAT      O90994   6.621   0.573   6.815
30251WAT     H190995   6.721   0.584   6.810
30251WAT     H290996   6.577   0.644   6.760
30252WAT      O90997   2.342   0.309   4.667
30252WAT     H190998   2.293   0.380   4.716
30252WAT     H290999   2.427   0.346   4.630
30253WAT      O91000   0.229   4.447   6.450
30253WAT     H191001   0.285   4.369   6.422
30253WAT     H291002   0.191   4.430   6.541
30254WAT      O91003   4.599   0.713   4.892
30254WAT     H191004   4.500   0.702   4.887
30254WAT     H291005   4.627   0.789   4.835
30255WAT      O91006   8.211   0.676   1.677
30255WAT     H191007   8.260   0.645   1.595
30255WAT     H291008   8.276   0.693   1.751
30256WAT      O91009   9.776   1.942   9.403
30256WAT     H191010   9.843   2.001   9.448
30256WAT     H291011   9.684   1.975   9.422
30257WAT      O91012   9.460   3.284   8.026
30257WAT     H191013   9.548   3.250   7.993
30257WAT     H291014   9.464   3.384   8.034
30258WAT      O91015   5.113   2.805   4.726
30258WAT     H191016   5.023   2.795   4.682
30258WAT     H291017   5.176   2.848   4.662
30259WAT      O91018   6.722   2.676   7.267
30259WAT     H191019   6.802   2.623   7.241
30259WAT     H291020   6.745   2.773   7.273
30260WAT      O91021   1.695   2.531   9.602
30260WAT     H191022   1.648   2.457   9.554
30260WAT     H291023   1.716   2.605   9.537
30261WAT      O91024   8.781   0.695   1.429
30261WAT     H191025   8.789   0.762   1.503
30261WAT     H291026   8.803   0.739   1.342
30262WAT      O91027   8.993   5.810   2.668
30262WAT     H191028   8.958   5.730   2.620
30262WAT     H291029   8.988   5.890   2.608
30263WAT      O91030   3.589   8.351   1.947
30263WAT     H191031   3.505   8.375   1.898
30263WAT     H291032   3.566   8.321   2.040
30264WAT      O91033   2.643   3.540   9.272
30264WAT     H191034   2.582   3.531   9.193
30264WAT     H291035   2.632   3.631   9.311
30265WAT      O91036   5.161   5.857   2.531
30265WAT     H191037   5.173   5.760   2.549
30265WAT     H291038   5.087   5.870   2.465
30266WAT      O91039   7.641   9.267   0.234
30266WAT     H191040   7.684   9.178   0.246
30266WAT     H291041   7.559   9.258   0.178
30267WAT      O91042   3.337   8.660   9.280
30267WAT     H191043   3.246   8.640   9.245
30267WAT     H291044   3.380   8.731   9.224
30268WAT      O91045   9.748   0.219   3.641
30268WAT     H191046   9.650   0.207   3.657
30268WAT     H291047   9.762   0.297   3.580
30269WAT      O91048   5.018   7.655   9.181
30269WAT     H191049   5.019   7.668   9.082
30269WAT     H291050   4.938   7.600   9.207
30270WAT      O91051   6.476   5.704   4.266
30270WAT     H191052   6.389   5.720   4.313
30270WAT     H291053   6.518   5.792   4.242
30271WAT      O91054   2.932   1.478   6.227
30271WAT     H191055   3.002   1.434   6.284
30271WAT     H291056   2.854   1.416   6.215
30272WAT      O91057   2.582   2.346   3.412
30272WAT     H191058   2.566   2.318   3.317
30272WAT     H291059   2.552   2.272   3.473
30273WAT      O91060   4.551   8.999   3.312
30273WAT     H191061   4.585   8.913   3.273
30273WAT     H291062   4.468   9.027   3.263
30274WAT      O91063   8.746   8.032   2.351
30274WAT     H191064   8.774   8.097   2.279
30274WAT     H291065   8.752   7.939   2.316
30275WAT      O91066   0.358   1.576   3.034
30275WAT     H191067   0.403   1.489   3.054
30275WAT     H291068   0.416   1.652   3.063
30276WAT      O91069   6.745   5.118   9.206
30276WAT     H191070   6.668   5.109   9.143
30276WAT     H291071   6.732   5.057   9.283
30277WAT      O91072   3.351   5.352   4.731
30277WAT     H191073   3.395   5.387   4.813
30277WAT     H291074   3.320   5.258   4.747
30278WAT      O91075   4.920   7.304   7.561
30278WAT     H191076   4.873   7.217   7.544
30278WAT     H291077   4.965   7.300   7.651
30279WAT      O91078   0.343   4.023   6.255
30279WAT     H191079   0.262   3.994   6.203
30279WAT     H291080   0.392   3.942   6.287
30280WAT      O91081   7.762   3.300   0.823
30280WAT     H191082   7.749   3.245   0.740
30280WAT     H291083   7.830   3.372   0.804
30281WAT      O91084   3.716   2.658   0.989
30281WAT     H191085   3.623   2.683   1.017
30281WAT     H291086   3.769   2.741   0.972
30282WAT      O91087   8.783   0.828   1.176
30282WAT     H191088   8.845   0.902   1.201
30282WAT     H291089   8.696   0.866   1.145
30283WAT      O91090   3.624   1.109   3.366
30283WAT     H191091   3.528   1.130   3.350
30283WAT     H291092   3.679   1.191   3.352
30284WAT      O91093   4.988   0.997   8.855
30284WAT     H191094   5.002   0.908   8.812
30284WAT     H291095   4.890   1.012   8.870
30285WAT      O91096   4.271   4.898   6.841
30285WAT     H191097   4.216   4.851   6.773
30285WAT     H291098   4.361   4.854   6.847
30286WAT      O91099   5.990   4.130   6.932
30286WAT     H191100   5.962   4.054   6.874
30286WAT     H291101   5.934   4.211   6.910
30287WAT      O91102   0.258   2.059   2.165
30287WAT     H191103   0.296   2.012   2.245
30287WAT     H291104   0.330   2.071   2.096
30288WAT      O91105   9.105   9.157   1.048
30288WAT     H191106   9.061   9.085   0.994
30288WAT     H291107   9.131   9.121   1.137
30289WAT      O91108   8.408   7.652   8.201
30289WAT     H191109   8.342   7.675   8.273
30289WAT     H291110   8.501   7.662   8.237
30290WAT      O91111   1.929   9.423   4.893
30290WAT     H191112   2.020   9.413   4.852
30290WAT     H291113   1.935   9.409   4.992
30291WAT      O91114   5.972   9.636   7.467
30291WAT     H191115   6.027   9.698   7.523
30291WAT     H291116   5.892   9.684   7.433
30292WAT      O91117   6.636   0.553   1.823
30292WAT     H191118   6.539   0.544   1.848
30292WAT     H291119   6.657   0.650   1.809
30293WAT      O91120   2.873   3.726   7.965
30293WAT     H191121   2.942   3.659   7.992
30293WAT     H291122   2.907   3.818   7.982
30294WAT      O91123   6.218   5.736   1.632
30294WAT     H191124   6.273   5.738   1.715
30294WAT     H291125   6.248   5.809   1.570
30295WAT      O91126   0.589   3.920   4.101
30295WAT     H191127   0.622   3.988   4.166
30295WAT     H291128   0.655   3.911   4.026
30296WAT      O91129   5.091   0.211   2.598
30296WAT     H191130   5.125   0.297   2.558
30296WAT     H291131   5.035   0.163   2.531
30297WAT      O91132   2.439   1.423   7.609
30297WAT     H191133   2.346   1.405   7.641
30297WAT     H291134   2.488   1.476   7.678
30298WAT      O91135   9.298   5.847   5.174
30298WAT     H191136   9.232   5.912   5.137
30298WAT     H291137   9.377   5.841   5.112
30299WAT      O91138   8.646   2.231   1.830
30299WAT     H191139   8.624   2.142   1.870
30299WAT     H291140   8.580   2.251   1.757
30300WAT      O91141   5.417   2.084   7.602
30300WAT     H191142   5.358   2.080   7.683
30300WAT     H291143   5.425   2.179   7.571
30301WAT      O91144   7.296   7.437   0.566
30301WAT     H191145   7.327   7.360   0.510
30301WAT     H291146   7.293   7.409   0.662
30302WAT      O91147   3.500   1.411   9.117
30302WAT     H191148   3.461   1.329   9.073
30302WAT     H291149   3.485   1.406   9.215
30303WAT      O91150   5.953   3.536   2.726
30303WAT     H191151   5.944   3.575   2.817
30303WAT     H291152   6.049   3.539   2.697
30304WAT      O91153   6.510   5.212   3.688
30304WAT     H191154   6.600   5.234   3.727
30304WAT     H291155   6.520   5.194   3.591
30305WAT      O91156   7.955   9.559   3.338
30305WAT     H191157   7.993   9.470   3.361
30305WAT     H291158   7.887   9.549   3.265
30306WAT      O91159   5.487   7.808   3.479
30306WAT     H191160   5.416   7.782   3.545
30306WAT     H291161   5.449   7.876   3.416
30307WAT      O91162   3.373   2.756   2.441
30307WAT     H191163   3.473   2.747   2.445
30307WAT     H291164   3.333   2.712   2.521
30308WAT      O91165   3.398   3.681   3.120
30308WAT     H191166   3.395   3.749   3.047
30308WAT     H291167   3.449   3.601   3.089
30309WAT      O91168   2.033   2.008   6.583
30309WAT     H191169   2.063   2.099   6.611
30309WAT     H291170   1.981   1.966   6.658
30310WAT      O91171   2.154   0.976   9.077
30310WAT     H191172   2.165   0.981   8.978
30310WAT     H291173   2.224   0.916   9.115
30311WAT      O91174   0.101   1.527   1.022
30311WAT     H191175   0.147   1.466   1.087
30311WAT     H291176   0.016   1.561   1.062
30312WAT      O91177   7.879   0.033   0.367
30312WAT     H191178   7.957   0.094   0.383
30312WAT     H291179   7.853   0.037   0.271
30313WAT      O91180   1.465   0.677   1.916
30313WAT     H191181   1.410   0.687   1.999
30313WAT     H291182   1.454   0.585   1.879
30314WAT      O91183   8.612   3.902   8.203
30314WAT     H191184   8.552   3.979   8.181
30314WAT     H291185   8.562   3.816   8.192
30315WAT      O91186   7.971   4.712   1.710
30315WAT     H191187   7.912   4.708   1.629
30315WAT     H291188   8.002   4.805   1.724
30316WAT      O91189   1.250   6.946   2.370
30316WAT     H191190   1.210   7.030   2.333
30316WAT     H291191   1.247   6.950   2.470
30317WAT      O91192   8.956   0.478   0.092
30317WAT     H191193   8.897   0.398   0.096
30317WAT     H291194   8.901   0.560   0.108
30318WAT      O91195   8.977   4.946   0.808
30318WAT     H191196   9.012   4.979   0.895
30318WAT     H291197   8.950   4.850   0.817
30319WAT      O91198   5.088   6.617   5.646
30319WAT     H191199   5.120   6.701   5.690
30319WAT     H291200   5.040   6.640   5.561
30320WAT      O91201   7.646   8.725   5.320
30320WAT     H191202   7.745   8.721   5.308
30320WAT     H291203   7.607   8.793   5.258
30321WAT      O91204   3.260   5.451   2.769
30321WAT     H191205   3.344   5.421   2.814
30321WAT     H291206   3.278   5.472   2.673
30322WAT      O91207   4.403   4.436   2.937
30322WAT     H191208   4.454   4.349   2.934
30322WAT     H291209   4.396   4.473   2.844
30323WAT      O91210   0.276   5.343   8.115
30323WAT     H191211   0.318   5.390   8.037
30323WAT     H291212   0.211   5.404   8.160
30324WAT      O91213   5.586   7.665   0.252
30324WAT     H191214   5.671   7.651   0.303
30324WAT     H291215   5.608   7.699   0.160
30325WAT      O91216   9.854   5.368   7.154
30325WAT     H191217   9.841   5.342   7.250
30325WAT     H291218   9.774   5.341   7.101
30326WAT      O91219   5.598   0.977   9.623
30326WAT     H191220   5.504   1.006   9.641
30326WAT     H291221   5.657   1.057   9.614
30327WAT      O91222   2.908   5.472   6.430
30327WAT     H191223   3.007   5.458   6.427
30327WAT     H291224   2.873   5.447   6.520
30328WAT      O91225   3.274   3.467   9.728
30328WAT     H191226   3.184   3.511   9.725
30328WAT     H291227   3.307   3.451   9.635
30329WAT      O91228   3.756   0.314   5.360
30329WAT     H191229   3.765   0.227   5.312
30329WAT     H291230   3.721   0.297   5.452
30330WAT      O91231   7.296   0.522   9.405
30330WAT     H191232   7.313   0.423   9.397
30330WAT     H291233   7.321   0.553   9.497
30331WAT      O91234   1.574   3.535   6.341
30331WAT     H191235   1.601   3.530   6.437
30331WAT     H291236   1.511   3.460   6.320
30332WAT      O91237   3.033   3.815   7.417
30332WAT     H191238   3.099   3.846   7.486
30332WAT     H291239   2.952   3.874   7.421
30333WAT      O91240   7.743   4.221   1.735
30333WAT     H191241   7.790   4.289   1.678
30333WAT     H291242   7.686   4.163   1.677
30334WAT      O91243   2.747   3.641   2.748
30334WAT     H191244   2.727   3.594   2.662
30334WAT     H291245   2.843   3.627   2.773
30335WAT      O91246   9.132   1.406   5.011
30335WAT     H191247   9.186   1.343   4.955
30335WAT     H291248   9.171   1.498   5.005
30336WAT      O91249   8.077   4.002   9.765
30336WAT     H191250   8.168   4.013   9.805
30336WAT     H291251   8.057   4.081   9.707
30337WAT      O91252   2.945   5.795   1.820
30337WAT     H191253   2.962   5.847   1.904
30337WAT     H291254   2.858   5.825   1.780
30338WAT      O91255   2.779   0.980   1.909
30338WAT     H191256   2.784   1.002   2.006
30338WAT     H291257   2.719   0.901   1.896
30339WAT      O91258   5.818   2.076   7.479
30339WAT     H191259   5.754   2.136   7.430
30339WAT     H291260   5.774   2.041   7.561
30340WAT      O91261   6.683   8.464   2.003
30340WAT     H191262   6.772   8.421   2.014
30340WAT     H291263   6.671   8.533   2.074
30341WAT      O91264   1.295   2.195   9.293
30341WAT     H191265   1.319   2.256   9.217
30341WAT     H291266   1.253   2.112   9.258
30342WAT      O91267   1.948   1.741   2.027
30342WAT     H191268   1.901   1.814   1.977
30342WAT     H291269   1.893   1.658   2.025
30343WAT      O91270   8.001   2.992   9.321
30343WAT     H191271   8.018   3.020   9.415
30343WAT     H291272   7.956   2.903   9.320
30344WAT      O91273   4.066   3.352   8.816
30344WAT     H191274   4.096   3.272   8.765
30344WAT     H291275   4.137   3.422   8.814
30345WAT      O91276   6.308   5.243   0.988
30345WAT     H191277   6.329   5.341   0.981
30345WAT     H291278   6.218   5.231   1.030
30346WAT      O91279   9.470   0.862   7.710
30346WAT     H191280   9.492   0.902   7.621
30346WAT     H291281   9.548   0.872   7.771
30347WAT      O91282   8.353   2.456   2.623
30347WAT     H191283   8.328   2.537   2.570
30347WAT     H291284   8.429   2.479   2.684
30348WAT      O91285   5.839   5.829   4.508
30348WAT     H191286   5.810   5.783   4.424
30348WAT     H291287   5.857   5.761   4.579
30349WAT      O91288   3.668   2.644   0.323
30349WAT     H191289   3.675   2.560   0.269
30349WAT     H291290   3.742   2.706   0.298
30350WAT      O91291   5.011   0.759   8.721
30350WAT     H191292   4.965   0.674   8.696
30350WAT     H291293   5.046   0.803   8.638
30351WAT      O91294   9.421   4.025   8.391
30351WAT     H191295   9.501   4.074   8.424
30351WAT     H291296   9.361   4.003   8.468
30352WAT      O91297   0.782   7.714   3.473
30352WAT     H191298   0.691   7.686   3.505
30352WAT     H291299   0.808   7.658   3.395
30353WAT      O91300   9.262   4.034   3.019
30353WAT     H191301   9.247   4.109   3.085
30353WAT     H291302   9.354   4.041   2.982
30354WAT      O91303   7.537   5.232   3.418
30354WAT     H191304   7.508   5.200   3.328
30354WAT     H291305   7.635   5.217   3.430
30355WAT      O91306   3.574   9.161   0.198
30355WAT     H191307   3.566   9.064   0.223
30355WAT     H291308   3.484   9.203   0.196
30356WAT      O91309   9.246   0.438   4.211
30356WAT     H191310   9.316   0.495   4.254
30356WAT     H291311   9.254   0.344   4.244
30357WAT      O91312   0.996   0.922   3.568
30357WAT     H191313   0.986   0.830   3.530
30357WAT     H291314   0.944   0.929   3.653
30358WAT      O91315   7.812   5.212   3.385
30358WAT     H191316   7.815   5.310   3.408
30358WAT     H291317   7.880   5.163   3.439
30359WAT      O91318   0.266   7.792   5.605
30359WAT     H191319   0.297   7.709   5.558
30359WAT     H291320   0.195   7.769   5.671
30360WAT      O91321   0.066   1.722   7.726
30360WAT     H191322   0.073   1.772   7.812
30360WAT     H291323   0.017   1.778   7.659
30361WAT      O91324   2.480   5.917   6.200
30361WAT     H191325   2.472   5.865   6.115
30361WAT     H291326   2.397   5.973   6.212
30362WAT      O91327   1.758   6.555   6.315
30362WAT     H191328   1.717   6.492   6.249
30362WAT     H291329   1.856   6.537   6.321
30363WAT      O91330   9.334   6.439   8.259
30363WAT     H191331   9.325   6.359   8.200
30363WAT     H291332   9.294   6.518   8.213
30364WAT      O91333   7.680   2.252   1.820
30364WAT     H191334   7.723   2.332   1.862
30364WAT     H291335   7.725   2.169   1.852
30365WAT      O91336   2.672   9.326   5.957
30365WAT     H191337   2.651   9.241   6.006
30365WAT     H291338   2.640   9.319   5.862
30366WAT      O91339   4.650   7.308   7.859
30366WAT     H191340   4.573   7.245   7.848
30366WAT     H291341   4.667   7.355   7.772
30367WAT      O91342   5.025   5.087   3.821
30367WAT     H191343   5.011   5.186   3.824
30367WAT     H291344   5.033   5.057   3.725
30368WAT      O91345   8.800   6.031   1.713
30368WAT     H191346   8.778   6.080   1.797
30368WAT     H291347   8.729   6.049   1.644
30369WAT      O91348   1.182   0.370   7.854
30369WAT     H191349   1.264   0.332   7.811
30369WAT     H291350   1.204   0.399   7.948
30370WAT      O91351   6.761   2.826   9.281
30370WAT     H191352   6.747   2.858   9.187
30370WAT     H291353   6.801   2.735   9.280
30371WAT      O91354   5.826   7.208   6.821
30371WAT     H191355   5.903   7.168   6.871
30371WAT     H291356   5.759   7.244   6.887
30372WAT      O91357   6.926   9.181   9.357
30372WAT     H191358   6.980   9.265   9.369
30372WAT     H291359   6.876   9.185   9.271
30373WAT      O91360   9.204   4.226   6.497
30373WAT     H191361   9.212   4.271   6.586
30373WAT     H291362   9.119   4.255   6.453
30374WAT      O91363   8.175   2.089   0.758
30374WAT     H191364   8.099   2.024   0.764
30374WAT     H291365   8.234   2.080   0.838
30375WAT      O91366   7.244   2.961   6.081
30375WAT     H191367   7.216   2.911   6.000
30375WAT     H291368   7.342   2.982   6.075
30376WAT      O91369   4.191   6.621   4.060
30376WAT     H191370   4.182   6.715   4.094
30376WAT     H291371   4.156   6.616   3.967
30377WAT      O91372   7.365   6.965   0.061
30377WAT     H191373   7.368   6.873   0.023
30377WAT     H291374   7.302   7.022   0.009
30378WAT      O91375   2.552   9.090   7.598
30378WAT     H191376   2.568   9.074   7.501
30378WAT     H291377   2.454   9.081   7.618
30379WAT      O91378   1.626   9.658   0.300
30379WAT     H191379   1.676   9.574   0.323
30379WAT     H291380   1.620   9.666   0.200
30380WAT      O91381   3.479   5.073   1.461
30380WAT     H191382   3.399   5.098   1.406
30380WAT     H291383   3.529   5.155   1.486
30381WAT      O91384   3.930   2.537   5.445
30381WAT     H191385   3.942   2.636   5.450
30381WAT     H291386   3.970   2.503   5.360
30382WAT      O91387   6.807   9.358   0.628
30382WAT     H191388   6.795   9.412   0.545
30382WAT     H291389   6.902   9.328   0.635
30383WAT      O91390   6.516   2.072   1.574
30383WAT     H191391   6.533   1.976   1.550
30383WAT     H291392   6.599   2.113   1.611
30384WAT      O91393   1.013   1.993   4.099
30384WAT     H191394   1.029   1.895   4.114
30384WAT     H291395   0.953   2.005   4.019
30385WAT      O91396   4.910   3.512   8.391
30385WAT     H191397   4.880   3.431   8.440
30385WAT     H291398   4.950   3.485   8.303
30386WAT      O91399   6.056   2.096   1.461
30386WAT     H191400   6.114   2.176   1.478
30386WAT     H291401   6.088   2.019   1.517
30387WAT      O91402   3.345   5.771   4.655
30387WAT     H191403   3.402   5.774   4.573
30387WAT     H291404   3.402   5.755   4.735
30388WAT      O91405   6.816   0.279   4.298
30388WAT     H191406   6.772   0.363   4.330
30388WAT     H291407   6.764   0.242   4.221
30389WAT      O91408   8.680   5.680   5.263
30389WAT     H191409   8.585   5.674   5.233
30389WAT     H291410   8.699   5.608   5.329
30390WAT      O91411   8.445   2.493   7.952
30390WAT     H191412   8.435   2.516   7.855
30390WAT     H291413   8.387   2.415   7.974
30391WAT      O91414   5.186   9.338   0.315
30391WAT     H191415   5.136   9.370   0.235
30391WAT     H291416   5.247   9.263   0.289
30392WAT      O91417   1.982   9.532   8.419
30392WAT     H191418   2.061   9.548   8.478
30392WAT     H291419   1.912   9.481   8.470
30393WAT      O91420   8.665   7.348   2.477
30393WAT     H191421   8.757   7.317   2.455
30393WAT     H291422   8.612   7.273   2.516
30394WAT      O91423   7.701   0.335   1.515
30394WAT     H191424   7.747   0.288   1.439
30394WAT     H291425   7.647   0.411   1.479
30395WAT      O91426   8.443   4.052   2.613
30395WAT     H191427   8.481   4.010   2.695
30395WAT     H291428   8.419   4.147   2.632
30396WAT      O91429   6.830   3.786   6.664
30396WAT     H191430   6.868   3.871   6.628
30396WAT     H291431   6.737   3.773   6.630
30397WAT      O91432   6.361   6.849   8.925
30397WAT     H191433   6.315   6.790   8.992
30397WAT     H291434   6.296   6.919   8.893
30398WAT      O91435   9.721   6.729   4.404
30398WAT     H191436   9.724   6.630   4.392
30398WAT     H291437   9.752   6.753   4.496
30399WAT      O91438   0.454   3.481   4.809
30399WAT     H191439   0.398   3.421   4.752
30399WAT     H291440   0.440   3.458   4.906
30400WAT      O91441   3.913   2.691   6.346
30400WAT     H191442   3.834   2.631   6.330
30400WAT     H291443   3.978   2.681   6.271
30401WAT      O91444   6.767   5.987   0.328
30401WAT     H191445   6.817   6.028   0.252
30401WAT     H291446   6.831   5.958   0.400
30402WAT      O91447   4.189   5.276   2.766
30402WAT     H191448   4.214   5.185   2.733
30402WAT     H291449   4.102   5.304   2.727
30403WAT      O91450   4.708   2.769   9.168
30403WAT     H191451   4.698   2.864   9.139
30403WAT     H291452   4.643   2.749   9.241
30404WAT      O91453   8.566   5.311   1.720
30404WAT     H191454   8.585   5.397   1.768
30404WAT     H291455   8.634   5.243   1.747
30405WAT      O91456   1.843   2.765   9.184
30405WAT     H191457   1.846   2.863   9.167
30405WAT     H291458   1.934   2.725   9.168
30406WAT      O91459   0.368   8.694   1.806
30406WAT     H191460   0.313   8.652   1.878
30406WAT     H291461   0.311   8.710   1.725
30407WAT      O91462   9.609   8.012   9.261
30407WAT     H191463   9.558   7.941   9.310
30407WAT     H291464   9.579   8.013   9.165
30408WAT      O91465   3.585   4.557   8.929
30408WAT     H191466   3.657   4.494   8.901
30408WAT     H291467   3.617   4.652   8.921
30409WAT      O91468   7.945   4.920   9.505
30409WAT     H191469   7.918   4.859   9.580
30409WAT     H291470   8.044   4.912   9.490
30410WAT      O91471   8.103   1.281   6.877
30410WAT     H191472   8.082   1.364   6.928
30410WAT     H291473   8.113   1.204   6.940
30411WAT      O91474   1.780   5.701   5.918
30411WAT     H191475   1.829   5.685   5.832
30411WAT     H291476   1.739   5.792   5.918
30412WAT      O91477   7.603   6.248   5.794
30412WAT     H191478   7.538   6.223   5.866
30412WAT     H291479   7.603   6.347   5.781
30413WAT      O91480   4.056   7.820   7.991
30413WAT     H191481   4.084   7.751   8.058
30413WAT     H291482   4.010   7.895   8.037
30414WAT      O91483   5.907   6.772   1.673
30414WAT     H191484   5.874   6.829   1.598
30414WAT     H291485   5.850   6.690   1.679
30415WAT      O91486   0.306   4.723   7.057
30415WAT     H191487   0.288   4.819   7.035
30415WAT     H291488   0.376   4.718   7.128
30416WAT      O91489   3.195   3.988   5.013
30416WAT     H191490   3.134   3.924   4.965
30416WAT     H291491   3.282   3.993   4.965
30417WAT      O91492   1.495   4.068   9.320
30417WAT     H191493   1.412   4.013   9.333
30417WAT     H291494   1.469   4.161   9.292
30418WAT      O91495   1.503   8.911   3.517
30418WAT     H191496   1.595   8.907   3.555
30418WAT     H291497   1.455   8.825   3.533
30419WAT      O91498   9.400   9.288   0.491
30419WAT     H191499   9.499   9.281   0.500
30419WAT     H291500   9.361   9.316   0.579
30420WAT      O91501   4.926   1.434   2.884
30420WAT     H191502   4.955   1.389   2.799
30420WAT     H291503   4.844   1.389   2.919
30421WAT      O91504   2.404   7.772   7.756
30421WAT     H191505   2.415   7.748   7.660
30421WAT     H291506   2.493   7.781   7.799
30422WAT      O91507   9.685   8.941   5.797
30422WAT     H191508   9.666   8.894   5.884
30422WAT     H291509   9.661   8.881   5.721
30423WAT      O91510   8.256   0.687   0.489
30423WAT     H191511   8.248   0.677   0.588
30423WAT     H291512   8.281   0.781   0.467
30424WAT      O91513   1.814   0.042   4.044
30424WAT     H191514   1.740   0.002   4.098
30424WAT     H291515   1.897  -0.014   4.054
30425WAT      O91516   1.543   5.407   4.634
30425WAT     H191517   1.600   5.453   4.702
30425WAT     H291518   1.457   5.377   4.676
30426WAT      O91519   6.368   5.049   7.020
30426WAT     H191520   6.448   5.031   7.077
30426WAT     H291521   6.395   5.108   6.944
30427WAT      O91522   6.425   2.143   3.557
30427WAT     H191523   6.414   2.226   3.502
30427WAT     H291524   6.513   2.101   3.535
30428WAT      O91525   3.328   7.841   6.898
30428WAT     H191526   3.278   7.794   6.971
30428WAT     H291527   3.303   7.801   6.810
30429WAT      O91528   4.334   0.286   8.698
30429WAT     H191529   4.387   0.201   8.696
30429WAT     H291530   4.383   0.357   8.647
30430WAT      O91531   2.913   7.278   8.168
30430WAT     H191532   2.944   7.204   8.109
30430WAT     H291533   2.919   7.250   8.264
30431WAT      O91534   8.177   9.288   3.074
30431WAT     H191535   8.197   9.266   2.978
30431WAT     H291536   8.105   9.226   3.107
30432WAT      O91537   0.563   6.169   4.621
30432WAT     H191538   0.659   6.174   4.593
30432WAT     H291539   0.505   6.197   4.545
30433WAT      O91540   6.243   0.961   2.868
30433WAT     H191541   6.342   0.950   2.863
30433WAT     H291542   6.202   0.876   2.899
30434WAT      O91543   6.755   1.877   1.360
30434WAT     H191544   6.777   1.964   1.315
30434WAT     H291545   6.664   1.884   1.402
30435WAT      O91546   5.905   2.911   9.433
30435WAT     H191547   6.001   2.898   9.410
30435WAT     H291548   5.855   2.944   9.353
30436WAT      O91549   1.855   4.141   1.004
30436WAT     H191550   1.825   4.217   0.947
30436WAT     H291551   1.775   4.092   1.039
30437WAT      O91552   3.789   8.100   1.032
30437WAT     H191553   3.702   8.147   1.020
30437WAT     H291554   3.863   8.155   0.994
30438WAT      O91555   9.817   9.691   2.769
30438WAT     H191556   9.871   9.700   2.853
30438WAT     H291557   9.734   9.745   2.777
30439WAT      O91558   4.832   1.332   3.612
30439WAT     H191559   4.837   1.238   3.647
30439WAT     H291560   4.865   1.395   3.683
30440WAT      O91561   9.821   5.788   5.033
30440WAT     H191562   9.859   5.728   4.963
30440WAT     H291563   9.853   5.882   5.017
30441WAT      O91564   6.744   5.679   0.245
30441WAT     H191565   6.741   5.779   0.248
30441WAT     H291566   6.657   5.641   0.276
30442WAT      O91567   4.810   9.694   5.116
30442WAT     H191568   4.715   9.724   5.113
30442WAT     H291569   4.845   9.682   5.023
30443WAT      O91570   4.641   3.356   4.006
30443WAT     H191571   4.663   3.450   4.032
30443WAT     H291572   4.548   3.352   3.969
30444WAT      O91573   8.885   4.265   0.377
30444WAT     H191574   8.789   4.282   0.357
30444WAT     H291575   8.906   4.169   0.360
30445WAT      O91576   7.222   8.342   4.943
30445WAT     H191577   7.257   8.371   5.032
30445WAT     H291578   7.298   8.329   4.879
30446WAT      O91579   8.470   5.752   0.064
30446WAT     H191580   8.489   5.740  -0.034
30446WAT     H291581   8.542   5.808   0.105
30447WAT      O91582   9.494   8.215   5.209
30447WAT     H191583   9.416   8.163   5.175
30447WAT     H291584   9.479   8.312   5.192
30448WAT      O91585   3.337   2.783   7.780
30448WAT     H191586   3.385   2.842   7.716
30448WAT     H291587   3.238   2.787   7.762
30449WAT      O91588   4.255   1.063   7.069
30449WAT     H191589   4.325   1.134   7.059
30449WAT     H291590   4.165   1.107   7.075
30450WAT      O91591   9.593   2.413   1.122
30450WAT     H191592   9.494   2.416   1.130
30450WAT     H291593   9.634   2.400   1.212
30451WAT      O91594   9.485   9.311   3.254
30451WAT     H191595   9.450   9.287   3.163
30451WAT     H291596   9.458   9.404   3.277
30452WAT      O91597   8.645   5.302   9.275
30452WAT     H191598   8.683   5.240   9.344
30452WAT     H291599   8.564   5.348   9.313
30453WAT      O91600   5.931   9.169   0.095
30453WAT     H191601   5.964   9.096   0.035
30453WAT     H291602   5.839   9.197   0.065
30454WAT      O91603   9.685   2.609   4.559
30454WAT     H191604   9.697   2.517   4.523
30454WAT     H291605   9.740   2.673   4.505
30455WAT      O91606   4.543   5.719   3.656
30455WAT     H191607   4.638   5.690   3.667
30455WAT     H291608   4.541   5.807   3.608
30456WAT      O91609   3.269   8.751   4.991
30456WAT     H191610   3.305   8.681   4.930
30456WAT     H291611   3.189   8.714   5.040
30457WAT      O91612   5.166   9.604   2.083
30457WAT     H191613   5.196   9.511   2.103
30457WAT     H291614   5.194   9.665   2.157
30458WAT      O91615   9.373   0.621   1.505
30458WAT     H191616   9.328   0.534   1.483
30458WAT     H291617   9.397   0.669   1.420
30459WAT      O91618   9.138   1.540   2.892
30459WAT     H191619   9.235   1.522   2.877
30459WAT     H291620   9.101   1.473   2.956
30460WAT      O91621   3.151   2.542   3.753
30460WAT     H191622   3.060   2.546   3.711
30460WAT     H291623   3.172   2.630   3.795
30461WAT      O91624   3.305   2.328   5.036
30461WAT     H191625   3.344   2.275   5.112
30461WAT     H291626   3.375   2.339   4.964
30462WAT      O91627   1.176   7.414   4.345
30462WAT     H191628   1.213   7.484   4.283
30462WAT     H291629   1.110   7.358   4.295
30463WAT      O91630   3.382   1.171   9.052
30463WAT     H191631   3.428   1.138   9.134
30463WAT     H291632   3.288   1.196   9.073
30464WAT      O91633   3.189   7.347   0.940
30464WAT     H191634   3.238   7.397   0.868
30464WAT     H291635   3.106   7.398   0.965
30465WAT      O91636   8.666   4.351   2.413
30465WAT     H191637   8.753   4.303   2.417
30465WAT     H291638   8.593   4.286   2.393
30466WAT      O91639   0.906   5.365   1.813
30466WAT     H191640   0.943   5.273   1.795
30466WAT     H291641   0.834   5.359   1.883
30467WAT      O91642   7.089   7.300   0.234
30467WAT     H191643   7.078   7.246   0.151
30467WAT     H291644   7.121   7.241   0.308
30468WAT      O91645   1.067   1.065   7.591
30468WAT     H191646   1.086   1.047   7.687
30468WAT     H291647   1.059   1.164   7.577
30469WAT      O91648   7.167   3.989   2.369
30469WAT     H191649   7.214   3.901   2.362
30469WAT     H291650   7.231   4.063   2.349
30470WAT      O91651   7.817   3.105   7.366
30470WAT     H191652   7.805   3.203   7.381
30470WAT     H291653   7.897   3.073   7.417
30471WAT      O91654   5.525   9.250   7.801
30471WAT     H191655   5.604   9.305   7.828
30471WAT     H291656   5.480   9.292   7.722
30472WAT      O91657   5.334   7.080   1.413
30472WAT     H191658   5.295   7.160   1.459
30472WAT     H291659   5.368   7.107   1.323
30473WAT      O91660   5.985   9.053   9.729
30473WAT     H191661   6.059   8.999   9.688
30473WAT     H291662   5.960   9.128   9.667
30474WAT      O91663   3.811   0.866   6.388
30474WAT     H191664   3.907   0.866   6.414
30474WAT     H291665   3.756   0.902   6.463
30475WAT      O91666   1.208   0.439   2.285
30475WAT     H191667   1.183   0.454   2.380
30475WAT     H291668   1.228   0.343   2.270
30476WAT      O91669   7.889   2.152   3.212
30476WAT     H191670   7.891   2.192   3.303
30476WAT     H291671   7.815   2.085   3.206
30477WAT      O91672   3.539   9.315   8.067
30477WAT     H191673   3.514   9.257   8.144
30477WAT     H291674   3.456   9.351   8.023
30478WAT      O91675   3.196   3.964   4.497
30478WAT     H191676   3.168   3.869   4.512
30478WAT     H291677   3.164   3.994   4.407
30479WAT      O91678   4.438   3.414   7.946
30479WAT     H191679   4.489   3.353   7.885
30479WAT     H291680   4.404   3.362   8.024
30480WAT      O91681   8.990   0.808   4.571
30480WAT     H191682   9.078   0.805   4.524
30480WAT     H291683   8.990   0.741   4.646
30481WAT      O91684   0.945   5.769   0.407
30481WAT     H191685   0.872   5.747   0.472
30481WAT     H291686   1.013   5.828   0.451
30482WAT      O91687   2.594   5.525   8.642
30482WAT     H191688   2.526   5.524   8.568
30482WAT     H291689   2.548   5.519   8.730
30483WAT      O91690   4.106   1.285   4.254
30483WAT     H191691   4.151   1.196   4.259
30483WAT     H291692   4.089   1.319   4.347
30484WAT      O91693   7.667   1.697   5.918
30484WAT     H191694   7.569   1.720   5.916
30484WAT     H291695   7.717   1.769   5.967
30485WAT      O91696   6.503   7.720   5.314
30485WAT     H191697   6.541   7.781   5.384
30485WAT     H291698   6.430   7.664   5.354
30486WAT      O91699   5.228   0.592   4.582
30486WAT     H191700   5.325   0.570   4.590
30486WAT     H291701   5.202   0.658   4.652
30487WAT      O91702   2.711   0.782   2.696
30487WAT     H191703   2.686   0.874   2.666
30487WAT     H291704   2.731   0.726   2.616
30488WAT      O91705   8.841   7.026   0.372
30488WAT     H191706   8.903   7.095   0.411
30488WAT     H291707   8.759   7.019   0.428
30489WAT      O91708   5.256   6.524   8.987
30489WAT     H191709   5.172   6.556   8.942
30489WAT     H291710   5.231   6.463   9.062
30490WAT      O91711   2.196   7.941   6.925
30490WAT     H191712   2.110   7.900   6.957
30490WAT     H291713   2.214   8.024   6.978
30491WAT      O91714   0.360   7.076   1.783
30491WAT     H191715   0.343   7.026   1.869
30491WAT     H291716   0.365   7.174   1.802
30492WAT      O91717   6.720   6.491   7.906
30492WAT     H191718   6.738   6.584   7.874
30492WAT     H291719   6.715   6.490   8.006
30493WAT      O91720   8.762   4.266   7.125
30493WAT     H191721   8.754   4.215   7.039
30493WAT     H291722   8.801   4.207   7.195
30494WAT      O91723   8.473   1.180   6.116
30494WAT     H191724   8.508   1.096   6.074
30494WAT     H291725   8.394   1.158   6.173
30495WAT      O91726   3.503   8.465   0.635
30495WAT     H191727   3.591   8.417   0.645
30495WAT     H291728   3.454   8.463   0.722
30496WAT      O91729   2.778   4.971   6.090
30496WAT     H191730   2.750   5.059   6.130
30496WAT     H291731   2.698   4.927   6.048
30497WAT      O91732   5.722   1.203   2.856
30497WAT     H191733   5.690   1.298   2.863
30497WAT     H291734   5.647   1.145   2.825
30498WAT      O91735   8.469   3.393   6.539
30498WAT     H191736   8.520   3.458   6.595
30498WAT     H291737   8.532   3.346   6.478
30499WAT      O91738   3.888   8.187   5.385
30499WAT     H191739   3.913   8.091   5.398
30499WAT     H291740   3.789   8.195   5.377
30500WAT      O91741   8.487   4.549   8.651
30500WAT     H191742   8.444   4.478   8.707
30500WAT     H291743   8.467   4.533   8.555
30501WAT      O91744   2.062   3.312   5.187
30501WAT     H191745   1.966   3.301   5.211
30501WAT     H291746   2.115   3.238   5.228
30502WAT      O91747   2.768   7.695   9.195
30502WAT     H191748   2.729   7.688   9.103
30502WAT     H291749   2.819   7.611   9.216
30503WAT      O91750   1.618   9.554   9.848
30503WAT     H191751   1.522   9.579   9.855
30503WAT     H291752   1.630   9.487   9.774
30504WAT      O91753   9.863   2.864   0.521
30504WAT     H191754   9.817   2.906   0.599
30504WAT     H291755   9.909   2.935   0.467
30505WAT      O91756   8.881   8.770   6.631
30505WAT     H191757   8.785   8.745   6.632
30505WAT     H291758   8.907   8.801   6.540
30506WAT      O91759   4.382   3.262   2.986
30506WAT     H191760   4.295   3.267   2.937
30506WAT     H291761   4.456   3.289   2.925
30507WAT      O91762   9.535   6.004   6.768
30507WAT     H191763   9.454   5.966   6.724
30507WAT     H291764   9.508   6.079   6.829
30508WAT      O91765   4.739   5.222   8.395
30508WAT     H191766   4.719   5.244   8.300
30508WAT     H291767   4.666   5.164   8.431
30509WAT      O91768   3.245   8.100   6.905
30509WAT     H191769   3.314   8.156   6.859
30509WAT     H291770   3.267   8.003   6.891
30510WAT      O91771   6.780   6.932   6.583
30510WAT     H191772   6.785   6.835   6.561
30510WAT     H291773   6.708   6.948   6.650
30511WAT      O91774   3.322   6.371   2.890
30511WAT     H191775   3.307   6.459   2.935
30511WAT     H291776   3.320   6.297   2.958
30512WAT      O91777   7.052   1.887   8.872
30512WAT     H191778   7.135   1.832   8.860
30512WAT     H291779   6.988   1.865   8.799
30513WAT      O91780   3.829   9.431   8.226
30513WAT     H191781   3.891   9.456   8.152
30513WAT     H291782   3.789   9.341   8.208
30514WAT      O91783   5.616   6.101   5.101
30514WAT     H191784   5.646   6.178   5.157
30514WAT     H291785   5.527   6.070   5.134
30515WAT      O91786   4.787   8.672   7.151
30515WAT     H191787   4.758   8.643   7.060
30515WAT     H291788   4.724   8.636   7.220
30516WAT      O91789   1.798   3.392   3.544
30516WAT     H191790   1.769   3.475   3.591
30516WAT     H291791   1.845   3.332   3.609
30517WAT      O91792   9.715   1.649   4.641
30517WAT     H191793   9.682   1.570   4.692
30517WAT     H291794   9.694   1.733   4.693
30518WAT      O91795   5.234   7.733   1.557
30518WAT     H191796   5.302   7.772   1.619
30518WAT     H291797   5.144   7.774   1.576
30519WAT      O91798   6.603   9.345   5.958
30519WAT     H191799   6.570   9.438   5.941
30519WAT     H291800   6.541   9.279   5.915
30520WAT      O91801   7.204   6.987   3.534
30520WAT     H191802   7.252   6.900   3.530
30520WAT     H291803   7.240   7.042   3.610
30521WAT      O91804   2.669   4.710   8.767
30521WAT     H191805   2.697   4.740   8.676
30521WAT     H291806   2.750   4.697   8.824
30522WAT      O91807   4.703   7.100   4.197
30522WAT     H191808   4.714   7.004   4.222
30522WAT     H291809   4.623   7.137   4.244
30523WAT      O91810   0.915   5.219   4.848
30523WAT     H191811   0.992   5.198   4.788
30523WAT     H291812   0.939   5.296   4.908
30524WAT      O91813   2.955   1.325   4.863
30524WAT     H191814   2.869   1.344   4.817
30524WAT     H291815   2.955   1.365   4.954
30525WAT      O91816   0.554   2.582   8.889
30525WAT     H191817   0.611   2.635   8.951
30525WAT     H291818   0.479   2.540   8.941
30526WAT      O91819   1.361   7.203   4.410
30526WAT     H191820   1.294   7.269   4.377
30526WAT     H291821   1.443   7.207   4.352
30527WAT      O91822   0.898   5.244   1.082
30527WAT     H191823   0.950   5.232   1.167
30527WAT     H291824   0.910   5.163   1.024
30528WAT      O91825   8.714   1.205   9.513
30528WAT     H191826   8.665   1.155   9.442
30528WAT     H291827   8.783   1.145   9.554
30529WAT      O91828   7.102   7.029   1.633
30529WAT     H191829   7.057   7.119   1.633
30529WAT     H291830   7.042   6.963   1.678
30530WAT      O91831   3.149   2.792   3.942
30530WAT     H191832   3.165   2.845   4.025
30530WAT     H291833   3.197   2.836   3.865
30531WAT      O91834   5.576   7.084   8.628
30531WAT     H191835   5.631   7.009   8.591
30531WAT     H291836   5.591   7.166   8.573
30532WAT      O91837   2.102   8.891   9.473
30532WAT     H191838   2.082   8.847   9.561
30532WAT     H291839   2.159   8.830   9.418
30533WAT      O91840   3.061   4.292   0.853
30533WAT     H191841   3.021   4.324   0.767
30533WAT     H291842   3.118   4.364   0.892
30534WAT      O91843   5.445   2.747   5.781
30534WAT     H191844   5.404   2.818   5.838
30534WAT     H291845   5.379   2.715   5.714
30535WAT      O91846   9.226   8.316   2.324
30535WAT     H191847   9.310   8.319   2.270
30535WAT     H291848   9.147   8.314   2.262
30536WAT      O91849   1.581   2.877   0.745
30536WAT     H191850   1.578   2.944   0.671
30536WAT     H291851   1.494   2.878   0.794
30537WAT      O91852   1.555   8.198   5.926
30537WAT     H191853   1.606   8.281   5.949
30537WAT     H291854   1.486   8.180   5.996
30538WAT      O91855   2.000   1.865   9.534
30538WAT     H191856   2.040   1.890   9.446
30538WAT     H291857   1.980   1.767   9.534
30539WAT      O91858   7.995   8.605   0.683
30539WAT     H191859   8.061   8.675   0.658
30539WAT     H291860   7.947   8.574   0.601
30540WAT      O91861   9.058   2.173   3.423
30540WAT     H191862   9.085   2.182   3.327
30540WAT     H291863   9.130   2.126   3.474
30541WAT      O91864   4.687   0.262   7.470
30541WAT     H191865   4.752   0.261   7.393
30541WAT     H291866   4.693   0.175   7.519
30542WAT      O91867   5.202   1.069   0.903
30542WAT     H191868   5.126   1.009   0.927
30542WAT     H291869   5.275   1.059   0.972
30543WAT      O91870   0.700   9.545   9.568
30543WAT     H191871   0.747   9.458   9.577
30543WAT     H291872   0.671   9.578   9.658
30544WAT      O91873   8.875   7.695   2.408
30544WAT     H191874   8.903   7.644   2.326
30544WAT     H291875   8.795   7.750   2.387
30545WAT      O91876   1.887   0.662   5.201
30545WAT     H191877   1.930   0.574   5.182
30545WAT     H291878   1.831   0.689   5.122
30546WAT      O91879   7.796   3.579   1.611
30546WAT     H191880   7.814   3.525   1.529
30546WAT     H291881   7.709   3.627   1.601
30547WAT      O91882   0.687   3.669   8.655
30547WAT     H191883   0.678   3.624   8.566
30547WAT     H291884   0.720   3.603   8.722
30548WAT      O91885   3.058   5.114   4.714
30548WAT     H191886   3.139   5.113   4.771
30548WAT     H291887   3.056   5.198   4.660
30549WAT      O91888   1.920   0.008   9.319
30549WAT     H191889   1.873   0.015   9.231
30549WAT     H291890   1.972   0.091   9.336
30550WAT      O91891   3.018   1.283   6.891
30550WAT     H191892   2.973   1.346   6.827
30550WAT     H291893   2.971   1.195   6.889
30551WAT      O91894   2.575   9.244   9.458
30551WAT     H191895   2.499   9.226   9.522
30551WAT     H291896   2.660   9.255   9.510
30552WAT      O91897   0.574   5.081   3.800
30552WAT     H191898   0.604   4.986   3.812
30552WAT     H291899   0.654   5.140   3.786
30553WAT      O91900   3.810   6.644   2.537
30553WAT     H191901   3.897   6.612   2.575
30553WAT     H291902   3.752   6.677   2.612
30554WAT      O91903   0.447   3.493   9.145
30554WAT     H191904   0.423   3.462   9.237
30554WAT     H291905   0.512   3.429   9.105
30555WAT      O91906   7.057   8.685   2.516
30555WAT     H191907   6.999   8.693   2.435
30555WAT     H291908   7.118   8.764   2.521
30556WAT      O91909   7.538   8.742   4.389
30556WAT     H191910   7.525   8.757   4.291
30556WAT     H291911   7.630   8.705   4.405
30557WAT      O91912   9.577   9.537   7.598
30557WAT     H191913   9.658   9.486   7.627
30557WAT     H291914   9.512   9.542   7.673
30558WAT      O91915   9.602   5.696   7.867
30558WAT     H191916   9.629   5.668   7.775
30558WAT     H291917   9.646   5.636   7.934
30559WAT      O91918   1.939   4.247   5.638
30559WAT     H191919   1.878   4.187   5.689
30559WAT     H291920   1.932   4.340   5.673
30560WAT      O91921   8.292   6.515   2.074
30560WAT     H191922   8.296   6.611   2.046
30560WAT     H291923   8.224   6.467   2.020
30561WAT      O91924   8.476   8.263   3.552
30561WAT     H191925   8.445   8.259   3.457
30561WAT     H291926   8.445   8.347   3.595
30562WAT      O91927   0.042   5.810   2.182
30562WAT     H191928   0.088   5.899   2.188
30562WAT     H291929  -0.050   5.817   2.221
30563WAT      O91930   9.405   0.630   5.663
30563WAT     H191931   9.313   0.670   5.665
30563WAT     H291932   9.444   0.632   5.755
30564WAT      O91933   8.695   2.194   2.467
30564WAT     H191934   8.609   2.245   2.461
30564WAT     H291935   8.693   2.134   2.547
30565WAT      O91936   4.791   8.487   1.692
30565WAT     H191937   4.807   8.468   1.595
30565WAT     H291938   4.754   8.579   1.702
30566WAT      O91939   6.234   1.400   7.497
30566WAT     H191940   6.191   1.482   7.461
30566WAT     H291941   6.165   1.343   7.542
30567WAT      O91942   1.144   4.684   9.143
30567WAT     H191943   1.149   4.773   9.098
30567WAT     H291944   1.072   4.629   9.100
30568WAT      O91945   3.408   7.130   2.948
30568WAT     H191946   3.396   7.205   2.883
30568WAT     H291947   3.332   7.130   3.013
30569WAT      O91948   1.632   1.926   8.201
30569WAT     H191949   1.723   1.889   8.179
30569WAT     H291950   1.563   1.857   8.183
30570WAT      O91951   0.543   9.319   1.583
30570WAT     H191952   0.628   9.295   1.537
30570WAT     H291953   0.480   9.241   1.581
30571WAT      O91954   7.470   8.749   4.127
30571WAT     H191955   7.381   8.705   4.138
30571WAT     H291956   7.532   8.689   4.076
30572WAT      O91957   1.400   0.007   8.403
30572WAT     H191958   1.314   0.018   8.355
30572WAT     H291959   1.383   0.005   8.502
30573WAT      O91960   6.945   5.745   8.155
30573WAT     H191961   6.882   5.723   8.080
30573WAT     H291962   7.029   5.690   8.144
30574WAT      O91963   4.982   3.853   9.482
30574WAT     H191964   5.040   3.831   9.561
30574WAT     H291965   5.025   3.820   9.398
30575WAT      O91966   3.473   2.342   0.063
30575WAT     H191967   3.446   2.423   0.010
30575WAT     H291968   3.475   2.262   0.004
30576WAT      O91969   1.826   7.669   8.623
30576WAT     H191970   1.887   7.747   8.637
30576WAT     H291971   1.808   7.658   8.525
30577WAT      O91972   3.988   9.515   0.770
30577WAT     H191973   3.985   9.466   0.683
30577WAT     H291974   4.069   9.487   0.821
30578WAT      O91975   9.847   6.988   0.098
30578WAT     H191976   9.883   7.051   0.166
30578WAT     H291977   9.758   6.954   0.127
30579WAT      O91978   2.297   8.590   3.146
30579WAT     H191979   2.335   8.613   3.236
30579WAT     H291980   2.232   8.661   3.118
30580WAT      O91981   7.632   9.506   9.765
30580WAT     H191982   7.663   9.572   9.834
30580WAT     H291983   7.662   9.536   9.675
30581WAT      O91984   7.200   2.063   9.269
30581WAT     H191985   7.202   2.150   9.318
30581WAT     H291986   7.126   2.063   9.202
30582WAT      O91987   9.620   5.784   9.860
30582WAT     H191988   9.647   5.788   9.764
30582WAT     H291989   9.548   5.716   9.872
30583WAT      O91990   0.165   9.767   1.813
30583WAT     H191991   0.189   9.675   1.842
30583WAT     H291992   0.116   9.813   1.887
30584WAT      O91993   0.482   1.354   3.095
30584WAT     H191994   0.487   1.390   3.189
30584WAT     H291995   0.445   1.261   3.097
30585WAT      O91996   0.769   1.838   2.800
30585WAT     H191997   0.821   1.884   2.729
30585WAT     H291998   0.761   1.741   2.779
30586WAT      O91999   0.724   5.343   9.731
30586WAT     H192000   0.637   5.356   9.684
30586WAT     H292001   0.730   5.248   9.762
30587WAT      O92002   6.899   5.136   4.909
30587WAT     H192003   6.806   5.171   4.910
30587WAT     H292004   6.960   5.203   4.869
30588WAT      O92005   0.240   0.150   6.647
30588WAT     H192006   0.198   0.107   6.727
30588WAT     H292007   0.243   0.249   6.661
30589WAT      O92008   1.135   9.161   1.286
30589WAT     H192009   1.069   9.153   1.211
30589WAT     H292010   1.199   9.235   1.266
30590WAT      O92011   2.021   6.547   9.090
30590WAT     H192012   2.061   6.633   9.060
30590WAT     H292013   1.950   6.519   9.026
30591WAT      O92014   5.345   6.705   9.608
30591WAT     H192015   5.410   6.637   9.574
30591WAT     H292016   5.374   6.737   9.699
30592WAT      O92017   1.721   6.070   4.206
30592WAT     H192018   1.662   6.112   4.137
30592WAT     H292019   1.815   6.064   4.171
30593WAT      O92020   8.114   7.623   9.133
30593WAT     H192021   8.086   7.527   9.133
30593WAT     H292022   8.214   7.628   9.139
30594WAT      O92023   6.883   7.464   7.494
30594WAT     H192024   6.843   7.441   7.405
30594WAT     H292025   6.981   7.481   7.483
30595WAT      O92026   6.849   8.247   3.651
30595WAT     H192027   6.837   8.346   3.642
30595WAT     H292028   6.782   8.200   3.592
30596WAT      O92029   0.706   7.089   4.134
30596WAT     H192030   0.647   7.094   4.053
30596WAT     H292031   0.666   7.144   4.208
30597WAT      O92032   1.599   4.865   6.152
30597WAT     H192033   1.514   4.813   6.152
30597WAT     H292034   1.661   4.828   6.222
30598WAT      O92035   3.791   5.060   1.061
30598WAT     H192036   3.786   5.061   1.161
30598WAT     H292037   3.862   4.995   1.033
30599WAT      O92038   6.196   3.793   0.015
30599WAT     H192039   6.134   3.742   0.076
30599WAT     H292040   6.288   3.753   0.020
30600WAT      O92041   0.195   5.304   4.503
30600WAT     H192042   0.209   5.230   4.569
30600WAT     H292043   0.172   5.266   4.414
30601WAT      O92044   6.462   7.540   1.844
30601WAT     H192045   6.529   7.564   1.914
30601WAT     H292046   6.392   7.611   1.839
30602WAT      O92047   5.355   9.307   8.321
30602WAT     H192048   5.335   9.339   8.413
30602WAT     H292049   5.314   9.217   8.307
30603WAT      O92050   4.247   8.082   8.566
30603WAT     H192051   4.209   8.068   8.658
30603WAT     H292052   4.258   7.993   8.521
30604WAT      O92053   9.693   4.096   8.414
30604WAT     H192054   9.787   4.127   8.432
30604WAT     H292055   9.692   3.997   8.406
30605WAT      O92056   9.229   6.394   5.851
30605WAT     H192057   9.139   6.413   5.888
30605WAT     H292058   9.242   6.445   5.765
30606WAT      O92059   5.255   8.824   2.392
30606WAT     H192060   5.251   8.770   2.476
30606WAT     H292061   5.283   8.918   2.414
30607WAT      O92062   9.578   8.728   9.696
30607WAT     H192063   9.521   8.677   9.760
30607WAT     H292064   9.648   8.778   9.747
30608WAT      O92065   3.478   2.345   2.406
30608WAT     H192066   3.574   2.326   2.426
30608WAT     H292067   3.464   2.444   2.398
30609WAT      O92068   2.352   6.848   7.384
30609WAT     H192069   2.410   6.779   7.341
30609WAT     H292070   2.259   6.840   7.351
30610WAT      O92071   7.096   4.183   3.930
30610WAT     H192072   7.062   4.225   4.014
30610WAT     H292073   7.047   4.098   3.912
30611WAT      O92074   5.849   9.409   9.341
30611WAT     H192075   5.904   9.360   9.274
30611WAT     H292076   5.900   9.487   9.376
30612WAT      O92077   1.082   0.055   2.743
30612WAT     H192078   1.166   0.064   2.690
30612WAT     H292079   1.034  -0.029   2.716
30613WAT      O92080   6.310   1.721   0.339
30613WAT     H192081   6.247   1.686   0.270
30613WAT     H292082   6.381   1.776   0.295
30614WAT      O92083   3.703   3.536   8.877
30614WAT     H192084   3.654   3.552   8.791
30614WAT     H292085   3.779   3.601   8.885
30615WAT      O92086   8.308   7.098   9.867
30615WAT     H192087   8.248   7.176   9.883
30615WAT     H292088   8.368   7.086   9.946
30616WAT      O92089   0.462   5.628   0.059
30616WAT     H192090   0.447   5.714   0.108
30616WAT     H292091   0.410   5.629  -0.026
30617WAT      O92092   7.319   9.238   3.677
30617WAT     H192093   7.308   9.177   3.598
30617WAT     H292094   7.359   9.324   3.646
30618WAT      O92095   3.769   3.579   2.872
30618WAT     H192096   3.672   3.581   2.848
30618WAT     H292097   3.820   3.639   2.811
30619WAT      O92098   4.416   8.548   6.563
30619WAT     H192099   4.329   8.508   6.592
30619WAT     H292100   4.406   8.647   6.554
30620WAT      O92101   4.073   5.306   1.607
30620WAT     H192102   4.146   5.337   1.546
30620WAT     H292103   4.111   5.245   1.676
30621WAT      O92104   2.493   9.511   3.870
30621WAT     H192105   2.535   9.584   3.924
30621WAT     H292106   2.556   9.433   3.865
30622WAT      O92107   5.230   9.745   7.717
30622WAT     H192108   5.170   9.665   7.714
30622WAT     H292109   5.279   9.746   7.804
30623WAT      O92110   3.125   6.989   0.127
30623WAT     H192111   3.168   7.034   0.049
30623WAT     H292112   3.113   6.892   0.107
30624WAT      O92113   0.776   0.920   0.490
30624WAT     H192114   0.831   0.838   0.472
30624WAT     H292115   0.682   0.892   0.509
30625WAT      O92116   3.354   1.789   8.761
30625WAT     H192117   3.295   1.870   8.755
30625WAT     H292118   3.440   1.813   8.805
30626WAT      O92119   8.999   6.242   9.521
30626WAT     H192120   9.069   6.173   9.544
30626WAT     H292121   9.013   6.273   9.427
30627WAT      O92122   0.285   8.449   8.320
30627WAT     H192123   0.317   8.427   8.412
30627WAT     H292124   0.186   8.462   8.321
30628WAT      O92125   4.401   4.608   2.250
30628WAT     H192126   4.416   4.704   2.226
30628WAT     H292127   4.490   4.562   2.258
30629WAT      O92128   7.015   0.538   4.020
30629WAT     H192129   7.078   0.461   4.019
30629WAT     H292130   7.032   0.594   4.101
30630WAT      O92131   4.024   2.380   2.393
30630WAT     H192132   4.000   2.284   2.410
30630WAT     H292133   3.967   2.416   2.319
30631WAT      O92134   4.346   3.967   2.919
30631WAT     H192135   4.308   3.883   2.957
30631WAT     H292136   4.314   3.979   2.825
30632WAT      O92137   4.703   9.313   5.658
30632WAT     H192138   4.707   9.344   5.753
30632WAT     H292139   4.787   9.262   5.637
30633WAT      O92140   3.520   1.199   6.355
30633WAT     H192141   3.520   1.243   6.265
30633WAT     H292142   3.442   1.138   6.363
30634WAT      O92143   6.074   1.366   0.039
30634WAT     H192144   6.074   1.362  -0.061
30634WAT     H292145   6.024   1.288   0.076
30635WAT      O92146   4.584   3.024   8.933
30635WAT     H192147   4.505   3.083   8.915
30635WAT     H292148   4.668   3.072   8.910
30636WAT      O92149   7.269   5.936   0.858
30636WAT     H192150   7.337   6.008   0.849
30636WAT     H292151   7.299   5.855   0.807
30637WAT      O92152   7.924   7.894   2.342
30637WAT     H192153   7.938   7.925   2.248
30637WAT     H292154   7.921   7.794   2.343
30638WAT      O92155   6.020   4.431   4.360
30638WAT     H192156   6.116   4.447   4.381
30638WAT     H292157   5.998   4.467   4.270
30639WAT      O92158   9.286   2.315   0.814
30639WAT     H192159   9.381   2.311   0.844
30639WAT     H292160   9.274   2.391   0.750
30640WAT      O92161   1.045   4.877   0.734
30640WAT     H192162   1.061   4.833   0.646
30640WAT     H292163   1.104   4.837   0.803
30641WAT      O92164   4.139   7.475   7.394
30641WAT     H192165   4.150   7.421   7.311
30641WAT     H292166   4.048   7.517   7.394
30642WAT      O92167   0.225   4.006   3.765
30642WAT     H192168   0.245   3.912   3.739
30642WAT     H292169   0.144   4.038   3.715
30643WAT      O92170   5.279   7.104   1.703
30643WAT     H192171   5.362   7.110   1.757
30643WAT     H292172   5.279   7.019   1.651
30644WAT      O92173   4.506   5.813   2.813
30644WAT     H192174   4.415   5.841   2.844
30644WAT     H292175   4.500   5.723   2.769
30645WAT      O92176   7.542   7.783   6.421
30645WAT     H192177   7.638   7.757   6.415
30645WAT     H292178   7.492   7.743   6.344
30646WAT      O92179   0.954   3.007   3.501
30646WAT     H192180   0.939   2.939   3.430
30646WAT     H292181   0.978   3.095   3.459
30647WAT      O92182   7.051   4.382   2.608
30647WAT     H192183   7.045   4.429   2.696
30647WAT     H292184   7.123   4.313   2.612
30648WAT      O92185   4.944   1.060   8.522
30648WAT     H192186   4.930   1.139   8.461
30648WAT     H292187   4.875   1.063   8.595
30649WAT      O92188   0.070   0.703   7.164
30649WAT     H192189   0.093   0.800   7.171
30649WAT     H292190   0.151   0.648   7.183
30650WAT      O92191   6.077   8.586   4.998
30650WAT     H192192   6.165   8.625   5.026
30650WAT     H292193   6.091   8.516   4.929
30651WAT      O92194   2.126   2.974   9.203
30651WAT     H192195   2.146   3.031   9.283
30651WAT     H292196   2.035   2.995   9.169
30652WAT      O92197   0.038   5.500   5.631
30652WAT     H192198  -0.035   5.455   5.681
30652WAT     H292199   0.103   5.540   5.696
30653WAT      O92200   2.292   7.618   3.942
30653WAT     H192201   2.289   7.709   3.903
30653WAT     H292202   2.209   7.602   3.996
30654WAT      O92203   6.852   4.863   8.490
30654WAT     H192204   6.879   4.959   8.485
30654WAT     H292205   6.773   4.853   8.550
30655WAT      O92206   2.870   5.307   3.355
30655WAT     H192207   2.773   5.293   3.338
30655WAT     H292208   2.882   5.354   3.443
30656WAT      O92209   3.232   7.992   8.201
30656WAT     H192210   3.305   8.013   8.135
30656WAT     H292211   3.234   7.894   8.222
30657WAT      O92212   2.316   3.964   8.551
30657WAT     H192213   2.356   4.054   8.565
30657WAT     H292214   2.375   3.895   8.593
30658WAT      O92215   6.620   5.656   2.381
30658WAT     H192216   6.665   5.616   2.301
30658WAT     H292217   6.660   5.746   2.400
30659WAT      O92218   1.271   1.093   5.311
30659WAT     H192219   1.250   1.007   5.265
30659WAT     H292220   1.185   1.141   5.331
30660WAT      O92221   4.254   5.471   1.037
30660WAT     H192222   4.230   5.544   0.973
30660WAT     H292223   4.247   5.506   1.131
30661WAT      O92224   0.410   4.488   2.557
30661WAT     H192225   0.430   4.466   2.462
30661WAT     H292226   0.477   4.444   2.617
30662WAT      O92227   4.531   3.852   0.564
30662WAT     H192228   4.437   3.846   0.529
30662WAT     H292229   4.545   3.942   0.606
30663WAT      O92230   8.540   8.644   1.671
30663WAT     H192231   8.444   8.618   1.672
30663WAT     H292232   8.581   8.621   1.583
30664WAT      O92233   9.281   9.834   6.423
30664WAT     H192234   9.306   9.918   6.473
30664WAT     H292235   9.340   9.759   6.453
30665WAT      O92236   3.578   5.991   4.798
30665WAT     H192237   3.616   6.065   4.852
30665WAT     H292238   3.488   6.018   4.763
30666WAT      O92239   6.322   4.123   6.932
30666WAT     H192240   6.272   4.067   6.997
30666WAT     H292241   6.270   4.206   6.913
30667WAT      O92242   3.379   7.356   6.390
30667WAT     H192243   3.420   7.391   6.474
30667WAT     H292244   3.433   7.387   6.311
30668WAT      O92245   6.287   3.817   8.417
30668WAT     H192246   6.298   3.729   8.463
30668WAT     H292247   6.238   3.881   8.477
30669WAT      O92248   6.619   8.728   4.572
30669WAT     H192249   6.580   8.802   4.517
30669WAT     H292250   6.610   8.642   4.522
30670WAT      O92251   1.360   0.414   1.355
30670WAT     H192252   1.437   0.476   1.368
30670WAT     H292253   1.286   0.462   1.307
30671WAT      O92254   0.000   4.013   6.586
30671WAT     H192255   0.091   4.049   6.608
30671WAT     H292256  -0.068   4.060   6.642
30672WAT      O92257   7.935   0.005   1.270
30672WAT     H192258   7.996   0.071   1.314
30672WAT     H292259   7.907  -0.064   1.336
30673WAT      O92260   3.820   4.708   8.499
30673WAT     H192261   3.736   4.760   8.512
30673WAT     H292262   3.871   4.745   8.421
30674WAT      O92263   1.661   6.267   8.243
30674WAT     H192264   1.633   6.316   8.161
30674WAT     H292265   1.645   6.169   8.231
30675WAT      O92266   3.221   9.720   0.776
30675WAT     H192267   3.129   9.713   0.736
30675WAT     H292268   3.215   9.707   0.875
30676WAT      O92269   4.444   9.540   0.835
30676WAT     H192270   4.475   9.534   0.740
30676WAT     H292271   4.360   9.486   0.846
30677WAT      O92272   6.095   5.910   4.439
30677WAT     H192273   6.000   5.896   4.466
30677WAT     H292274   6.100   5.988   4.376
30678WAT      O92275   8.466   9.234   7.864
30678WAT     H192276   8.526   9.186   7.928
30678WAT     H292277   8.446   9.326   7.897
30679WAT      O92278   1.111   3.365   6.534
30679WAT     H192279   1.075   3.451   6.497
30679WAT     H292280   1.034   3.307   6.563
30680WAT      O92281   7.241   5.922   6.500
30680WAT     H192282   7.301   5.917   6.580
30680WAT     H292283   7.293   5.894   6.419
30681WAT      O92284   6.674   8.219   8.387
30681WAT     H192285   6.639   8.185   8.300
30681WAT     H292286   6.727   8.148   8.432
30682WAT      O92287   7.169   3.332   6.463
30682WAT     H192288   7.194   3.239   6.437
30682WAT     H292289   7.148   3.335   6.561
30683WAT      O92290   0.988   7.934   5.744
30683WAT     H192291   1.035   7.913   5.829
30683WAT     H292292   0.904   7.985   5.763
30684WAT      O92293   5.430   5.272   7.548
30684WAT     H192294   5.450   5.255   7.645
30684WAT     H292295   5.335   5.246   7.530
30685WAT      O92296   5.928   5.938   2.284
30685WAT     H192297   5.961   5.848   2.310
30685WAT     H292298   5.877   5.931   2.198
30686WAT      O92299   5.135   2.029   4.176
30686WAT     H192300   5.136   1.974   4.260
30686WAT     H292301   5.221   2.016   4.127
30687WAT      O92302   6.026   4.021   7.183
30687WAT     H192303   6.029   4.084   7.105
30687WAT     H292304   6.092   3.947   7.168
30688WAT      O92305   1.986   0.788   0.311
30688WAT     H192306   2.083   0.783   0.288
30688WAT     H292307   1.943   0.862   0.259
30689WAT      O92308   1.152   3.631   5.265
30689WAT     H192309   1.087   3.558   5.285
30689WAT     H292310   1.214   3.602   5.192
30690WAT      O92311   1.517   6.603   5.057
30690WAT     H192312   1.439   6.566   5.007
30690WAT     H292313   1.525   6.701   5.039
30691WAT      O92314   7.515   7.230   1.612
30691WAT     H192315   7.469   7.270   1.532
30691WAT     H292316   7.582   7.295   1.647
30692WAT      O92317   5.641   3.662   4.899
30692WAT     H192318   5.591   3.619   4.974
30692WAT     H292319   5.652   3.597   4.825
30693WAT      O92320   7.576   4.451   8.275
30693WAT     H192321   7.622   4.506   8.345
30693WAT     H292322   7.522   4.379   8.319
30694WAT      O92323   6.810   1.656   1.969
30694WAT     H192324   6.735   1.704   1.924
30694WAT     H292325   6.889   1.652   1.908
30695WAT      O92326   9.219   1.851   0.971
30695WAT     H192327   9.123   1.840   0.945
30695WAT     H292328   9.269   1.897   0.897
30696WAT      O92329   6.238   1.814   8.095
30696WAT     H192330   6.232   1.842   7.999
30696WAT     H292331   6.309   1.867   8.140
30697WAT      O92332   0.797   5.369   2.345
30697WAT     H192333   0.755   5.295   2.398
30697WAT     H292334   0.870   5.412   2.398
30698WAT      O92335   7.741   4.954   1.643
30698WAT     H192336   7.681   5.030   1.667
30698WAT     H292337   7.783   4.971   1.554
30699WAT      O92338   6.722   1.638   2.442
30699WAT     H192339   6.802   1.690   2.473
30699WAT     H292340   6.733   1.541   2.464
30700WAT      O92341   2.058   0.255   6.569
30700WAT     H192342   2.028   0.304   6.487
30700WAT     H292343   2.077   0.320   6.642
30701WAT      O92344   5.940   5.306   0.740
30701WAT     H192345   5.860   5.274   0.790
30701WAT     H292346   5.911   5.342   0.651
30702WAT      O92347   4.474   0.739   2.304
30702WAT     H192348   4.520   0.661   2.346
30702WAT     H292349   4.380   0.715   2.282
30703WAT      O92350   3.520   7.489   1.323
30703WAT     H192351   3.561   7.560   1.266
30703WAT     H292352   3.480   7.418   1.264
30704WAT      O92353   3.769   4.330   0.450
30704WAT     H192354   3.736   4.383   0.372
30704WAT     H292355   3.796   4.239   0.419
30705WAT      O92356   4.553   6.315   0.407
30705WAT     H192357   4.651   6.319   0.388
30705WAT     H292358   4.503   6.312   0.320
30706WAT      O92359   7.652   1.036   4.972
30706WAT     H192360   7.714   1.090   4.915
30706WAT     H292361   7.558   1.067   4.956
30707WAT      O92362   9.836   9.410   3.699
30707WAT     H192363   9.915   9.444   3.648
30707WAT     H292364   9.793   9.486   3.748
30708WAT      O92365   8.711   0.188   7.593
30708WAT     H192366   8.736   0.168   7.688
30708WAT     H292367   8.616   0.220   7.590
30709WAT      O92368   8.391   6.115   4.578
30709WAT     H192369   8.435   6.075   4.658
30709WAT     H292370   8.415   6.063   4.497
30710WAT      O92371   2.650   2.284   7.755
30710WAT     H192372   2.668   2.242   7.666
30710WAT     H292373   2.733   2.278   7.811
30711WAT      O92374   4.500   9.066   9.571
30711WAT     H192375   4.528   9.146   9.518
30711WAT     H292376   4.476   9.094   9.664
30712WAT      O92377   2.017   8.344   6.714
30712WAT     H192378   1.981   8.304   6.799
30712WAT     H292379   2.086   8.283   6.675
30713WAT      O92380   5.915   0.922   6.994
30713WAT     H192381   5.866   0.889   6.913
30713WAT     H292382   5.947   0.843   7.048
30714WAT      O92383   1.755   5.957   4.596
30714WAT     H192384   1.730   6.033   4.536
30714WAT     H292385   1.709   5.968   4.684
30715WAT      O92386   5.863   9.706   5.081
30715WAT     H192387   5.823   9.622   5.044
30715WAT     H292388   5.945   9.729   5.029
30716WAT      O92389   5.478   3.665   3.440
30716WAT     H192390   5.483   3.752   3.490
30716WAT     H292391   5.413   3.674   3.364
30717WAT      O92392   4.025   4.088   0.760
30717WAT     H192393   4.083   4.144   0.819
30717WAT     H292394   3.970   4.148   0.702
30718WAT      O92395   8.020   6.647   6.829
30718WAT     H192396   7.957   6.573   6.854
30718WAT     H292397   7.975   6.735   6.839
30719WAT      O92398   2.065   3.449   7.057
30719WAT     H192399   2.098   3.381   7.123
30719WAT     H292400   2.135   3.520   7.046
30720WAT      O92401   9.090   2.351   7.556
30720WAT     H192402   9.120   2.378   7.464
30720WAT     H292403   9.002   2.305   7.550
30721WAT      O92404   8.241   2.403   3.588
30721WAT     H192405   8.315   2.416   3.522
30721WAT     H292406   8.187   2.487   3.593
30722WAT      O92407   5.421   6.401   3.707
30722WAT     H192408   5.359   6.360   3.774
30722WAT     H292409   5.421   6.347   3.623
30723WAT      O92410   4.236   1.347   9.330
30723WAT     H192411   4.254   1.300   9.244
30723WAT     H292412   4.196   1.437   9.312
30724WAT      O92413   8.570   5.688   7.360
30724WAT     H192414   8.626   5.618   7.316
30724WAT     H292415   8.485   5.699   7.308
30725WAT      O92416   8.865   0.809   0.867
30725WAT     H192417   8.898   0.891   0.820
30725WAT     H292418   8.766   0.801   0.856
30726WAT      O92419   6.864   8.011   5.238
30726WAT     H192420   6.769   8.033   5.219
30726WAT     H292421   6.924   8.063   5.177
30727WAT      O92422   3.101   9.772   7.182
30727WAT     H192423   3.099   9.822   7.269
30727WAT     H292424   3.045   9.819   7.115
30728WAT      O92425   9.382   7.926   2.763
30728WAT     H192426   9.375   7.966   2.671
30728WAT     H292427   9.348   7.832   2.761
30729WAT      O92428   5.502   8.531   2.046
30729WAT     H192429   5.468   8.577   2.128
30729WAT     H292430   5.433   8.537   1.974
30730WAT      O92431   3.819   6.014   2.612
30730WAT     H192432   3.798   5.982   2.519
30730WAT     H292433   3.798   6.111   2.619
30731WAT      O92434   5.488   1.679   8.142
30731WAT     H192435   5.582   1.667   8.109
30731WAT     H292436   5.477   1.630   8.229
30732WAT      O92437   5.243   8.262   6.760
30732WAT     H192438   5.183   8.311   6.823
30732WAT     H292439   5.221   8.165   6.761
30733WAT      O92440   3.221   0.498   5.189
30733WAT     H192441   3.315   0.473   5.214
30733WAT     H292442   3.170   0.416   5.166
30734WAT      O92443   5.221   8.706   5.626
30734WAT     H192444   5.283   8.629   5.644
30734WAT     H292445   5.274   8.791   5.625
30735WAT      O92446   9.486   1.275   4.977
30735WAT     H192447   9.561   1.296   5.040
30735WAT     H292448   9.428   1.204   5.016
30736WAT      O92449   3.571   7.769   0.218
30736WAT     H192450   3.631   7.701   0.175
30736WAT     H292451   3.508   7.806   0.150
30737WAT      O92452   4.468   7.901   3.015
30737WAT     H192453   4.449   7.807   3.042
30737WAT     H292454   4.490   7.956   3.096
30738WAT      O92455   7.683   2.215   5.664
30738WAT     H192456   7.783   2.218   5.667
30738WAT     H292457   7.654   2.136   5.609
30739WAT      O92458   2.301   3.362   1.283
30739WAT     H192459   2.208   3.329   1.300
30739WAT     H292460   2.300   3.432   1.211
30740WAT      O92461   0.906   6.490   9.175
30740WAT     H192462   0.811   6.461   9.185
30740WAT     H292463   0.955   6.474   9.261
30741WAT      O92464   9.540   2.284   9.634
30741WAT     H192465   9.513   2.347   9.707
30741WAT     H292466   9.531   2.329   9.545
30742WAT      O92467   7.047   8.584   3.831
30742WAT     H192468   7.058   8.559   3.927
30742WAT     H292469   7.124   8.547   3.778
30743WAT      O92470   2.076   7.732   3.380
30743WAT     H192471   2.142   7.666   3.344
30743WAT     H292472   2.002   7.745   3.314
30744WAT      O92473   5.550   7.487   6.704
30744WAT     H192474   5.474   7.531   6.656
30744WAT     H292475   5.525   7.472   6.799
30745WAT      O92476   1.551   0.396   6.063
30745WAT     H192477   1.570   0.388   5.965
30745WAT     H292478   1.463   0.353   6.083
30746WAT      O92479   1.599   7.350   3.498
30746WAT     H192480   1.691   7.378   3.470
30746WAT     H292481   1.536   7.427   3.489
30747WAT      O92482   2.519   0.263   0.319
30747WAT     H192483   2.430   0.304   0.300
30747WAT     H292484   2.544   0.280   0.414
30748WAT      O92485   3.667   2.104   8.632
30748WAT     H192486   3.568   2.110   8.617
30748WAT     H292487   3.713   2.091   8.544
30749WAT      O92488   5.095   8.679   1.387
30749WAT     H192489   5.094   8.602   1.324
30749WAT     H292490   5.110   8.764   1.336
30750WAT      O92491   5.848   9.670   4.530
30750WAT     H192492   5.754   9.684   4.562
30750WAT     H292493   5.858   9.709   4.439
30751WAT      O92494   8.843   8.712   4.225
30751WAT     H192495   8.938   8.741   4.211
30751WAT     H292496   8.815   8.653   4.150
30752WAT      O92497   9.784   1.430   2.109
30752WAT     H192498   9.686   1.429   2.086
30752WAT     H292499   9.820   1.522   2.095
30753WAT      O92500   0.895   4.352   9.800
30753WAT     H192501   0.850   4.291   9.866
30753WAT     H292502   0.830   4.419   9.767
30754WAT      O92503   3.001   6.052   0.153
30754WAT     H192504   3.091   6.068   0.114
30754WAT     H292505   2.991   5.955   0.177
30755WAT      O92506   3.354   2.828   1.580
30755WAT     H192507   3.374   2.911   1.632
30755WAT     H292508   3.334   2.753   1.643
30756WAT      O92509   6.482   2.695   0.153
30756WAT     H192510   6.514   2.625   0.089
30756WAT     H292511   6.476   2.656   0.245
30757WAT      O92512   8.054   0.038   3.605
30757WAT     H192513   8.107   0.089   3.538
30757WAT     H292514   8.084  -0.057   3.606
30758WAT      O92515   4.683   0.045   1.588
30758WAT     H192516   4.779   0.029   1.610
30758WAT     H292517   4.628  -0.030   1.623
30759WAT      O92518   1.746   0.673   9.573
30759WAT     H192519   1.769   0.704   9.665
30759WAT     H292520   1.811   0.712   9.507
30760WAT      O92521   3.938   6.673   3.043
30760WAT     H192522   3.937   6.771   3.025
30760WAT     H292523   3.973   6.625   2.963
30761WAT      O92524   7.821   5.323   0.141
30761WAT     H192525   7.919   5.326   0.123
30761WAT     H292526   7.784   5.235   0.112
30762WAT      O92527   9.422   0.542   7.938
30762WAT     H192528   9.342   0.579   7.986
30762WAT     H292529   9.418   0.568   7.842
30763WAT      O92530   1.201   6.041   4.430
30763WAT     H192531   1.235   5.959   4.476
30763WAT     H292532   1.259   6.119   4.454
30764WAT      O92533   9.686   2.447   7.670
30764WAT     H192534   9.767   2.495   7.704
30764WAT     H292535   9.661   2.374   7.733
30765WAT      O92536   7.017   1.130   2.011
30765WAT     H192537   7.069   1.147   2.095
30765WAT     H292538   7.011   1.031   1.994
30766WAT      O92539   6.728   6.993   4.045
30766WAT     H192540   6.769   6.920   4.100
30766WAT     H292541   6.791   7.020   3.973
30767WAT      O92542   8.564   1.457   9.724
30767WAT     H192543   8.604   1.392   9.659
30767WAT     H292544   8.498   1.515   9.676
30768WAT      O92545   8.985   7.271   1.826
30768WAT     H192546   8.958   7.234   1.737
30768WAT     H292547   9.084   7.279   1.830
30769WAT      O92548   3.825   5.938   2.323
30769WAT     H192549   3.739   5.941   2.271
30769WAT     H292550   3.860   5.844   2.323
30770WAT      O92551   1.811   3.307   3.829
30770WAT     H192552   1.860   3.393   3.837
30770WAT     H292553   1.829   3.250   3.909
30771WAT      O92554   6.516   9.078   7.616
30771WAT     H192555   6.574   9.039   7.544
30771WAT     H292556   6.538   9.175   7.626
30772WAT      O92557   9.656   5.443   6.502
30772WAT     H192558   9.598   5.398   6.434
30772WAT     H292559   9.598   5.488   6.570
30773WAT      O92560   0.752   9.167   1.837
30773WAT     H192561   0.720   9.116   1.758
30773WAT     H292562   0.840   9.132   1.867
30774WAT      O92563   3.137   8.010   7.383
30774WAT     H192564   3.210   8.067   7.346
30774WAT     H292565   3.071   8.067   7.433
30775WAT      O92566   4.420   4.040   6.241
30775WAT     H192567   4.431   3.990   6.155
30775WAT     H292568   4.502   4.094   6.259
30776WAT      O92569   9.011   7.714   6.119
30776WAT     H192570   9.095   7.752   6.081
30776WAT     H292571   9.023   7.615   6.132
30777WAT      O92572   6.080   3.288   0.494
30777WAT     H192573   6.173   3.312   0.519
30777WAT     H292574   6.019   3.363   0.517
30778WAT      O92575   0.638   0.212   7.200
30778WAT     H192576   0.630   0.246   7.106
30778WAT     H292577   0.616   0.286   7.264
30779WAT      O92578   9.269   4.847   9.676
30779WAT     H192579   9.185   4.889   9.710
30779WAT     H292580   9.263   4.833   9.577
30780WAT      O92581   6.989   9.817   3.077
30780WAT     H192582   7.011   9.766   3.160
30780WAT     H292583   6.908   9.873   3.092
30781WAT      O92584   8.419   8.689   4.427
30781WAT     H192585   8.320   8.705   4.426
30781WAT     H292586   8.450   8.676   4.521
30782WAT      O92587   8.230   9.844   9.851
30782WAT     H192588   8.188   9.772   9.907
30782WAT     H292589   8.286   9.903   9.909
30783WAT      O92590   4.136   0.171   7.822
30783WAT     H192591   4.095   0.093   7.775
30783WAT     H292592   4.084   0.191   7.905
30784WAT      O92593   8.267   9.154   9.809
30784WAT     H192594   8.171   9.168   9.834
30784WAT     H292595   8.326   9.174   9.887
30785WAT      O92596   4.742   1.107   0.840
30785WAT     H192597   4.732   1.030   0.777
30785WAT     H292598   4.656   1.121   0.889
30786WAT      O92599   9.150   7.546   4.816
30786WAT     H192600   9.230   7.605   4.805
30786WAT     H292601   9.140   7.489   4.734
30787WAT      O92602   6.718   1.893   2.777
30787WAT     H192603   6.736   1.958   2.850
30787WAT     H292604   6.764   1.807   2.796
30788WAT      O92605   6.273   2.229   5.912
30788WAT     H192606   6.306   2.310   5.962
30788WAT     H292607   6.337   2.208   5.838
30789WAT      O92608   1.744   6.451   8.595
30789WAT     H192609   1.724   6.400   8.679
30789WAT     H292610   1.804   6.396   8.537
30790WAT      O92611   9.683   6.847   1.540
30790WAT     H192612   9.705   6.751   1.559
30790WAT     H292613   9.729   6.905   1.607
30791WAT      O92614   3.226   3.855   2.471
30791WAT     H192615   3.203   3.948   2.443
30791WAT     H292616   3.153   3.818   2.527
30792WAT      O92617   8.904   0.894   3.889
30792WAT     H192618   8.947   0.960   3.827
30792WAT     H292619   8.811   0.923   3.910
30793WAT      O92620   0.970   1.713   9.045
30793WAT     H192621   0.991   1.797   8.994
30793WAT     H292622   1.055   1.667   9.071
30794WAT      O92623   8.538   2.623   3.789
30794WAT     H192624   8.442   2.594   3.783
30794WAT     H292625   8.594   2.546   3.819
30795WAT      O92626   7.008   5.642   3.795
30795WAT     H192627   6.977   5.658   3.889
30795WAT     H292628   7.034   5.729   3.754
30796WAT      O92629   0.186   0.088   8.732
30796WAT     H192630   0.220   0.173   8.691
30796WAT     H292631   0.191   0.015   8.665
30797WAT      O92632   2.580   0.567   5.533
30797WAT     H192633   2.615   0.650   5.489
30797WAT     H292634   2.491   0.585   5.574
30798WAT      O92635   4.547   8.024   3.624
30798WAT     H192636   4.638   8.022   3.582
30798WAT     H292637   4.544   8.097   3.693
30799WAT      O92638   9.056   8.472   5.338
30799WAT     H192639   9.032   8.450   5.244
30799WAT     H292640   9.030   8.567   5.358
30800WAT      O92641   3.421   8.362   4.673
30800WAT     H192642   3.362   8.285   4.648
30800WAT     H292643   3.476   8.389   4.593
30801WAT      O92644   3.262   4.116   6.443
30801WAT     H192645   3.220   4.193   6.395
30801WAT     H292646   3.354   4.142   6.473
30802WAT      O92647   1.801   0.557   7.314
30802WAT     H192648   1.755   0.620   7.251
30802WAT     H292649   1.737   0.529   7.386
30803WAT      O92650   1.668   1.198   1.295
30803WAT     H192651   1.623   1.117   1.331
30803WAT     H292652   1.601   1.254   1.245
30804WAT      O92653   8.575   6.914   1.586
30804WAT     H192654   8.563   6.830   1.639
30804WAT     H292655   8.488   6.963   1.581
30805WAT      O92656   1.088   3.405   2.368
30805WAT     H192657   1.077   3.447   2.458
30805WAT     H292658   1.051   3.467   2.299
30806WAT      O92659   8.751   8.786   2.318
30806WAT     H192660   8.780   8.739   2.234
30806WAT     H292661   8.791   8.878   2.320
30807WAT      O92662   3.582   4.225   0.646
30807WAT     H192663   3.503   4.283   0.628
30807WAT     H292664   3.663   4.263   0.600
30808WAT      O92665   1.752   4.870   1.497
30808WAT     H192666   1.748   4.871   1.397
30808WAT     H292667   1.814   4.798   1.528
30809WAT      O92668   4.027   5.424   6.943
30809WAT     H192669   4.105   5.434   6.881
30809WAT     H292670   3.995   5.515   6.971
30810WAT      O92671   3.331   9.805   9.722
30810WAT     H192672   3.391   9.880   9.694
30810WAT     H292673   3.363   9.768   9.809
30811WAT      O92674   3.322   0.687   8.263
30811WAT     H192675   3.421   0.690   8.270
30811WAT     H292676   3.286   0.615   8.323
30812WAT      O92677   4.333   4.406   9.297
30812WAT     H192678   4.265   4.375   9.230
30812WAT     H292679   4.303   4.493   9.337
30813WAT      O92680   1.127   3.529   0.647
30813WAT     H192681   1.202   3.590   0.625
30813WAT     H292682   1.136   3.498   0.742
30814WAT      O92683   1.033   5.162   3.937
30814WAT     H192684   0.959   5.096   3.948
30814WAT     H292685   1.112   5.117   3.896
30815WAT      O92686   6.357   0.883   9.746
30815WAT     H192687   6.328   0.947   9.674
30815WAT     H292688   6.415   0.812   9.707
30816WAT      O92689   0.769   3.272   5.990
30816WAT     H192690   0.832   3.203   6.027
30816WAT     H292691   0.797   3.297   5.898
30817WAT      O92692   2.578   3.802   2.000
30817WAT     H192693   2.537   3.759   2.080
30817WAT     H292694   2.558   3.900   2.001
30818WAT      O92695   7.218   3.424   2.765
30818WAT     H192696   7.147   3.422   2.836
30818WAT     H292697   7.177   3.400   2.677
30819WAT      O92698   9.529   3.718   6.905
30819WAT     H192699   9.512   3.807   6.861
30819WAT     H292700   9.627   3.698   6.900
30820WAT      O92701   0.647   2.510   0.376
30820WAT     H192702   0.583   2.453   0.427
30820WAT     H292703   0.596   2.565   0.310
30821WAT      O92704   4.666   1.262   9.199
30821WAT     H192705   4.606   1.273   9.278
30821WAT     H292706   4.631   1.315   9.122
30822WAT      O92707   6.054   1.802   5.895
30822WAT     H192708   6.043   1.902   5.899
30822WAT     H292709   6.140   1.780   5.849
30823WAT      O92710   9.147   4.434   5.858
30823WAT     H192711   9.225   4.485   5.894
30823WAT     H292712   9.074   4.432   5.926
30824WAT      O92713   3.780   1.132   4.194
30824WAT     H192714   3.681   1.124   4.177
30824WAT     H292715   3.818   1.201   4.133
30825WAT      O92716   0.638   6.808   2.850
30825WAT     H192717   0.727   6.763   2.852
30825WAT     H292718   0.613   6.829   2.755
30826WAT      O92719   7.880   6.624   9.755
30826WAT     H192720   7.804   6.588   9.808
30826WAT     H292721   7.861   6.719   9.730
30827WAT      O92722   8.058   4.535   6.159
30827WAT     H192723   8.128   4.556   6.091
30827WAT     H292724   7.971   4.515   6.113
30828WAT      O92725   1.507   2.059   4.710
30828WAT     H192726   1.534   1.966   4.733
30828WAT     H292727   1.497   2.113   4.793
30829WAT      O92728   0.183   3.825   7.457
30829WAT     H192729   0.091   3.798   7.427
30829WAT     H292730   0.182   3.844   7.555
30830WAT      O92731   8.186   2.838   0.603
30830WAT     H192732   8.205   2.779   0.525
30830WAT     H292733   8.115   2.904   0.578
30831WAT      O92734   7.302   6.725   4.725
30831WAT     H192735   7.226   6.673   4.764
30831WAT     H292736   7.384   6.669   4.725
30832WAT      O92737   8.685   4.675   8.053
30832WAT     H192738   8.724   4.741   7.988
30832WAT     H292739   8.659   4.592   8.003
30833WAT      O92740   7.537   8.525   6.851
30833WAT     H192741   7.596   8.480   6.784
30833WAT     H292742   7.593   8.557   6.928
30834WAT      O92743   0.399   9.842   8.307
30834WAT     H192744   0.495   9.823   8.325
30834WAT     H292745   0.382   9.839   8.208
30835WAT      O92746   7.141   5.021   8.972
30835WAT     H192747   7.220   4.996   9.028
30835WAT     H292748   7.073   5.068   9.030
30836WAT      O92749   3.610   3.245   4.924
30836WAT     H192750   3.647   3.338   4.913
30836WAT     H292751   3.532   3.248   4.987
30837WAT      O92752   8.087   6.402   7.225
30837WAT     H192753   8.160   6.465   7.253
30837WAT     H292754   8.008   6.455   7.195
30838WAT      O92755   9.251   9.014   6.481
30838WAT     H192756   9.259   8.924   6.440
30838WAT     H292757   9.343   9.051   6.498
30839WAT      O92758   9.775   7.641   8.995
30839WAT     H192759   9.857   7.603   8.952
30839WAT     H292760   9.747   7.724   8.947
30840WAT      O92761   7.335   6.522   2.317
30840WAT     H192762   7.278   6.497   2.238
30840WAT     H292763   7.277   6.563   2.388
30841WAT      O92764   6.014   2.502   6.116
30841WAT     H192765   6.061   2.550   6.042
30841WAT     H292766   6.071   2.504   6.198
30842WAT      O92767   0.845   7.786   6.843
30842WAT     H192768   0.774   7.746   6.785
30842WAT     H292769   0.820   7.774   6.939
30843WAT      O92770   6.308   8.504   5.698
30843WAT     H192771   6.276   8.598   5.708
30843WAT     H292772   6.381   8.501   5.629
30844WAT      O92773   1.826   3.936   4.045
30844WAT     H192774   1.767   4.003   4.000
30844WAT     H292775   1.875   3.980   4.120
30845WAT      O92776   6.437   5.786   5.648
30845WAT     H192777   6.516   5.798   5.709
30845WAT     H292778   6.428   5.867   5.590
30846WAT      O92779   9.729   7.467   0.010
30846WAT     H192780   9.718   7.485  -0.088
30846WAT     H292781   9.763   7.549   0.055
30847WAT      O92782   9.719   0.972   5.214
30847WAT     H192783   9.778   0.982   5.134
30847WAT     H292784   9.670   0.885   5.209
30848WAT      O92785   9.510   1.978   6.146
30848WAT     H192786   9.545   1.989   6.054
30848WAT     H292787   9.426   2.032   6.157
30849WAT      O92788   4.344   5.723   4.039
30849WAT     H192789   4.411   5.652   4.014
30849WAT     H292790   4.252   5.684   4.037
30850WAT      O92791   1.678   5.402   6.798
30850WAT     H192792   1.769   5.397   6.839
30850WAT     H292793   1.685   5.439   6.706
30851WAT      O92794   7.226   8.971   7.639
30851WAT     H192795   7.272   8.887   7.610
30851WAT     H292796   7.162   8.950   7.713
30852WAT      O92797   2.614   4.139   6.618
30852WAT     H192798   2.659   4.225   6.594
30852WAT     H292799   2.682   4.072   6.647
30853WAT      O92800   8.296   4.138   4.873
30853WAT     H192801   8.345   4.051   4.877
30853WAT     H292802   8.292   4.178   4.964
30854WAT      O92803   0.071   3.520   1.393
30854WAT     H192804  -0.011   3.531   1.450
30854WAT     H292805   0.051   3.457   1.318
30855WAT      O92806   4.559   2.357   3.235
30855WAT     H192807   4.533   2.347   3.139
30855WAT     H292808   4.590   2.451   3.251
30856WAT      O92809   9.019   1.772   8.573
30856WAT     H192810   8.946   1.823   8.526
30856WAT     H292811   9.081   1.836   8.618
30857WAT      O92812   0.228   5.429   7.015
30857WAT     H192813   0.210   5.444   6.918
30857WAT     H292814   0.142   5.431   7.066
30858WAT      O92815   1.485   6.525   7.144
30858WAT     H192816   1.572   6.561   7.179
30858WAT     H292817   1.498   6.489   7.052
30859WAT      O92818   9.150   2.436   5.524
30859WAT     H192819   9.095   2.441   5.441
30859WAT     H292820   9.162   2.340   5.550
30860WAT      O92821   0.497   4.346   1.981
30860WAT     H192822   0.405   4.361   2.018
30860WAT     H292823   0.550   4.430   1.990
30861WAT      O92824   4.647   8.778   0.467
30861WAT     H192825   4.566   8.755   0.414
30861WAT     H292826   4.630   8.758   0.564
30862WAT      O92827   0.450   8.528   0.291
30862WAT     H192828   0.360   8.501   0.259
30862WAT     H292829   0.518   8.505   0.221
30863WAT      O92830   0.978   0.634   6.390
30863WAT     H192831   1.020   0.693   6.459
30863WAT     H292832   1.034   0.551   6.379
30864WAT      O92833   6.413   9.747   0.956
30864WAT     H192834   6.410   9.663   1.011
30864WAT     H292835   6.388   9.726   0.862
30865WAT      O92836   1.635   8.811   1.501
30865WAT     H192837   1.727   8.814   1.541
30865WAT     H292838   1.567   8.824   1.573
30866WAT      O92839   2.033   7.005   4.858
30866WAT     H192840   2.007   6.951   4.778
30866WAT     H292841   1.998   6.961   4.940
30867WAT      O92842   1.889   7.820   5.354
30867WAT     H192843   1.865   7.724   5.366
30867WAT     H292844   1.954   7.828   5.278
30868WAT      O92845   4.417   8.427   1.428
30868WAT     H192846   4.328   8.461   1.459
30868WAT     H292847   4.471   8.397   1.506
30869WAT      O92848   9.270   0.357   3.545
30869WAT     H192849   9.237   0.349   3.452
30869WAT     H292850   9.194   0.346   3.609
30870WAT      O92851   9.813   6.876   1.292
30870WAT     H192852   9.789   6.794   1.241
30870WAT     H292853   9.773   6.872   1.383
30871WAT      O92854   7.918   4.445   3.054
30871WAT     H192855   7.990   4.483   3.112
30871WAT     H292856   7.878   4.365   3.099
30872WAT      O92857   3.262   4.106   0.509
30872WAT     H192858   3.285   4.193   0.554
30872WAT     H292859   3.162   4.095   0.509
30873WAT      O92860   9.477   9.086   4.305
30873WAT     H192861   9.452   9.022   4.378
30873WAT     H292862   9.576   9.083   4.291
30874WAT      O92863   3.308   9.200   1.606
30874WAT     H192864   3.392   9.255   1.611
30874WAT     H292865   3.239   9.239   1.666
30875WAT      O92866   1.338   2.283   2.803
30875WAT     H192867   1.349   2.341   2.723
30875WAT     H292868   1.351   2.337   2.886
30876WAT      O92869   2.555   1.047   0.877
30876WAT     H192870   2.505   0.962   0.861
30876WAT     H292871   2.651   1.034   0.851
30877WAT      O92872   3.136   7.645   3.591
30877WAT     H192873   3.129   7.698   3.676
30877WAT     H292874   3.203   7.687   3.531
30878WAT      O92875   8.314   8.133   1.257
30878WAT     H192876   8.321   8.185   1.172
30878WAT     H292877   8.368   8.049   1.249
30879WAT      O92878   0.374   7.424   8.280
30879WAT     H192879   0.468   7.454   8.297
30879WAT     H292880   0.367   7.387   8.187
30880WAT      O92881   0.771   4.957   8.939
30880WAT     H192882   0.789   5.018   9.017
30880WAT     H292883   0.695   4.896   8.962
30881WAT      O92884   1.098   2.269   7.921
30881WAT     H192885   1.074   2.192   7.861
30881WAT     H292886   1.190   2.302   7.897
30882WAT      O92887   5.702   1.767   2.460
30882WAT     H192888   5.794   1.769   2.420
30882WAT     H292889   5.654   1.685   2.429
30883WAT      O92890   3.650   4.857   2.667
30883WAT     H192891   3.601   4.782   2.622
30883WAT     H292892   3.664   4.931   2.601
30884WAT      O92893   2.142   7.410   2.523
30884WAT     H192894   2.181   7.471   2.592
30884WAT     H292895   2.118   7.323   2.565
30885WAT      O92896   4.469   0.719   9.367
30885WAT     H192897   4.534   0.794   9.380
30885WAT     H292898   4.413   0.709   9.449
30886WAT      O92899   2.325   4.955   6.990
30886WAT     H192900   2.403   4.911   7.035
30886WAT     H292901   2.256   4.979   7.059
30887WAT      O92902   7.972   6.321   6.390
30887WAT     H192903   8.053   6.359   6.434
30887WAT     H292904   7.925   6.259   6.453
30888WAT      O92905   5.829   4.576   1.807
30888WAT     H192906   5.852   4.622   1.892
30888WAT     H292907   5.732   4.551   1.807
30889WAT      O92908   1.111   1.998   9.245
30889WAT     H192909   1.023   2.006   9.200
30889WAT     H292910   1.098   1.965   9.339
30890WAT      O92911   0.632   0.717   3.607
30890WAT     H192912   0.678   0.722   3.519
30890WAT     H292913   0.602   0.809   3.634
30891WAT      O92914   8.374   9.372   6.309
30891WAT     H192915   8.395   9.440   6.379
30891WAT     H292916   8.275   9.361   6.300
30892WAT      O92917   4.512   3.695   9.710
30892WAT     H192918   4.567   3.612   9.709
30892WAT     H292919   4.447   3.691   9.786
30893WAT      O92920   9.059   5.358   3.380
30893WAT     H192921   9.128   5.429   3.367
30893WAT     H292922   8.995   5.386   3.452
30894WAT      O92923   0.718   1.013   5.606
30894WAT     H192924   0.790   1.083   5.601
30894WAT     H292925   0.659   1.033   5.684
30895WAT      O92926   5.231   7.677   8.827
30895WAT     H192927   5.210   7.699   8.732
30895WAT     H292928   5.287   7.595   8.830
30896WAT      O92929   3.708   2.857   9.096
30896WAT     H192930   3.686   2.760   9.087
30896WAT     H292931   3.632   2.904   9.142
30897WAT      O92932   3.243   0.065   7.523
30897WAT     H192933   3.226   0.139   7.588
30897WAT     H292934   3.175   0.069   7.449
30898WAT      O92935   3.895   0.832   0.646
30898WAT     H192936   3.857   0.744   0.673
30898WAT     H292937   3.864   0.902   0.711
30899WAT      O92938   1.055   4.144   7.623
30899WAT     H192939   1.150   4.114   7.617
30899WAT     H292940   0.998   4.087   7.564
30900WAT      O92941   4.960   6.473   3.599
30900WAT     H192942   4.923   6.537   3.666
30900WAT     H292943   4.931   6.380   3.622
30901WAT      O92944   1.028   9.250   2.139
30901WAT     H192945   0.941   9.296   2.126
30901WAT     H292946   1.042   9.232   2.237
30902WAT      O92947   7.028   5.412   6.623
30902WAT     H192948   7.070   5.462   6.698
30902WAT     H292949   6.984   5.476   6.560
30903WAT      O92950   2.992   3.507   3.592
30903WAT     H192951   3.000   3.576   3.520
30903WAT     H292952   3.024   3.419   3.557
30904WAT      O92953   4.958   0.950   0.965
30904WAT     H192954   4.967   0.889   0.887
30904WAT     H292955   4.887   1.018   0.948
30905WAT      O92956   4.756   2.518   9.065
30905WAT     H192957   4.689   2.467   9.118
30905WAT     H292958   4.750   2.615   9.089
30906WAT      O92959   5.513   7.999   1.374
30906WAT     H192960   5.508   8.089   1.329
30906WAT     H292961   5.492   8.009   1.471
30907WAT      O92962   1.564   5.566   0.102
30907WAT     H192963   1.581   5.657   0.141
30907WAT     H292964   1.644   5.537   0.049
30908WAT      O92965   8.375   3.784   1.357
30908WAT     H192966   8.338   3.789   1.264
30908WAT     H292967   8.311   3.828   1.421
30909WAT      O92968   8.500   5.471   0.047
30909WAT     H192969   8.488   5.562   0.087
30909WAT     H292970   8.596   5.445   0.053
30910WAT      O92971   4.101   4.554   8.877
30910WAT     H192972   4.199   4.565   8.893
30910WAT     H292973   4.072   4.614   8.803
30911WAT      O92974   5.560   8.464   7.442
30911WAT     H192975   5.491   8.407   7.398
30911WAT     H292976   5.622   8.405   7.495
30912WAT      O92977   4.675   2.260   1.905
30912WAT     H192978   4.694   2.351   1.869
30912WAT     H292979   4.576   2.243   1.902
30913WAT      O92980   3.727   5.170   8.606
30913WAT     H192981   3.698   5.264   8.626
30913WAT     H292982   3.739   5.160   8.507
30914WAT      O92983   7.970   8.458   8.156
30914WAT     H192984   7.924   8.377   8.194
30914WAT     H292985   7.938   8.540   8.203
30915WAT      O92986   2.764   0.500   8.497
30915WAT     H192987   2.741   0.588   8.455
30915WAT     H292988   2.793   0.436   8.426
30916WAT      O92989   5.616   8.664   1.784
30916WAT     H192990   5.644   8.568   1.790
30916WAT     H292991   5.606   8.690   1.688
30917WAT      O92992   3.598   7.848   3.734
30917WAT     H192993   3.614   7.905   3.815
30917WAT     H292994   3.537   7.896   3.671
30918WAT      O92995   9.683   2.118   5.470
30918WAT     H192996   9.752   2.069   5.417
30918WAT     H292997   9.728   2.181   5.533
30919WAT      O92998   3.081   8.109   7.652
30919WAT     H192999   3.096   8.205   7.676
30919WAT     H293000   2.988   8.099   7.614
30920WAT      O93001   1.236   6.143   4.711
30920WAT     H193002   1.184   6.058   4.719
30920WAT     H293003   1.283   6.161   4.798
30921WAT      O93004   3.654   5.756   6.412
30921WAT     H193005   3.733   5.708   6.450
30921WAT     H293006   3.673   5.854   6.408
30922WAT      O93007   8.961   7.161   5.527
30922WAT     H193008   9.049   7.208   5.520
30922WAT     H293009   8.945   7.133   5.622
30923WAT      O93010   8.885   1.456   5.565
30923WAT     H193011   8.800   1.458   5.514
30923WAT     H293012   8.946   1.386   5.527
30924WAT      O93013   7.753   8.035   4.679
30924WAT     H193014   7.720   7.966   4.743
30924WAT     H293015   7.840   8.071   4.710
30925WAT      O93016   2.246   3.582   6.136
30925WAT     H193017   2.177   3.533   6.084
30925WAT     H293018   2.337   3.559   6.101
30926WAT      O93019   1.967   5.892   7.234
30926WAT     H193020   1.895   5.957   7.209
30926WAT     H293021   1.936   5.799   7.214
30927WAT      O93022   2.856   7.082   5.316
30927WAT     H193023   2.827   7.003   5.262
30927WAT     H293024   2.825   7.166   5.271
30928WAT      O93025   7.324   9.841   8.183
30928WAT     H193026   7.306   9.787   8.100
30928WAT     H293027   7.421   9.864   8.187
30929WAT      O93028   7.353   6.600   5.593
30929WAT     H193029   7.413   6.567   5.666
30929WAT     H293030   7.258   6.592   5.622
30930WAT      O93031   1.166   1.009   8.263
30930WAT     H193032   1.071   0.980   8.250
30930WAT     H293033   1.227   0.937   8.229
30931WAT      O93034   3.675   9.534   7.975
30931WAT     H193035   3.775   9.526   7.976
30931WAT     H293036   3.634   9.458   8.026
30932WAT      O93037   2.623   6.199   1.979
30932WAT     H193038   2.716   6.199   1.943
30932WAT     H293039   2.626   6.216   2.078
30933WAT      O93040   3.329   2.826   8.862
30933WAT     H193041   3.388   2.891   8.814
30933WAT     H293042   3.237   2.864   8.871
30934WAT      O93043   0.242   5.125   4.262
30934WAT     H193044   0.329   5.162   4.294
30934WAT     H293045   0.223   5.159   4.170
30935WAT      O93046   9.067   5.633   9.362
30935WAT     H193047   9.069   5.677   9.272
30935WAT     H293048   9.153   5.584   9.376
30936WAT      O93049   1.077   0.308   4.953
30936WAT     H193050   1.099   0.342   5.045
30936WAT     H293051   1.161   0.300   4.900
30937WAT      O93052   9.616   5.166   1.768
30937WAT     H193053   9.578   5.204   1.852
30937WAT     H293054   9.577   5.215   1.690
30938WAT      O93055   3.430   7.299   9.862
30938WAT     H193056   3.469   7.384   9.897
30938WAT     H293057   3.340   7.317   9.823
30939WAT      O93058   4.266   5.610   7.610
30939WAT     H193059   4.285   5.637   7.704
30939WAT     H293060   4.260   5.510   7.606
30940WAT      O93061   1.528   5.899   1.671
30940WAT     H193062   1.465   5.954   1.618
30940WAT     H293063   1.478   5.830   1.723
30941WAT      O93064   3.801   3.368   4.330
30941WAT     H193065   3.783   3.376   4.232
30941WAT     H293066   3.717   3.337   4.376
30942WAT      O93067   2.562   2.333   4.255
30942WAT     H193068   2.506   2.262   4.211
30942WAT     H293069   2.544   2.421   4.210
30943WAT      O93070   0.386   6.497   1.986
30943WAT     H193071   0.440   6.576   2.015
30943WAT     H293072   0.430   6.413   2.018
30944WAT      O93073   6.317   3.100   9.834
30944WAT     H193074   6.252   3.095   9.758
30944WAT     H293075   6.296   3.180   9.891
30945WAT      O93076   4.352   1.887   0.139
30945WAT     H193077   4.347   1.790   0.162
30945WAT     H293078   4.393   1.897   0.048
30946WAT      O93079   2.893   8.624   4.930
30946WAT     H193080   2.982   8.578   4.921
30946WAT     H293081   2.892   8.706   4.873
30947WAT      O93082   0.403   6.380   8.812
30947WAT     H193083   0.409   6.325   8.729
30947WAT     H293084   0.406   6.321   8.892
30948WAT      O93085   1.373   4.663   3.833
30948WAT     H193086   1.398   4.690   3.926
30948WAT     H293087   1.275   4.677   3.820
30949WAT      O93088   1.886   8.199   2.355
30949WAT     H193089   1.892   8.298   2.371
30949WAT     H293090   1.790   8.172   2.354
30950WAT      O93091   4.811   3.602   2.255
30950WAT     H193092   4.819   3.692   2.297
30950WAT     H293093   4.857   3.534   2.313
30951WAT      O93094   4.878   5.282   4.254
30951WAT     H193095   4.876   5.259   4.351
30951WAT     H293096   4.928   5.367   4.241
30952WAT      O93097   9.314   7.104   3.201
30952WAT     H193098   9.334   7.178   3.264
30952WAT     H293099   9.383   7.101   3.128
30953WAT      O93100   7.449   5.131   3.943
30953WAT     H193101   7.449   5.146   3.845
30953WAT     H293102   7.405   5.208   3.989
30954WAT      O93103   9.732   7.859   7.290
30954WAT     H193104   9.683   7.839   7.205
30954WAT     H293105   9.669   7.854   7.367
30955WAT      O93106   7.532   9.024   5.326
30955WAT     H193107   7.537   9.025   5.226
30955WAT     H293108   7.624   9.037   5.363
30956WAT      O93109   2.893   8.064   9.009
30956WAT     H193110   2.874   8.146   8.955
30956WAT     H293111   2.949   8.089   9.089
30957WAT      O93112   6.880   0.622   6.708
30957WAT     H193113   6.844   0.714   6.722
30957WAT     H293114   6.978   0.628   6.685
30958WAT      O93115   7.828   8.318   0.796
30958WAT     H193116   7.749   8.368   0.832
30958WAT     H293117   7.841   8.234   0.849
30959WAT      O93118   8.815   5.290   5.736
30959WAT     H193119   8.861   5.208   5.772
30959WAT     H293120   8.851   5.311   5.645
30960WAT      O93121   7.419   1.174   0.348
30960WAT     H193122   7.434   1.234   0.427
30960WAT     H293123   7.354   1.217   0.286
30961WAT      O93124   4.095   1.001   3.528
30961WAT     H193125   4.061   1.008   3.435
30961WAT     H293126   4.157   1.077   3.547
30962WAT      O93127   3.397   6.926   3.711
30962WAT     H193128   3.438   6.863   3.644
30962WAT     H293129   3.333   6.876   3.769
30963WAT      O93130   1.158   6.015   3.133
30963WAT     H193131   1.204   5.932   3.103
30963WAT     H293132   1.105   5.997   3.215
30964WAT      O93133   7.057   3.923   9.015
30964WAT     H193134   7.064   3.889   9.109
30964WAT     H293135   6.961   3.936   8.992
30965WAT      O93136   0.254   1.382   0.446
30965WAT     H193137   0.201   1.300   0.470
30965WAT     H293138   0.344   1.354   0.411
30966WAT      O93139   7.380   3.782   7.411
30966WAT     H193140   7.394   3.756   7.315
30966WAT     H293141   7.287   3.815   7.424
30967WAT      O93142   6.943   1.058   9.698
30967WAT     H193143   6.857   1.035   9.654
30967WAT     H293144   6.970   0.984   9.760
30968WAT      O93145   2.357   3.842   6.108
30968WAT     H193146   2.316   3.751   6.114
30968WAT     H293147   2.307   3.905   6.168
30969WAT      O93148   3.688   7.759   2.601
30969WAT     H193149   3.766   7.696   2.605
30969WAT     H293150   3.662   7.786   2.694
30970WAT      O93151   3.122   9.301   1.768
30970WAT     H193152   3.174   9.298   1.853
30970WAT     H293153   3.028   9.269   1.785
30971WAT      O93154   0.140   6.554   2.852
30971WAT     H193155   0.230   6.592   2.872
30971WAT     H293156   0.078   6.628   2.824
30972WAT      O93157   0.077   3.984   7.115
30972WAT     H193158   0.135   4.046   7.166
30972WAT     H293159  -0.009   4.029   7.092
30973WAT      O93160   8.496   8.522   4.737
30973WAT     H193161   8.483   8.446   4.673
30973WAT     H293162   8.589   8.558   4.727
30974WAT      O93163   7.948   6.545   1.503
30974WAT     H193164   7.938   6.451   1.537
30974WAT     H293165   8.006   6.597   1.566
30975WAT      O93166   8.088   4.349   6.587
30975WAT     H193167   8.176   4.303   6.600
30975WAT     H293168   8.103   4.440   6.550
30976WAT      O93169   5.682   8.523   7.135
30976WAT     H193170   5.754   8.589   7.155
30976WAT     H293171   5.595   8.556   7.172
30977WAT      O93172   1.138   0.586   5.735
30977WAT     H193173   1.177   0.671   5.768
30977WAT     H293174   1.085   0.543   5.808
30978WAT      O93175   8.060   4.697   7.156
30978WAT     H193176   7.990   4.697   7.085
30978WAT     H293177   8.118   4.777   7.146
30979WAT      O93178   7.234   5.469   9.237
30979WAT     H193179   7.269   5.482   9.330
30979WAT     H293180   7.292   5.405   9.188
30980WAT      O93181   7.252   0.862   6.754
30980WAT     H193182   7.189   0.821   6.820
30980WAT     H293183   7.200   0.919   6.690
30981WAT      O93184   0.648   7.406   8.582
30981WAT     H193185   0.554   7.436   8.564
30981WAT     H293186   0.647   7.336   8.654
30982WAT      O93187   7.216   1.258   8.791
30982WAT     H193188   7.255   1.339   8.749
30982WAT     H293189   7.286   1.209   8.842
30983WAT      O93190   0.955   0.243   7.444
30983WAT     H193191   0.986   0.264   7.351
30983WAT     H293192   0.968   0.323   7.502
30984WAT      O93193   3.890   6.956   5.590
30984WAT     H193194   3.925   7.049   5.576
30984WAT     H293195   3.958   6.903   5.639
30985WAT      O93196   3.672   8.846   1.735
30985WAT     H193197   3.643   8.870   1.827
30985WAT     H293198   3.755   8.789   1.740
30986WAT      O93199   7.519   8.214   9.580
30986WAT     H193200   7.611   8.213   9.541
30986WAT     H293201   7.496   8.307   9.609
30987WAT      O93202   2.741   2.432   1.529
30987WAT     H193203   2.769   2.469   1.440
30987WAT     H293204   2.748   2.332   1.527
30988WAT      O93205   1.265   3.055   9.234
30988WAT     H193206   1.345   2.994   9.233
30988WAT     H293207   1.253   3.092   9.327
30989WAT      O93208   4.125   7.084   2.878
30989WAT     H193209   4.070   7.136   2.944
30989WAT     H293210   4.192   7.145   2.836
30990WAT      O93211   0.939   4.688   4.967
30990WAT     H193212   0.891   4.771   4.939
30990WAT     H293213   0.940   4.623   4.891
30991WAT      O93214   8.495   7.333   9.844
30991WAT     H193215   8.583   7.329   9.797
30991WAT     H293216   8.503   7.288   9.933
30992WAT      O93217   7.151   4.252   8.477
30992WAT     H193218   7.156   4.153   8.461
30992WAT     H293219   7.076   4.291   8.425
30993WAT      O93220   0.728   8.052   5.796
30993WAT     H193221   0.713   8.079   5.891
30993WAT     H293222   0.661   7.982   5.770
30994WAT      O93223   1.365   5.147   0.097
30994WAT     H193224   1.353   5.243   0.119
30994WAT     H293225   1.396   5.137   0.003
30995WAT      O93226   0.866   0.428   5.442
30995WAT     H193227   0.825   0.463   5.357
30995WAT     H293228   0.831   0.336   5.460
30996WAT      O93229   9.590   3.784   3.188
30996WAT     H193230   9.491   3.778   3.202
30996WAT     H293231   9.627   3.693   3.173
30997WAT      O93232   1.815   5.554   8.880
30997WAT     H193233   1.812   5.650   8.906
30997WAT     H293234   1.910   5.525   8.871
30998WAT      O93235   2.121   8.854   4.049
30998WAT     H193236   2.026   8.824   4.063
30998WAT     H293237   2.183   8.784   4.084
30999WAT      O93238   8.911   8.331   3.354
30999WAT     H193239   8.935   8.306   3.260
30999WAT     H293240   8.994   8.358   3.403
31000WAT      O93241   8.493   7.807   3.842
31000WAT     H193242   8.535   7.752   3.913
31000WAT     H293243   8.462   7.894   3.881
31001WAT      O93244   0.908   4.834   1.484
31001WAT     H193245   0.915   4.750   1.430
31001WAT     H293246   0.869   4.814   1.573
31002WAT      O93247   0.552   9.685   3.754
31002WAT     H193248   0.600   9.620   3.694
31002WAT     H293249   0.615   9.718   3.824
31003WAT      O93250   3.923   4.609   0.231
31003WAT     H193251   3.956   4.696   0.193
31003WAT     H293252   3.942   4.606   0.329
31004WAT      O93253   8.749   1.574   7.376
31004WAT     H193254   8.715   1.530   7.293
31004WAT     H293255   8.736   1.673   7.368
31005WAT      O93256   1.333   3.376   4.361
31005WAT     H193257   1.254   3.420   4.318
31005WAT     H293258   1.400   3.445   4.386
31006WAT      O93259   0.060   8.168   1.125
31006WAT     H193260  -0.022   8.119   1.155
31006WAT     H293261   0.093   8.226   1.199
31007WAT      O93262   9.575   4.151   7.424
31007WAT     H193263   9.487   4.190   7.453
31007WAT     H293264   9.619   4.213   7.359
31008WAT      O93265   0.981   0.645   3.531
31008WAT     H193266   1.080   0.653   3.542
31008WAT     H293267   0.940   0.624   3.620
31009WAT      O93268   4.499   7.052   9.086
31009WAT     H193269   4.536   7.088   9.172
31009WAT     H293270   4.522   7.114   9.011
31010WAT      O93271   8.789   6.471   0.768
31010WAT     H193272   8.716   6.404   0.783
31010WAT     H293273   8.848   6.474   0.849
31011WAT      O93274   4.374   2.238   4.745
31011WAT     H193275   4.336   2.328   4.760
31011WAT     H293276   4.402   2.198   4.832
31012WAT      O93277   5.368   2.967   5.937
31012WAT     H193278   5.422   3.009   6.010
31012WAT     H293279   5.283   3.017   5.925
31013WAT      O93280   8.743   8.676   5.604
31013WAT     H193281   8.812   8.604   5.593
31013WAT     H293282   8.761   8.749   5.539
31014WAT      O93283   8.750   2.785   7.144
31014WAT     H193284   8.661   2.810   7.105
31014WAT     H293285   8.787   2.707   7.094
31015WAT      O93286   7.527   4.805   8.543
31015WAT     H193287   7.592   4.731   8.526
31015WAT     H293288   7.497   4.843   8.455
31016WAT      O93289   4.063   5.212   7.462
31016WAT     H193290   4.094   5.303   7.490
31016WAT     H293291   4.099   5.143   7.525
31017WAT      O93292   6.636   4.077   2.884
31017WAT     H193293   6.624   4.077   2.785
31017WAT     H293294   6.727   4.111   2.907
31018WAT      O93295   8.633   4.806   5.545
31018WAT     H193296   8.593   4.896   5.525
31018WAT     H293297   8.629   4.749   5.463
31019WAT      O93298   9.277   8.585   1.310
31019WAT     H193299   9.194   8.635   1.333
31019WAT     H293300   9.307   8.532   1.389
31020WAT      O93301   4.085   7.909   7.571
31020WAT     H193302   4.067   8.000   7.609
31020WAT     H293303   4.182   7.899   7.551
31021WAT      O93304   2.737   8.049   8.008
31021WAT     H193305   2.701   8.142   8.003
31021WAT     H293306   2.820   8.048   8.063
31022WAT      O93307   2.940   7.105   2.833
31022WAT     H193308   2.991   7.085   2.749
31022WAT     H293309   2.875   7.030   2.850
31023WAT      O93310   5.176   0.305   0.550
31023WAT     H193311   5.230   0.227   0.582
31023WAT     H293312   5.118   0.276   0.474
31024WAT      O93313   2.012   1.276   1.823
31024WAT     H193314   1.955   1.194   1.814
31024WAT     H293315   2.000   1.334   1.743
31025WAT      O93316   0.922   2.197   8.499
31025WAT     H193317   0.868   2.129   8.450
31025WAT     H293318   1.019   2.176   8.488
31026WAT      O93319   8.320   1.110   3.054
31026WAT     H193320   8.366   1.021   3.054
31026WAT     H293321   8.359   1.169   3.124
31027WAT      O93322   8.619   2.765   0.981
31027WAT     H193323   8.524   2.740   1.003
31027WAT     H293324   8.664   2.798   1.064
31028WAT      O93325   2.151   3.845   1.970
31028WAT     H193326   2.170   3.832   2.067
31028WAT     H293327   2.110   3.935   1.956
31029WAT      O93328   6.610   7.993   2.536
31029WAT     H193329   6.539   8.022   2.472
31029WAT     H293330   6.592   8.031   2.627
31030WAT      O93331   3.062   3.255   0.561
31030WAT     H193332   3.020   3.181   0.508
31030WAT     H293333   3.103   3.217   0.645
31031WAT      O93334   3.248   0.807   7.441
31031WAT     H193335   3.255   0.884   7.505
31031WAT     H293336   3.337   0.763   7.431
31032WAT      O93337   0.890   1.896   8.652
31032WAT     H193338   0.954   1.910   8.727
31032WAT     H293339   0.940   1.899   8.565
31033WAT      O93340   4.621   9.680   9.120
31033WAT     H193341   4.538   9.732   9.139
31033WAT     H293342   4.701   9.735   9.142
31034WAT      O93343   7.510   5.062   4.221
31034WAT     H193344   7.424   5.012   4.231
31034WAT     H293345   7.526   5.081   4.124
31035WAT      O93346   2.767   2.129   8.797
31035WAT     H193347   2.798   2.212   8.750
31035WAT     H293348   2.760   2.147   8.895
31036WAT      O93349   6.826   2.345   8.861
31036WAT     H193350   6.912   2.365   8.814
31036WAT     H293351   6.841   2.342   8.959
31037WAT      O93352   2.284   6.969   4.744
31037WAT     H193353   2.265   7.024   4.663
31037WAT     H293354   2.226   7.001   4.820
31038WAT      O93355   2.589   4.912   7.361
31038WAT     H193356   2.548   4.944   7.447
31038WAT     H293357   2.688   4.927   7.364
31039WAT      O93358   1.978   5.704   6.338
31039WAT     H193359   2.007   5.797   6.316
31039WAT     H293360   2.055   5.642   6.330
31040WAT      O93361   6.436   0.322   5.635
31040WAT     H193362   6.442   0.240   5.577
31040WAT     H293363   6.433   0.295   5.731
31041WAT      O93364   3.531   3.542   0.506
31041WAT     H193365   3.456   3.477   0.513
31041WAT     H293366   3.536   3.597   0.589
31042WAT      O93367   4.590   4.995   1.480
31042WAT     H193368   4.633   4.954   1.560
31042WAT     H293369   4.583   5.094   1.494
31043WAT      O93370   2.517   6.405   9.182
31043WAT     H193371   2.460   6.341   9.131
31043WAT     H293372   2.531   6.488   9.128
31044WAT      O93373   3.615   8.520   9.776
31044WAT     H193374   3.608   8.619   9.782
31044WAT     H293375   3.648   8.484   9.863
31045WAT      O93376   3.795   4.605   3.589
31045WAT     H193377   3.707   4.557   3.590
31045WAT     H293378   3.790   4.684   3.649
31046WAT      O93379   5.620   7.552   1.939
31046WAT     H193380   5.710   7.527   1.905
31046WAT     H293381   5.620   7.648   1.968
31047WAT      O93382   3.578   7.529   0.450
31047WAT     H193383   3.488   7.572   0.439
31047WAT     H293384   3.647   7.601   0.466
31048WAT      O93385   5.292   6.071   2.647
31048WAT     H193386   5.232   6.003   2.604
31048WAT     H293387   5.386   6.055   2.619
31049WAT      O93388   4.542   0.029   1.886
31049WAT     H193389   4.544  -0.027   1.803
31049WAT     H293390   4.486   0.110   1.871
31050WAT      O93391   9.655   8.895   1.685
31050WAT     H193392   9.661   8.809   1.736
31050WAT     H293393   9.742   8.943   1.689
31051WAT      O93394   7.217   3.350   8.555
31051WAT     H193395   7.130   3.359   8.605
31051WAT     H293396   7.203   3.291   8.475
31052WAT      O93397   2.052   5.413   5.169
31052WAT     H193398   2.018   5.360   5.247
31052WAT     H293399   2.007   5.502   5.167
31053WAT      O93400   2.031   5.551   2.500
31053WAT     H193401   1.954   5.566   2.438
31053WAT     H293402   2.037   5.454   2.522
31054WAT      O93403   6.742   6.338   1.745
31054WAT     H193404   6.832   6.380   1.734
31054WAT     H293405   6.677   6.382   1.683
31055WAT      O93406   7.067   7.164   5.445
31055WAT     H193407   7.060   7.171   5.346
31055WAT     H293408   7.037   7.249   5.487
31056WAT      O93409   7.337   6.548   0.896
31056WAT     H193410   7.372   6.544   0.989
31056WAT     H293411   7.238   6.534   0.897
31057WAT      O93412   5.131   2.122   2.214
31057WAT     H193413   5.149   2.058   2.289
31057WAT     H293414   5.211   2.127   2.154
31058WAT      O93415   2.317   2.705   2.076
31058WAT     H193416   2.241   2.640   2.071
31058WAT     H293417   2.373   2.685   2.157
31059WAT      O93418   1.280   8.857   1.029
31059WAT     H193419   1.341   8.931   1.057
31059WAT     H293420   1.230   8.885   0.947
31060WAT      O93421   8.137   2.730   5.739
31060WAT     H193422   8.059   2.684   5.783
31060WAT     H293423   8.135   2.713   5.641
31061WAT      O93424   4.714   7.760   0.190
31061WAT     H193425   4.777   7.820   0.141
31061WAT     H293426   4.713   7.786   0.287
31062WAT      O93427   2.083   2.908   5.967
31062WAT     H193428   2.067   2.864   6.056
31062WAT     H293429   2.012   2.977   5.951
31063WAT      O93430   7.535   0.332   1.027
31063WAT     H193431   7.518   0.345   1.125
31063WAT     H293432   7.617   0.277   1.015
31064WAT      O93433   3.629   5.015   7.808
31064WAT     H193434   3.667   4.935   7.854
31064WAT     H293435   3.621   4.997   7.710
31065WAT      O93436   2.585   8.504   2.354
31065WAT     H193437   2.505   8.450   2.381
31065WAT     H293438   2.662   8.442   2.336
31066WAT      O93439   8.862   7.560   5.306
31066WAT     H193440   8.936   7.602   5.252
31066WAT     H293441   8.846   7.615   5.389
31067WAT      O93442   5.182   6.381   7.867
31067WAT     H193443   5.090   6.382   7.907
31067WAT     H293444   5.250   6.382   7.941
31068WAT      O93445   2.691   5.802   6.944
31068WAT     H193446   2.639   5.838   7.022
31068WAT     H293447   2.724   5.710   6.965
31069WAT      O93448   7.146   1.476   9.716
31069WAT     H193449   7.121   1.419   9.795
31069WAT     H293450   7.175   1.566   9.748
31070WAT      O93451   2.988   4.524   5.289
31070WAT     H193452   3.020   4.619   5.279
31070WAT     H293453   3.062   4.469   5.327
31071WAT      O93454   4.143   6.275   0.966
31071WAT     H193455   4.077   6.225   1.022
31071WAT     H293456   4.104   6.294   0.876
31072WAT      O93457   1.516   1.896   9.852
31072WAT     H193458   1.532   1.994   9.855
31072WAT     H293459   1.417   1.879   9.858
31073WAT      O93460   9.711   2.471   0.701
31073WAT     H193461   9.632   2.427   0.743
31073WAT     H293462   9.794   2.438   0.745
31074WAT      O93463   2.210   4.364   7.098
31074WAT     H193464   2.201   4.448   7.044
31074WAT     H293465   2.296   4.319   7.075
31075WAT      O93466   6.362   3.381   9.601
31075WAT     H193467   6.305   3.392   9.682
31075WAT     H293468   6.318   3.316   9.538
31076WAT      O93469   9.168   5.800   7.378
31076WAT     H193470   9.176   5.884   7.432
31076WAT     H293471   9.214   5.725   7.424
31077WAT      O93472   8.930   9.626   2.355
31077WAT     H193473   8.964   9.719   2.337
31077WAT     H293474   8.874   9.627   2.438
31078WAT      O93475   2.447   9.572   1.625
31078WAT     H193476   2.474   9.665   1.602
31078WAT     H293477   2.529   9.518   1.646
31079WAT      O93478   4.443   3.842   1.049
31079WAT     H193479   4.506   3.816   0.976
31079WAT     H293480   4.431   3.941   1.050
31080WAT      O93481   9.415   4.009   6.226
31080WAT     H193482   9.365   3.944   6.168
31080WAT     H293483   9.420   3.973   6.319
31081WAT      O93484   3.315   3.576   4.946
31081WAT     H193485   3.303   3.490   4.897
31081WAT     H293486   3.401   3.618   4.919
31082WAT      O93487   2.462   9.160   5.456
31082WAT     H193488   2.382   9.109   5.486
31082WAT     H293489   2.488   9.130   5.364
31083WAT      O93490   7.555   9.090   0.558
31083WAT     H193491   7.654   9.105   0.565
31083WAT     H293492   7.512   9.174   0.524
31084WAT      O93493   3.770   2.938   5.250
31084WAT     H193494   3.865   2.964   5.265
31084WAT     H293495   3.741   2.969   5.159
31085WAT      O93496   8.138   8.861   0.035
31085WAT     H193497   8.103   8.811   0.115
31085WAT     H293498   8.214   8.920   0.064
31086WAT      O93499   0.101   2.302   8.322
31086WAT     H193500   0.074   2.225   8.381
31086WAT     H293501   0.160   2.268   8.249
31087WAT      O93502   2.200   1.203   5.857
31087WAT     H193503   2.153   1.132   5.803
31087WAT     H293504   2.299   1.189   5.851
31088WAT      O93505   5.199   5.052   1.640
31088WAT     H193506   5.286   5.016   1.675
31088WAT     H293507   5.134   5.061   1.715
31089WAT      O93508   8.203   7.867   4.410
31089WAT     H193509   8.183   7.952   4.360
31089WAT     H293510   8.198   7.885   4.508
31090WAT      O93511   7.997   0.649   2.513
31090WAT     H193512   7.997   0.551   2.494
31090WAT     H293513   8.082   0.690   2.479
31091WAT      O93514   9.204   2.945   7.680
31091WAT     H193515   9.224   3.031   7.726
31091WAT     H293516   9.268   2.874   7.711
31092WAT      O93517   7.528   5.798   6.252
31092WAT     H193518   7.604   5.738   6.227
31092WAT     H293519   7.467   5.808   6.174
31093WAT      O93520   7.751   8.217   4.441
31093WAT     H193521   7.794   8.306   4.453
31093WAT     H293522   7.746   8.170   4.529
31094WAT      O93523   7.759   6.358   4.384
31094WAT     H193524   7.836   6.323   4.331
31094WAT     H293525   7.678   6.365   4.326
31095WAT      O93526   2.681   2.281   6.870
31095WAT     H193527   2.609   2.232   6.820
31095WAT     H293528   2.641   2.330   6.947
31096WAT      O93529   5.150   2.265   3.038
31096WAT     H193530   5.085   2.274   3.113
31096WAT     H293531   5.120   2.321   2.960
31097WAT      O93532   5.140   0.896   0.435
31097WAT     H193533   5.089   0.968   0.389
31097WAT     H293534   5.202   0.937   0.502
31098WAT      O93535   2.842   5.002   4.445
31098WAT     H193536   2.840   4.998   4.345
31098WAT     H293537   2.749   4.993   4.480
31099WAT      O93538   6.056   3.901   8.228
31099WAT     H193539   6.108   3.833   8.279
31099WAT     H293540   5.958   3.888   8.245
31100WAT      O93541   6.359   7.293   0.429
31100WAT     H193542   6.345   7.295   0.330
31100WAT     H293543   6.331   7.381   0.468
31101WAT      O93544   3.884   4.441   8.554
31101WAT     H193545   3.849   4.421   8.645
31101WAT     H293546   3.875   4.539   8.535
31102WAT      O93547   2.664   3.048   8.235
31102WAT     H193548   2.669   3.146   8.252
31102WAT     H293549   2.732   3.023   8.165
31103WAT      O93550   1.574   9.811   7.320
31103WAT     H193551   1.583   9.856   7.231
31103WAT     H293552   1.656   9.827   7.374
31104WAT      O93553   2.350   3.320   1.942
31104WAT     H193554   2.415   3.293   2.013
31104WAT     H293555   2.352   3.419   1.931
31105WAT      O93556   7.246   1.265   0.139
31105WAT     H193557   7.308   1.342   0.149
31105WAT     H293558   7.162   1.295   0.093
31106WAT      O93559   8.099   5.454   5.430
31106WAT     H193560   8.030   5.515   5.392
31106WAT     H293561   8.065   5.360   5.429
31107WAT      O93562   2.182   0.983   8.807
31107WAT     H193563   2.242   1.010   8.732
31107WAT     H293564   2.140   0.894   8.787
31108WAT      O93565   1.243   0.432   4.228
31108WAT     H193566   1.143   0.431   4.223
31108WAT     H293567   1.275   0.352   4.278
31109WAT      O93568   9.141   4.772   7.796
31109WAT     H193569   9.171   4.856   7.841
31109WAT     H293570   9.173   4.693   7.849
31110WAT      O93571   6.078   5.386   6.095
31110WAT     H193572   6.037   5.477   6.105
31110WAT     H293573   6.010   5.322   6.061
31111WAT      O93574   8.805   8.569   3.727
31111WAT     H193575   8.785   8.487   3.673
31111WAT     H293576   8.725   8.629   3.729
31112WAT      O93577   9.275   6.784   2.747
31112WAT     H193578   9.250   6.867   2.698
31112WAT     H293579   9.371   6.763   2.731
31113WAT      O93580   7.594   4.058   2.315
31113WAT     H193581   7.509   4.110   2.312
31113WAT     H293582   7.586   3.984   2.382
31114WAT      O93583   3.762   6.871   9.465
31114WAT     H193584   3.758   6.970   9.456
31114WAT     H293585   3.840   6.836   9.413
31115WAT      O93586   4.324   9.629   1.347
31115WAT     H193587   4.258   9.559   1.319
31115WAT     H293588   4.411   9.586   1.369
31116WAT      O93589   8.532   1.988   8.632
31116WAT     H193590   8.627   2.016   8.645
31116WAT     H293591   8.480   2.009   8.715
31117WAT      O93592   2.313   3.883   7.700
31117WAT     H193593   2.379   3.929   7.759
31117WAT     H293594   2.332   3.785   7.699
31118WAT      O93595   2.047   5.925   8.565
31118WAT     H193596   2.033   6.007   8.621
31118WAT     H293597   2.058   5.951   8.469
31119WAT      O93598   1.069   9.589   0.850
31119WAT     H193599   0.970   9.599   0.854
31119WAT     H293600   1.111   9.636   0.927
31120WAT      O93601   3.729   6.941   0.558
31120WAT     H193602   3.740   7.037   0.536
31120WAT     H293603   3.712   6.931   0.656
31121WAT      O93604   9.151   9.032   3.306
31121WAT     H193605   9.059   8.994   3.295
31121WAT     H293606   9.157   9.120   3.259
31122WAT      O93607   0.131   0.862   0.942
31122WAT     H193608   0.194   0.790   0.912
31122WAT     H293609   0.039   0.842   0.910
31123WAT      O93610   5.074   4.876   8.512
31123WAT     H193611   5.100   4.798   8.455
31123WAT     H293612   5.126   4.957   8.484
31124WAT      O93613   8.995   8.793   3.150
31124WAT     H193614   9.011   8.882   3.107
31124WAT     H293615   9.033   8.720   3.093
31125WAT      O93616   6.604   4.770   1.958
31125WAT     H193617   6.660   4.713   1.898
31125WAT     H293618   6.661   4.838   2.003
31126WAT      O93619   0.447   3.553   0.304
31126WAT     H193620   0.528   3.497   0.292
31126WAT     H293621   0.410   3.539   0.396
31127WAT      O93622   9.776   8.575   3.216
31127WAT     H193623   9.860   8.582   3.163
31127WAT     H293624   9.775   8.646   3.287
31128WAT      O93625   8.396   7.832   7.795
31128WAT     H193626   8.361   7.896   7.864
31128WAT     H293627   8.356   7.742   7.809
31129WAT      O93628   4.622   7.034   6.077
31129WAT     H193629   4.563   7.087   6.017
31129WAT     H293630   4.718   7.050   6.053
31130WAT      O93631   3.563   9.544   1.981
31130WAT     H193632   3.598   9.568   2.071
31130WAT     H293633   3.588   9.450   1.960
31131WAT      O93634   5.962   8.127   7.851
31131WAT     H193635   5.914   8.115   7.763
31131WAT     H293636   5.895   8.141   7.923
31132WAT      O93637   4.981   5.547   4.671
31132WAT     H193638   5.038   5.596   4.605
31132WAT     H293639   4.887   5.579   4.665
31133WAT      O93640   0.648   3.848   6.630
31133WAT     H193641   0.628   3.821   6.535
31133WAT     H293642   0.692   3.938   6.630
31134WAT      O93643   4.858   7.944   6.498
31134WAT     H193644   4.813   7.873   6.444
31134WAT     H293645   4.821   8.034   6.472
31135WAT      O93646   7.501   7.517   0.169
31135WAT     H193647   7.477   7.547   0.262
31135WAT     H293648   7.497   7.595   0.107
31136WAT      O93649   8.625   2.500   2.764
31136WAT     H193650   8.676   2.421   2.730
31136WAT     H293651   8.595   2.483   2.858
31137WAT      O93652   7.173   7.777   0.736
31137WAT     H193653   7.105   7.722   0.688
31137WAT     H293654   7.218   7.721   0.806
31138WAT      O93655   1.571   6.358   7.635
31138WAT     H193656   1.479   6.392   7.618
31138WAT     H293657   1.585   6.272   7.585
31139WAT      O93658   5.624   2.874   8.730
31139WAT     H193659   5.638   2.944   8.800
31139WAT     H293660   5.572   2.798   8.769
31140WAT      O93661   5.422   0.742   9.825
31140WAT     H193662   5.421   0.841   9.834
31140WAT     H293663   5.479   0.702   9.897
31141WAT      O93664   4.535   5.564   2.187
31141WAT     H193665   4.518   5.604   2.277
31141WAT     H293666   4.521   5.635   2.117
31142WAT      O93667   2.883   3.021   3.461
31142WAT     H193668   2.803   3.079   3.477
31142WAT     H293669   2.897   3.009   3.362
31143WAT      O93670   1.238   6.598   9.503
31143WAT     H193671   1.307   6.589   9.574
31143WAT     H293672   1.215   6.695   9.492
31144WAT      O93673   0.321   3.770   7.147
31144WAT     H193674   0.230   3.728   7.152
31144WAT     H293675   0.313   3.867   7.170
31145WAT      O93676   0.736   2.107   2.010
31145WAT     H193677   0.791   2.190   2.007
31145WAT     H293678   0.696   2.097   2.102
31146WAT      O93679   4.149   9.283   9.334
31146WAT     H193680   4.060   9.314   9.299
31146WAT     H293681   4.158   9.184   9.320
31147WAT      O93682   9.246   7.924   7.943
31147WAT     H193683   9.204   7.961   7.860
31147WAT     H293684   9.217   7.830   7.956
31148WAT      O93685   6.442   6.306   0.611
31148WAT     H193686   6.380   6.312   0.689
31148WAT     H293687   6.483   6.395   0.594
31149WAT      O93688   8.146   1.525   1.667
31149WAT     H193689   8.203   1.602   1.694
31149WAT     H293690   8.204   1.452   1.631
31150WAT      O93691   4.080   4.929   1.596
31150WAT     H193692   4.170   4.958   1.631
31150WAT     H293693   4.016   5.005   1.601
31151WAT      O93694   2.886   8.552   4.347
31151WAT     H193695   2.877   8.472   4.406
31151WAT     H293696   2.982   8.564   4.321
31152WAT      O93697   1.317   4.774   9.360
31152WAT     H193698   1.260   4.750   9.282
31152WAT     H293699   1.383   4.701   9.377
31153WAT      O93700   0.972   3.124   6.801
31153WAT     H193701   1.007   3.052   6.741
31153WAT     H293702   1.045   3.189   6.822
31154WAT      O93703   2.826   1.755   3.969
31154WAT     H193704   2.785   1.680   4.021
31154WAT     H293705   2.916   1.727   3.936
31155WAT      O93706   7.602   9.437   4.125
31155WAT     H193707   7.651   9.519   4.099
31155WAT     H293708   7.524   9.461   4.183
31156WAT      O93709   4.854   1.056   9.459
31156WAT     H193710   4.866   1.154   9.473
31156WAT     H293711   4.909   1.026   9.382
31157WAT      O93712   4.901   4.716   7.991
31157WAT     H193713   4.963   4.789   7.962
31157WAT     H293714   4.851   4.746   8.073
31158WAT      O93715   6.366   2.708   6.955
31158WAT     H193716   6.365   2.610   6.974
31158WAT     H293717   6.459   2.743   6.963
31159WAT      O93718   0.552   0.311   4.489
31159WAT     H193719   0.583   0.222   4.521
31159WAT     H293720   0.629   0.362   4.451
31160WAT      O93721   1.100   7.964   5.505
31160WAT     H193722   1.078   7.950   5.601
31160WAT     H293723   1.114   8.061   5.487
31161WAT      O93724   2.466   3.500   5.463
31161WAT     H193725   2.495   3.476   5.556
31161WAT     H293726   2.503   3.433   5.399
31162WAT      O93727   1.091   6.919   4.383
31162WAT     H193728   1.162   6.926   4.453
31162WAT     H293729   1.122   6.964   4.299
31163WAT      O93730   3.236   0.053   4.332
31163WAT     H193731   3.205   0.148   4.323
31163WAT     H293732   3.218   0.021   4.426
31164WAT      O93733   9.890   5.986   8.335
31164WAT     H193734   9.898   6.004   8.433
31164WAT     H293735   9.829   5.908   8.321
31165WAT      O93736   2.113   2.273   3.518
31165WAT     H193737   2.175   2.312   3.587
31165WAT     H293738   2.159   2.271   3.429
31166WAT      O93739   1.894   5.638   5.204
31166WAT     H193740   1.829   5.613   5.276
31166WAT     H293741   1.844   5.659   5.120
31167WAT      O93742   7.535   0.544   7.765
31167WAT     H193743   7.526   0.605   7.686
31167WAT     H293744   7.606   0.477   7.747
31168WAT      O93745   6.665   7.751   7.128
31168WAT     H193746   6.711   7.838   7.111
31168WAT     H293747   6.628   7.751   7.220
31169WAT      O93748   4.343   3.789   3.249
31169WAT     H193749   4.366   3.702   3.291
31169WAT     H293750   4.426   3.843   3.235
31170WAT      O93751   1.193   2.776   0.356
31170WAT     H193752   1.288   2.749   0.368
31170WAT     H293753   1.141   2.758   0.439
31171WAT      O93754   7.953   3.237   8.983
31171WAT     H193755   7.912   3.304   9.045
31171WAT     H293756   7.927   3.257   8.889
31172WAT      O93757   8.510   7.884   2.458
31172WAT     H193758   8.531   7.981   2.445
31172WAT     H293759   8.539   7.833   2.376
31173WAT      O93760   9.649   0.541   4.419
31173WAT     H193761   9.677   0.636   4.431
31173WAT     H293762   9.616   0.528   4.325
31174WAT      O93763   5.182   1.218   5.235
31174WAT     H193764   5.173   1.314   5.209
31174WAT     H293765   5.119   1.198   5.311
31175WAT      O93766   9.616   2.826   8.673
31175WAT     H193767   9.627   2.764   8.750
31175WAT     H293768   9.625   2.921   8.705
31176WAT      O93769   3.570   1.866   0.044
31176WAT     H193770   3.662   1.843   0.078
31176WAT     H293771   3.506   1.795   0.073
31177WAT      O93772   7.884   2.708   8.582
31177WAT     H193773   7.948   2.779   8.551
31177WAT     H293774   7.908   2.681   8.676
31178WAT      O93775   3.071   2.107   7.651
31178WAT     H193776   3.170   2.100   7.654
31178WAT     H293777   3.035   2.122   7.743
31179WAT      O93778   0.774   9.301   2.691
31179WAT     H193779   0.696   9.240   2.705
31179WAT     H293780   0.792   9.310   2.593
31180WAT      O93781   4.719   2.842   0.145
31180WAT     H193782   4.773   2.759   0.131
31180WAT     H293783   4.680   2.871   0.057
31181WAT      O93784   2.911   3.992   0.721
31181WAT     H193785   2.859   3.951   0.646
31181WAT     H293786   2.932   3.922   0.790
31182WAT      O93787   8.584   0.663   4.148
31182WAT     H193788   8.631   0.588   4.103
31182WAT     H293789   8.559   0.636   4.241
31183WAT      O93790   0.100   7.847   7.796
31183WAT     H193791   0.141   7.930   7.758
31183WAT     H293792   0.008   7.866   7.828
31184WAT      O93793   2.876   2.512   6.111
31184WAT     H193794   2.885   2.600   6.064
31184WAT     H293795   2.921   2.441   6.057
31185WAT      O93796   3.305   1.154   4.418
31185WAT     H193797   3.385   1.157   4.478
31185WAT     H293798   3.227   1.116   4.467
31186WAT      O93799   4.427   1.593   6.953
31186WAT     H193800   4.509   1.640   6.987
31186WAT     H293801   4.410   1.621   6.858
31187WAT      O93802   5.414   6.147   9.779
31187WAT     H193803   5.472   6.188   9.849
31187WAT     H293804   5.468   6.081   9.726
31188WAT      O93805   1.044   0.264   9.383
31188WAT     H193806   1.016   0.189   9.443
31188WAT     H293807   1.115   0.318   9.428
31189WAT      O93808   3.646   1.759   8.185
31189WAT     H193809   3.655   1.827   8.111
31189WAT     H293810   3.669   1.802   8.272
31190WAT      O93811   9.659   6.566   9.652
31190WAT     H193812   9.626   6.528   9.738
31190WAT     H293813   9.728   6.505   9.613
31191WAT      O93814   1.830   1.323   4.562
31191WAT     H193815   1.930   1.316   4.570
31191WAT     H293816   1.805   1.344   4.468
31192WAT      O93817   8.743   8.167   2.625
31192WAT     H193818   8.660   8.154   2.680
31192WAT     H293819   8.728   8.130   2.533
31193WAT      O93820   7.318   3.561   3.032
31193WAT     H193821   7.388   3.631   3.028
31193WAT     H293822   7.306   3.520   2.942
31194WAT      O93823   4.050   8.446   4.002
31194WAT     H193824   4.150   8.446   3.999
31194WAT     H293825   4.019   8.358   4.037
31195WAT      O93826   5.288   0.012   5.194
31195WAT     H193827   5.246  -0.067   5.150
31195WAT     H293828   5.299  -0.006   5.292
31196WAT      O93829   1.133   8.267   0.813
31196WAT     H193830   1.044   8.302   0.784
31196WAT     H293831   1.195   8.266   0.734
31197WAT      O93832   1.804   3.327   6.662
31197WAT     H193833   1.817   3.246   6.720
31197WAT     H293834   1.841   3.310   6.571
31198WAT      O93835   4.747   2.415   7.804
31198WAT     H193836   4.753   2.495   7.744
31198WAT     H293837   4.653   2.403   7.835
31199WAT      O93838   3.529   3.089   3.375
31199WAT     H193839   3.446   3.130   3.413
31199WAT     H293840   3.516   3.073   3.277
31200WAT      O93841   3.436   2.051   0.961
31200WAT     H193842   3.415   2.137   1.008
31200WAT     H293843   3.357   2.021   0.909
31201WAT      O93844   3.682   3.403   5.744
31201WAT     H193845   3.605   3.345   5.718
31201WAT     H293846   3.721   3.446   5.663
31202WAT      O93847   0.590   1.584   0.575
31202WAT     H193848   0.515   1.606   0.512
31202WAT     H293849   0.676   1.580   0.524
31203WAT      O93850   5.278   0.105   3.949
31203WAT     H193851   5.357   0.066   3.997
31203WAT     H293852   5.239   0.037   3.888
31204WAT      O93853   6.997   7.104   4.217
31204WAT     H193854   7.036   7.170   4.153
31204WAT     H293855   7.008   7.011   4.180
31205WAT      O93856   0.946   8.332   6.691
31205WAT     H193857   0.982   8.394   6.761
31205WAT     H293858   0.858   8.367   6.658
31206WAT      O93859   8.097   1.844   0.268
31206WAT     H193860   8.091   1.884   0.177
31206WAT     H293861   8.107   1.917   0.336
31207WAT      O93862   9.382   0.815   9.347
31207WAT     H193863   9.395   0.907   9.310
31207WAT     H293864   9.469   0.781   9.381
31208WAT      O93865   1.035   1.812   0.264
31208WAT     H193866   1.035   1.912   0.256
31208WAT     H293867   1.059   1.771   0.176
31209WAT      O93868   5.843   0.475   1.499
31209WAT     H193869   5.921   0.470   1.561
31209WAT     H293870   5.819   0.384   1.467
31210WAT      O93871   6.783   5.243   8.683
31210WAT     H193872   6.866   5.277   8.726
31210WAT     H293873   6.803   5.213   8.590
31211WAT      O93874   4.926   3.295   2.323
31211WAT     H193875   4.897   3.242   2.244
31211WAT     H293876   4.855   3.294   2.393
31212WAT      O93877   9.023   6.454   6.541
31212WAT     H193878   8.981   6.544   6.536
31212WAT     H293879   9.112   6.461   6.586
31213WAT      O93880   2.031   6.067   4.218
31213WAT     H193881   1.992   6.036   4.305
31213WAT     H293882   2.069   5.988   4.170
31214WAT      O93883   8.847   4.381   1.517
31214WAT     H193884   8.758   4.408   1.554
31214WAT     H293885   8.880   4.300   1.566
31215WAT      O93886   8.841   6.197   4.030
31215WAT     H193887   8.810   6.292   4.033
31215WAT     H293888   8.862   6.170   3.936
31216WAT      O93889   2.051   0.729   6.994
31216WAT     H193890   2.097   0.740   7.082
31216WAT     H293891   1.952   0.735   7.007
31217WAT      O93892   3.402   5.875   6.854
31217WAT     H193893   3.435   5.965   6.825
31217WAT     H293894   3.478   5.824   6.896
31218WAT      O93895   7.319   9.047   0.915
31218WAT     H193896   7.298   8.975   0.849
31218WAT     H293897   7.234   9.097   0.937
31219WAT      O93898   9.065   8.505   5.726
31219WAT     H193899   9.152   8.459   5.744
31219WAT     H293900   9.082   8.603   5.711
31220WAT      O93901   7.943   7.706   9.637
31220WAT     H193902   8.041   7.721   9.654
31220WAT     H293903   7.895   7.794   9.640
31221WAT      O93904   6.692   1.942   5.244
31221WAT     H193905   6.700   2.032   5.286
31221WAT     H293906   6.784   1.906   5.227
31222WAT      O93907   1.189   6.049   6.171
31222WAT     H193908   1.205   5.986   6.095
31222WAT     H293909   1.131   6.124   6.140
31223WAT      O93910   2.103   7.717   0.044
31223WAT     H193911   2.082   7.791   0.107
31223WAT     H293912   2.155   7.646   0.091
31224WAT      O93913   5.977   1.805   1.828
31224WAT     H193914   5.894   1.818   1.881
31224WAT     H293915   6.045   1.756   1.883
31225WAT      O93916   6.859   1.493   5.657
31225WAT     H193917   6.895   1.495   5.750
31225WAT     H293918   6.786   1.561   5.648
31226WAT      O93919   7.555   2.778   3.444
31226WAT     H193920   7.519   2.841   3.514
31226WAT     H293921   7.541   2.818   3.354
31227WAT      O93922   6.578   4.546   2.742
31227WAT     H193923   6.497   4.605   2.740
31227WAT     H293924   6.646   4.581   2.677
31228WAT      O93925   3.430   1.658   7.628
31228WAT     H193926   3.481   1.743   7.622
31228WAT     H293927   3.401   1.629   7.537
31229WAT      O93928   7.482   2.252   8.345
31229WAT     H193929   7.475   2.347   8.314
31229WAT     H293930   7.492   2.193   8.265
31230WAT      O93931   7.039   4.748   9.502
31230WAT     H193932   7.036   4.704   9.412
31230WAT     H293933   7.076   4.684   9.569
31231WAT      O93934   9.727   9.597   5.761
31231WAT     H193935   9.707   9.509   5.716
31231WAT     H293936   9.672   9.669   5.719
31232WAT      O93937   4.492   5.632   8.837
31232WAT     H193938   4.520   5.705   8.774
31232WAT     H293939   4.563   5.562   8.840
31233WAT      O93940   4.664   5.001   3.762
31233WAT     H193941   4.652   5.016   3.860
31233WAT     H293942   4.575   4.982   3.720
31234WAT      O93943   7.974   7.236   8.936
31234WAT     H193944   8.024   7.261   9.019
31234WAT     H293945   7.949   7.318   8.886
31235WAT      O93946   7.017   3.180   1.555
31235WAT     H193947   7.018   3.089   1.514
31235WAT     H293948   6.925   3.218   1.551
31236WAT      O93949   2.096   6.305   8.681
31236WAT     H193950   2.006   6.262   8.692
31236WAT     H293951   2.084   6.401   8.656
31237WAT      O93952   4.903   8.856   2.174
31237WAT     H193953   4.948   8.883   2.259
31237WAT     H293954   4.963   8.874   2.096
31238WAT      O93955   7.087   7.627   1.246
31238WAT     H193956   7.040   7.547   1.209
31238WAT     H293957   7.021   7.686   1.292
31239WAT      O93958   9.806   9.175   6.459
31239WAT     H193959   9.807   9.267   6.498
31239WAT     H293960   9.858   9.175   6.373
31240WAT      O93961   6.648   4.190   0.076
31240WAT     H193962   6.678   4.151   0.163
31240WAT     H293963   6.711   4.263   0.050
31241WAT      O93964   6.477   3.679   5.443
31241WAT     H193965   6.413   3.688   5.519
31241WAT     H293966   6.554   3.741   5.457
31242WAT      O93967   3.676   6.943   6.201
31242WAT     H193968   3.667   7.014   6.271
31242WAT     H293969   3.584   6.913   6.173
31243WAT      O93970   7.349   1.149   3.275
31243WAT     H193971   7.326   1.242   3.246
31243WAT     H293972   7.289   1.122   3.350
31244WAT      O93973   8.001   9.174   8.134
31244WAT     H193974   7.944   9.143   8.210
31244WAT     H293975   7.947   9.176   8.050
31245WAT      O93976   6.210   1.125   2.471
31245WAT     H193977   6.222   1.031   2.439
31245WAT     H293978   6.171   1.124   2.563
31246WAT      O93979   6.523   4.618   8.672
31246WAT     H193980   6.491   4.525   8.654
31246WAT     H293981   6.515   4.637   8.770
31247WAT      O93982   0.838   8.963   3.681
31247WAT     H193983   0.849   8.889   3.614
31247WAT     H293984   0.889   9.044   3.649
31248WAT      O93985   2.090   2.657   1.477
31248WAT     H193986   2.172   2.602   1.460
31248WAT     H293987   2.086   2.683   1.573
31249WAT      O93988   7.532   0.684   6.537
31249WAT     H193989   7.474   0.607   6.565
31249WAT     H293990   7.495   0.726   6.454
31250WAT      O93991   1.561   3.533   1.941
31250WAT     H193992   1.568   3.519   2.040
31250WAT     H293993   1.589   3.449   1.894
31251WAT      O93994   2.964   3.131   8.665
31251WAT     H193995   2.873   3.136   8.624
31251WAT     H293996   3.014   3.053   8.627
31252WAT      O93997   8.483   5.677   8.372
31252WAT     H193998   8.442   5.663   8.281
31252WAT     H293999   8.502   5.774   8.385
31253WAT      O94000   0.813   0.566   3.772
31253WAT     H194001   0.810   0.468   3.789
31253WAT     H294002   0.732   0.593   3.719
31254WAT      O94003   4.186   0.371   3.623
31254WAT     H194004   4.217   0.444   3.561
31254WAT     H294005   4.110   0.322   3.581
31255WAT      O94006   7.336   4.887   7.267
31255WAT     H194007   7.364   4.804   7.316
31255WAT     H294008   7.315   4.864   7.172
31256WAT      O94009   0.058   8.063   0.642
31256WAT     H194010   0.076   7.965   0.630
31256WAT     H294011   0.039   8.104   0.553
31257WAT      O94012   1.654   7.709   8.104
31257WAT     H194013   1.555   7.699   8.104
31257WAT     H294014   1.696   7.621   8.078
31258WAT      O94015   8.543   6.804   2.797
31258WAT     H194016   8.522   6.708   2.780
31258WAT     H294017   8.623   6.811   2.856
31259WAT      O94018   1.714   1.815   7.697
31259WAT     H194019   1.665   1.728   7.705
31259WAT     H294020   1.809   1.802   7.724
31260WAT      O94021   0.954   4.783   8.596
31260WAT     H194022   0.974   4.797   8.693
31260WAT     H294023   0.903   4.861   8.561
31261WAT      O94024   0.876   0.429   7.700
31261WAT     H194025   0.877   0.435   7.800
31261WAT     H294026   0.957   0.474   7.663
31262WAT      O94027   3.249   4.827   5.740
31262WAT     H194028   3.238   4.835   5.839
31262WAT     H294029   3.342   4.796   5.719
31263WAT      O94030   9.271   1.217   6.176
31263WAT     H194031   9.290   1.268   6.092
31263WAT     H294032   9.189   1.254   6.220
31264WAT      O94033   4.764   5.073   0.734
31264WAT     H194034   4.738   5.085   0.830
31264WAT     H294035   4.846   5.017   0.729
31265WAT      O94036   7.617   8.904   9.284
31265WAT     H194037   7.587   8.975   9.347
31265WAT     H294038   7.602   8.814   9.325
31266WAT      O94039   5.067   2.391   5.222
31266WAT     H194040   5.005   2.385   5.144
31266WAT     H294041   5.151   2.340   5.202
31267WAT      O94042   5.427   4.273   3.982
31267WAT     H194043   5.347   4.274   4.042
31267WAT     H294044   5.402   4.231   3.894
31268WAT      O94045   7.505   0.457   6.163
31268WAT     H194046   7.455   0.433   6.081
31268WAT     H294047   7.465   0.410   6.242
31269WAT      O94048   3.299   6.284   1.057
31269WAT     H194049   3.396   6.293   1.033
31269WAT     H294050   3.286   6.198   1.107
31270WAT      O94051   3.665   7.924   9.135
31270WAT     H194052   3.694   7.951   9.044
31270WAT     H294053   3.570   7.952   9.150
31271WAT      O94054   3.972   1.076   2.638
31271WAT     H194055   3.922   1.161   2.658
31271WAT     H294056   3.917   0.998   2.668
31272WAT      O94057   9.602   7.138   4.376
31272WAT     H194058   9.634   7.206   4.310
31272WAT     H294059   9.592   7.180   4.466
31273WAT      O94060   7.065   9.505   3.893
31273WAT     H194061   7.162   9.515   3.870
31273WAT     H294062   7.056   9.481   3.990
31274WAT      O94063   9.761   4.083   3.948
31274WAT     H194064   9.759   4.099   4.047
31274WAT     H294065   9.853   4.102   3.913
31275WAT      O94066   2.404   6.599   7.639
31275WAT     H194067   2.465   6.660   7.690
31275WAT     H294068   2.309   6.619   7.664
31276WAT      O94069   6.900   5.895   4.173
31276WAT     H194070   6.911   5.806   4.128
31276WAT     H294071   6.988   5.924   4.210
31277WAT      O94072   3.453   8.732   2.095
31277WAT     H194073   3.407   8.781   2.169
31277WAT     H294074   3.394   8.658   2.062
31278WAT      O94075   5.433   5.643   0.264
31278WAT     H194076   5.349   5.602   0.299
31278WAT     H294077   5.411   5.731   0.220
31279WAT      O94078   4.753   5.593   3.396
31279WAT     H194079   4.748   5.693   3.401
31279WAT     H294080   4.668   5.557   3.358
31280WAT      O94081   2.344   4.828   1.467
31280WAT     H194082   2.251   4.858   1.490
31280WAT     H294083   2.400   4.909   1.446
31281WAT      O94084   4.369   9.186   6.103
31281WAT     H194085   4.464   9.217   6.106
31281WAT     H294086   4.327   9.200   6.193
31282WAT      O94087   2.044   9.301   2.699
31282WAT     H194088   2.052   9.275   2.603
31282WAT     H294089   2.123   9.356   2.725
31283WAT      O94090   1.534   9.311   1.029
31283WAT     H194091   1.487   9.385   1.076
31283WAT     H294092   1.631   9.313   1.053
31284WAT      O94093   7.861   8.443   2.154
31284WAT     H194094   7.946   8.493   2.137
31284WAT     H294095   7.865   8.354   2.109
31285WAT      O94096   6.357   0.557   9.872
31285WAT     H194097   6.406   0.584   9.790
31285WAT     H294098   6.407   0.589   9.953
31286WAT      O94099   4.125   4.186   7.207
31286WAT     H194100   4.108   4.253   7.280
31286WAT     H294101   4.173   4.232   7.132
31287WAT      O94102   7.120   0.629   4.258
31287WAT     H194103   7.158   0.718   4.233
31287WAT     H294104   7.196   0.565   4.277
31288WAT      O94105   7.566   7.276   2.170
31288WAT     H194106   7.516   7.267   2.084
31288WAT     H294107   7.646   7.335   2.156
31289WAT      O94108   7.690   6.702   4.192
31289WAT     H194109   7.671   6.751   4.278
31289WAT     H294110   7.756   6.755   4.139
31290WAT      O94111   5.104   4.418   8.780
31290WAT     H194112   5.142   4.507   8.807
31290WAT     H294113   5.007   4.416   8.803
31291WAT      O94114   1.959   1.641   6.187
31291WAT     H194115   1.991   1.596   6.104
31291WAT     H294116   2.035   1.689   6.230
31292WAT      O94117   3.204   5.714   5.274
31292WAT     H194118   3.258   5.646   5.323
31292WAT     H294119   3.120   5.733   5.326
31293WAT      O94120   7.673   2.464   2.130
31293WAT     H194121   7.730   2.453   2.211
31293WAT     H294122   7.639   2.558   2.125
31294WAT      O94123   7.231   0.768   3.348
31294WAT     H194124   7.217   0.783   3.446
31294WAT     H294125   7.145   0.783   3.299
31295WAT      O94126   7.697   3.892   0.348
31295WAT     H194127   7.637   3.969   0.328
31295WAT     H294128   7.759   3.917   0.422
31296WAT      O94129   0.280   9.233   4.873
31296WAT     H194130   0.200   9.290   4.889
31296WAT     H294131   0.286   9.162   4.944
31297WAT      O94132   0.723   7.883   0.538
31297WAT     H194133   0.764   7.842   0.456
31297WAT     H294134   0.636   7.838   0.558
31298WAT      O94135   0.736   0.592   5.838
31298WAT     H194136   0.759   0.565   5.932
31298WAT     H294137   0.695   0.514   5.790
31299WAT      O94138   6.504   9.215   2.139
31299WAT     H194139   6.574   9.181   2.076
31299WAT     H294140   6.541   9.288   2.195
31300WAT      O94141   3.437   0.785   5.731
31300WAT     H194142   3.475   0.692   5.727
31300WAT     H294143   3.353   0.784   5.785
31301WAT      O94144   6.954   0.324   5.279
31301WAT     H194145   6.874   0.381   5.260
31301WAT     H294146   7.028   0.349   5.216
31302WAT      O94147   4.162   7.049   8.181
31302WAT     H194148   4.255   7.012   8.179
31302WAT     H294149   4.100   6.982   8.220
31303WAT      O94150   2.686   7.010   2.075
31303WAT     H194151   2.597   6.964   2.079
31303WAT     H294152   2.757   6.947   2.107
31304WAT      O94153   2.342   8.430   8.667
31304WAT     H194154   2.272   8.496   8.695
31304WAT     H294155   2.420   8.436   8.729
31305WAT      O94156   8.440   0.748   2.833
31305WAT     H194157   8.526   0.699   2.850
31305WAT     H294158   8.378   0.735   2.910
31306WAT      O94159   0.777   5.142   5.415
31306WAT     H194160   0.735   5.170   5.501
31306WAT     H294161   0.720   5.171   5.339
31307WAT      O94162   1.520   4.320   4.238
31307WAT     H194163   1.534   4.310   4.139
31307WAT     H294164   1.423   4.330   4.258
31308WAT      O94165   1.538   9.671   4.803
31308WAT     H194166   1.591   9.600   4.850
31308WAT     H294167   1.601   9.738   4.763
31309WAT      O94168   2.223   8.989   3.174
31309WAT     H194169   2.203   8.978   3.271
31309WAT     H294170   2.160   8.933   3.120
31310WAT      O94171   1.376   8.839   0.575
31310WAT     H194172   1.366   8.756   0.629
31310WAT     H294173   1.438   8.902   0.622
31311WAT      O94174   3.584   5.154   3.302
31311WAT     H194175   3.596   5.079   3.367
31311WAT     H294176   3.516   5.128   3.234
31312WAT      O94177   9.105   4.219   7.281
31312WAT     H194178   9.041   4.161   7.331
31312WAT     H294179   9.074   4.314   7.284
31313WAT      O94180   2.360   9.695   2.454
31313WAT     H194181   2.325   9.766   2.516
31313WAT     H294182   2.283   9.644   2.414
31314WAT      O94183   0.041   6.996   8.419
31314WAT     H194184   0.058   7.025   8.513
31314WAT     H294185   0.083   7.060   8.355
31315WAT      O94186   0.526   4.872   8.603
31315WAT     H194187   0.432   4.902   8.588
31315WAT     H294188   0.579   4.947   8.645
31316WAT      O94189   2.813   3.648   8.283
31316WAT     H194190   2.890   3.678   8.227
31316WAT     H294191   2.735   3.626   8.225
31317WAT      O94192   3.978   2.864   8.277
31317WAT     H194193   3.891   2.907   8.252
31317WAT     H294194   3.962   2.793   8.345
31318WAT      O94195   6.377   8.994   9.253
31318WAT     H194196   6.436   9.002   9.333
31318WAT     H294197   6.384   8.901   9.216
31319WAT      O94198   2.864   8.522   8.013
31319WAT     H194199   2.860   8.566   7.923
31319WAT     H294200   2.809   8.438   8.010
31320WAT      O94201   3.742   1.524   6.167
31320WAT     H194202   3.782   1.448   6.117
31320WAT     H294203   3.767   1.517   6.264
31321WAT      O94204   7.762   0.338   4.679
31321WAT     H194205   7.810   0.263   4.634
31321WAT     H294206   7.668   0.310   4.699
31322WAT      O94207   5.630   2.110   0.921
31322WAT     H194208   5.644   2.184   0.856
31322WAT     H294209   5.717   2.086   0.964
31323WAT      O94210   3.964   4.006   7.352
31323WAT     H194211   4.037   4.050   7.299
31323WAT     H294212   3.991   3.912   7.373
31324WAT      O94213   0.158   1.424   3.482
31324WAT     H194214   0.195   1.391   3.568
31324WAT     H294215   0.222   1.404   3.408
31325WAT      O94216   7.507   5.180   8.729
31325WAT     H194217   7.494   5.088   8.692
31325WAT     H294218   7.595   5.184   8.777
31326WAT      O94219   3.327   8.009   9.528
31326WAT     H194220   3.328   7.923   9.578
31326WAT     H294221   3.421   8.043   9.518
31327WAT      O94222   4.371   3.041   7.887
31327WAT     H194223   4.450   3.102   7.884
31327WAT     H294224   4.399   2.951   7.921
31328WAT      O94225   9.245   5.953   6.240
31328WAT     H194226   9.208   5.874   6.289
31328WAT     H294227   9.192   6.034   6.262
31329WAT      O94228   1.795   4.315   2.958
31329WAT     H194229   1.749   4.345   2.874
31329WAT     H294230   1.892   4.337   2.954
31330WAT      O94231   8.118   3.246   5.923
31330WAT     H194232   8.054   3.179   5.960
31330WAT     H294233   8.068   3.317   5.874
31331WAT      O94234   3.010   1.114   4.123
31331WAT     H194235   2.999   1.031   4.178
31331WAT     H294236   2.924   1.166   4.124
31332WAT      O94237   1.129   8.365   4.633
31332WAT     H194238   1.102   8.345   4.727
31332WAT     H294239   1.228   8.361   4.625
31333WAT      O94240   7.312   8.715   7.630
31333WAT     H194241   7.321   8.646   7.701
31333WAT     H294242   7.345   8.677   7.543
31334WAT      O94243   7.686   1.762   0.540
31334WAT     H194244   7.750   1.825   0.496
31334WAT     H294245   7.599   1.808   0.556
31335WAT      O94246   0.524   6.534   8.074
31335WAT     H194247   0.446   6.523   8.012
31335WAT     H294248   0.537   6.631   8.094
31336WAT      O94249   4.617   3.054   3.879
31336WAT     H194250   4.679   2.978   3.859
31336WAT     H294251   4.669   3.128   3.921
31337WAT      O94252   6.229   8.801   0.188
31337WAT     H194253   6.231   8.702   0.173
31337WAT     H294254   6.136   8.834   0.176
31338WAT      O94255   9.456   7.058   6.548
31338WAT     H194256   9.489   7.065   6.454
31338WAT     H294257   9.373   7.002   6.550
31339WAT      O94258   5.242   5.645   8.765
31339WAT     H194259   5.231   5.665   8.863
31339WAT     H294260   5.282   5.554   8.754
31340WAT      O94261   8.335   9.603   8.881
31340WAT     H194262   8.284   9.676   8.927
31340WAT     H294263   8.342   9.623   8.783
31341WAT      O94264   2.513   2.369   9.022
31341WAT     H194265   2.460   2.434   8.968
31341WAT     H294266   2.506   2.393   9.119
31342WAT      O94267   4.191   2.523   1.783
31342WAT     H194268   4.219   2.519   1.879
31342WAT     H294269   4.223   2.441   1.735
31343WAT      O94270   5.451   2.313   2.414
31343WAT     H194271   5.356   2.340   2.395
31343WAT     H294272   5.455   2.216   2.435
31344WAT      O94273   7.654   0.886   0.030
31344WAT     H194274   7.751   0.862   0.027
31344WAT     H294275   7.608   0.833   0.101
31345WAT      O94276   6.235   2.396   2.356
31345WAT     H194277   6.328   2.419   2.328
31345WAT     H294278   6.190   2.342   2.285
31346WAT      O94279   0.484   4.194   5.832
31346WAT     H194280   0.446   4.130   5.766
31346WAT     H294281   0.410   4.243   5.878
31347WAT      O94282   2.173   4.886   4.668
31347WAT     H194283   2.248   4.857   4.728
31347WAT     H294284   2.091   4.832   4.688
31348WAT      O94285   7.643   4.874   9.123
31348WAT     H194286   7.703   4.936   9.173
31348WAT     H294287   7.599   4.810   9.186
31349WAT      O94288   3.448   6.717   9.234
31349WAT     H194289   3.513   6.776   9.187
31349WAT     H294290   3.368   6.770   9.262
31350WAT      O94291   0.622   7.615   1.115
31350WAT     H194292   0.681   7.556   1.060
31350WAT     H294293   0.667   7.635   1.202
31351WAT      O94294   5.177   9.129   7.156
31351WAT     H194295   5.203   9.152   7.250
31351WAT     H294296   5.125   9.205   7.116
31352WAT      O94297   2.406   6.926   2.386
31352WAT     H194298   2.407   6.896   2.291
31352WAT     H294299   2.498   6.923   2.424
31353WAT      O94300   9.681   3.206   5.341
31353WAT     H194301   9.649   3.252   5.423
31353WAT     H294302   9.613   3.214   5.269
31354WAT      O94303   1.872   5.856   7.831
31354WAT     H194304   1.840   5.868   7.925
31354WAT     H294305   1.971   5.844   7.831
31355WAT      O94306   9.850   4.607   7.324
31355WAT     H194307   9.869   4.696   7.365
31355WAT     H294308   9.901   4.536   7.374
31356WAT      O94309   4.954   0.555   4.393
31356WAT     H194310   4.912   0.615   4.461
31356WAT     H294311   5.031   0.507   4.435
31357WAT      O94312   3.209   1.856   3.630
31357WAT     H194313   3.136   1.907   3.583
31357WAT     H294314   3.290   1.854   3.571
31358WAT      O94315   7.900   6.050   5.168
31358WAT     H194316   8.000   6.060   5.161
31358WAT     H294317   7.856   6.138   5.153
31359WAT      O94318   5.919   3.097   4.945
31359WAT     H194319   5.963   3.034   4.882
31359WAT     H294320   5.837   3.055   4.984
31360WAT      O94321   5.950   0.832   9.717
31360WAT     H194322   5.915   0.840   9.811
31360WAT     H294323   5.893   0.767   9.667
31361WAT      O94324   1.260   5.515   2.872
31361WAT     H194325   1.350   5.474   2.860
31361WAT     H294326   1.256   5.562   2.960
31362WAT      O94327   6.845   7.639   8.280
31362WAT     H194328   6.770   7.667   8.340
31362WAT     H294329   6.809   7.586   8.203
31363WAT      O94330   9.180   7.327   5.564
31363WAT     H194331   9.279   7.317   5.572
31363WAT     H294332   9.149   7.402   5.623
31364WAT      O94333   4.717   1.000   8.699
31364WAT     H194334   4.713   0.930   8.770
31364WAT     H294335   4.645   1.068   8.715
31365WAT      O94336   6.888   8.382   0.416
31365WAT     H194337   6.871   8.368   0.513
31365WAT     H294338   6.868   8.476   0.390
31366WAT      O94339   8.578   3.987   1.650
31366WAT     H194340   8.488   4.010   1.687
31366WAT     H294341   8.649   4.026   1.708
31367WAT      O94342   0.450   5.039   4.495
31367WAT     H194343   0.477   5.128   4.458
31367WAT     H294344   0.383   5.052   4.568
31368WAT      O94345   4.930   3.340   5.336
31368WAT     H194346   4.888   3.302   5.254
31368WAT     H294347   4.862   3.345   5.409
31369WAT      O94348   8.600   2.816   8.383
31369WAT     H194349   8.554   2.868   8.311
31369WAT     H294350   8.537   2.748   8.420
31370WAT      O94351   3.046   3.711   3.422
31370WAT     H194352   2.983   3.710   3.344
31370WAT     H294353   3.138   3.732   3.391
31371WAT      O94354   2.355   5.324   9.380
31371WAT     H194355   2.404   5.380   9.446
31371WAT     H294356   2.294   5.261   9.429
31372WAT      O94357   3.590   8.402   4.468
31372WAT     H194358   3.554   8.366   4.382
31372WAT     H294359   3.669   8.461   4.449
31373WAT      O94360   5.304   5.393   8.739
31373WAT     H194361   5.375   5.378   8.808
31373WAT     H294362   5.248   5.311   8.731
31374WAT      O94363   2.767   1.346   6.612
31374WAT     H194364   2.706   1.287   6.561
31374WAT     H294365   2.850   1.295   6.636
31375WAT      O94366   1.338   6.945   5.220
31375WAT     H194367   1.335   6.932   5.121
31375WAT     H294368   1.302   6.864   5.266
31376WAT      O94369   0.544   3.586   9.472
31376WAT     H194370   0.540   3.685   9.460
31376WAT     H294371   0.453   3.547   9.462
31377WAT      O94372   2.986   5.129   2.912
31377WAT     H194373   2.896   5.169   2.926
31377WAT     H294374   3.026   5.105   3.001
31378WAT      O94375   2.928   8.925   6.345
31378WAT     H194376   2.891   9.018   6.339
31378WAT     H294377   3.005   8.923   6.409
31379WAT      O94378   8.587   3.164   3.936
31379WAT     H194379   8.612   3.075   3.975
31379WAT     H294380   8.489   3.178   3.945
31380WAT      O94381   6.523   7.618   5.067
31380WAT     H194382   6.453   7.547   5.071
31380WAT     H294383   6.532   7.661   5.157
31381WAT      O94384   8.065   4.241   7.380
31381WAT     H194385   8.132   4.176   7.345
31381WAT     H294386   8.087   4.333   7.348
31382WAT      O94387   7.578   2.506   8.721
31382WAT     H194388   7.622   2.486   8.809
31382WAT     H294389   7.621   2.452   8.649
31383WAT      O94390   0.635   4.905   4.764
31383WAT     H194391   0.633   5.004   4.748
31383WAT     H294392   0.616   4.857   4.678
31384WAT      O94393   4.702   2.003   0.912
31384WAT     H194394   4.751   2.039   0.991
31384WAT     H294395   4.660   2.078   0.861
31385WAT      O94396   3.058   5.413   1.389
31385WAT     H194397   3.003   5.354   1.329
31385WAT     H294398   3.052   5.380   1.483
31386WAT      O94399   5.947   8.649   4.240
31386WAT     H194400   5.974   8.744   4.256
31386WAT     H294401   5.878   8.645   4.168
31387WAT      O94402   7.421   7.823   1.560
31387WAT     H194403   7.403   7.771   1.644
31387WAT     H294404   7.498   7.782   1.511
31388WAT      O94405   3.698   8.041   4.430
31388WAT     H194406   3.698   7.998   4.520
31388WAT     H294407   3.733   8.134   4.437
31389WAT      O94408   0.354   9.497   8.548
31389WAT     H194409   0.391   9.426   8.609
31389WAT     H294410   0.392   9.586   8.574
31390WAT      O94411   5.343   3.423   4.788
31390WAT     H194412   5.271   3.404   4.722
31390WAT     H294413   5.311   3.397   4.880
31391WAT      O94414   0.846   5.607   8.982
31391WAT     H194415   0.781   5.673   9.020
31391WAT     H294416   0.819   5.514   9.010
31392WAT      O94417   8.291   3.946   5.878
31392WAT     H194418   8.290   4.013   5.804
31392WAT     H294419   8.293   3.993   5.966
31393WAT      O94420   1.311   6.377   6.332
31393WAT     H194421   1.228   6.346   6.377
31393WAT     H294422   1.387   6.377   6.397
31394WAT      O94423   4.738   6.976   0.409
31394WAT     H194424   4.679   7.013   0.337
31394WAT     H294425   4.803   7.046   0.437
31395WAT      O94426   2.585   5.576   0.885
31395WAT     H194427   2.566   5.546   0.792
31395WAT     H294428   2.502   5.616   0.924
31396WAT      O94429   2.539   9.228   2.342
31396WAT     H194430   2.518   9.138   2.381
31396WAT     H294431   2.605   9.275   2.402
31397WAT      O94432   0.889   3.491   4.400
31397WAT     H194433   0.831   3.476   4.321
31397WAT     H294434   0.985   3.486   4.372
31398WAT      O94435   3.348   7.573   0.187
31398WAT     H194436   3.265   7.580   0.243
31398WAT     H294437   3.408   7.650   0.208
31399WAT      O94438   0.545   6.420   1.457
31399WAT     H194439   0.562   6.399   1.360
31399WAT     H294440   0.619   6.477   1.492
31400WAT      O94441   4.802   9.543   2.109
31400WAT     H194442   4.859   9.468   2.077
31400WAT     H294443   4.706   9.521   2.093
31401WAT      O94444   4.207   6.092   7.042
31401WAT     H194445   4.284   6.068   6.982
31401WAT     H294446   4.179   6.186   7.023
31402WAT      O94447   0.986   7.530   8.075
31402WAT     H194448   0.918   7.604   8.081
31402WAT     H294449   0.963   7.470   7.999
31403WAT      O94450   9.293   1.427   0.526
31403WAT     H194451   9.197   1.430   0.498
31403WAT     H294452   9.314   1.339   0.568
31404WAT      O94453   0.970   8.916   5.308
31404WAT     H194454   0.911   8.914   5.228
31404WAT     H294455   0.915   8.938   5.389
31405WAT      O94456   7.064   6.862   5.738
31405WAT     H194457   7.116   6.946   5.727
31405WAT     H294458   6.967   6.881   5.729
31406WAT      O94459   2.157   1.039   6.350
31406WAT     H194460   2.097   1.013   6.275
31406WAT     H294461   2.153   0.969   6.421
31407WAT      O94462   4.827   0.647   1.643
31407WAT     H194463   4.771   0.620   1.565
31407WAT     H294464   4.901   0.581   1.655
31408WAT      O94465   9.266   3.999   7.218
31408WAT     H194466   9.346   4.023   7.162
31408WAT     H294467   9.225   4.083   7.254
31409WAT      O94468   8.360   1.126   2.608
31409WAT     H194469   8.423   1.204   2.608
31409WAT     H294470   8.346   1.094   2.514
31410WAT      O94471   1.028   3.710   3.005
31410WAT     H194472   0.975   3.655   3.070
31410WAT     H294473   1.120   3.723   3.041
31411WAT      O94474   2.185   2.261   1.364
31411WAT     H194475   2.110   2.225   1.308
31411WAT     H294476   2.201   2.199   1.441
31412WAT      O94477   3.149   4.141   2.417
31412WAT     H194478   3.175   4.226   2.461
31412WAT     H294479   3.102   4.161   2.330
31413WAT      O94480   5.689   6.299   8.890
31413WAT     H194481   5.760   6.364   8.866
31413WAT     H294482   5.600   6.336   8.864
31414WAT      O94483   8.230   8.158   4.269
31414WAT     H194484   8.172   8.172   4.190
31414WAT     H294485   8.196   8.213   4.346
31415WAT      O94486   8.051   6.987   5.404
31415WAT     H194487   8.086   6.984   5.498
31415WAT     H294488   8.058   6.897   5.362
31416WAT      O94489   3.663   5.218   0.273
31416WAT     H194490   3.703   5.151   0.211
31416WAT     H294491   3.718   5.224   0.356
31417WAT      O94492   9.402   3.693   7.142
31417WAT     H194493   9.442   3.695   7.050
31417WAT     H294494   9.324   3.756   7.145
31418WAT      O94495   5.228   4.414   1.557
31418WAT     H194496   5.176   4.479   1.500
31418WAT     H294497   5.201   4.425   1.653
31419WAT      O94498   9.414   3.135   2.631
31419WAT     H194499   9.507   3.140   2.667
31419WAT     H294500   9.414   3.157   2.534
31420WAT      O94501   6.154   4.730   7.092
31420WAT     H194502   6.126   4.729   7.188
31420WAT     H294503   6.253   4.730   7.086
31421WAT      O94504   8.545   6.008   4.753
31421WAT     H194505   8.558   5.909   4.751
31421WAT     H294506   8.635   6.053   4.758
31422WAT      O94507   1.000   6.538   7.093
31422WAT     H194508   0.907   6.569   7.069
31422WAT     H294509   0.997   6.444   7.125
31423WAT      O94510   2.770   3.015   9.791
31423WAT     H194511   2.672   3.026   9.804
31423WAT     H294512   2.790   2.922   9.761
31424WAT      O94513   5.743   4.925   7.153
31424WAT     H194514   5.700   4.842   7.189
31424WAT     H294515   5.678   4.973   7.093
31425WAT      O94516   1.999   4.098   0.036
31425WAT     H194517   1.901   4.094   0.019
31425WAT     H294518   2.031   4.193   0.025
31426WAT      O94519   0.687   9.007   9.166
31426WAT     H194520   0.612   8.988   9.230
31426WAT     H294521   0.650   9.051   9.084
31427WAT      O94522   8.977   6.492   3.926
31427WAT     H194523   8.878   6.508   3.929
31427WAT     H294524   9.025   6.577   3.948
31428WAT      O94525   3.099   6.718   0.160
31428WAT     H194526   3.003   6.727   0.187
31428WAT     H294527   3.114   6.629   0.117
31429WAT      O94528   3.990   4.518   5.160
31429WAT     H194529   4.024   4.476   5.076
31429WAT     H294530   3.905   4.567   5.141
31430WAT      O94531   2.608   2.531   7.574
31430WAT     H194532   2.585   2.516   7.670
31430WAT     H294533   2.616   2.442   7.528
31431WAT      O94534   7.936   7.625   2.277
31431WAT     H194535   7.874   7.564   2.227
31431WAT     H294536   8.012   7.573   2.316
31432WAT      O94537   5.086   0.650   7.956
31432WAT     H194538   5.019   0.723   7.940
31432WAT     H294539   5.130   0.626   7.869
31433WAT      O94540   5.510   9.464   8.729
31433WAT     H194541   5.466   9.442   8.817
31433WAT     H294542   5.606   9.487   8.745
31434WAT      O94543   9.599   7.125   0.272
31434WAT     H194544   9.554   7.150   0.358
31434WAT     H294545   9.610   7.025   0.269
31435WAT      O94546   7.773   0.842   6.121
31435WAT     H194547   7.754   0.751   6.085
31435WAT     H294548   7.687   0.893   6.129
31436WAT      O94549   3.342   8.745   9.738
31436WAT     H194550   3.341   8.680   9.662
31436WAT     H294551   3.322   8.697   9.823
31437WAT      O94552   0.425   3.959   5.193
31437WAT     H194553   0.398   3.933   5.100
31437WAT     H294554   0.350   4.008   5.237
31438WAT      O94555   7.038   2.145   5.640
31438WAT     H194556   7.120   2.199   5.659
31438WAT     H294557   6.957   2.200   5.659
31439WAT      O94558   1.407   4.332   2.737
31439WAT     H194559   1.367   4.352   2.648
31439WAT     H294560   1.355   4.379   2.808
31440WAT      O94561   3.630   4.638   0.664
31440WAT     H194562   3.629   4.624   0.565
31440WAT     H294563   3.702   4.582   0.705
31441WAT      O94564   8.559   7.668   9.113
31441WAT     H194565   8.589   7.618   9.194
31441WAT     H294566   8.615   7.750   9.101
31442WAT      O94567   5.974   6.189   0.157
31442WAT     H194568   5.913   6.185   0.236
31442WAT     H294569   6.049   6.252   0.176
31443WAT      O94570   4.779   9.130   6.428
31443WAT     H194571   4.736   9.193   6.493
31443WAT     H294572   4.827   9.182   6.358
31444WAT      O94573   5.389   0.362   5.844
31444WAT     H194574   5.358   0.322   5.930
31444WAT     H294575   5.401   0.461   5.855
31445WAT      O94576   8.596   6.823   9.459
31445WAT     H194577   8.622   6.759   9.387
31445WAT     H294578   8.498   6.815   9.477
31446WAT      O94579   1.096   3.648   3.784
31446WAT     H194580   0.997   3.661   3.774
31446WAT     H294581   1.129   3.586   3.714
31447WAT      O94582   4.136   2.502   8.522
31447WAT     H194583   4.235   2.513   8.513
31447WAT     H294584   4.092   2.591   8.523
31448WAT      O94585   5.955   7.403   4.883
31448WAT     H194586   5.867   7.355   4.881
31448WAT     H294587   5.940   7.501   4.871
31449WAT      O94588   7.439   8.664   1.586
31449WAT     H194589   7.448   8.720   1.503
31449WAT     H294590   7.344   8.664   1.616
31450WAT      O94591   5.174   0.772   4.796
31450WAT     H194592   5.199   0.868   4.786
31450WAT     H294593   5.120   0.760   4.879
31451WAT      O94594   5.508   2.606   7.577
31451WAT     H194595   5.457   2.635   7.495
31451WAT     H294596   5.451   2.619   7.658
31452WAT      O94597   8.650   7.751   0.956
31452WAT     H194598   8.687   7.684   1.020
31452WAT     H294599   8.717   7.771   0.885
31453WAT      O94600   8.229   3.157   6.299
31453WAT     H194601   8.195   3.064   6.286
31453WAT     H294602   8.266   3.166   6.391
31454WAT      O94603   5.969   4.287   6.219
31454WAT     H194604   6.054   4.270   6.169
31454WAT     H294605   5.989   4.336   6.304
31455WAT      O94606   9.700   1.106   3.848
31455WAT     H194607   9.625   1.125   3.785
31455WAT     H294608   9.757   1.188   3.859
31456WAT      O94609   9.855   6.947   1.960
31456WAT     H194610   9.950   6.975   1.973
31456WAT     H294611   9.831   6.875   2.025
31457WAT      O94612   9.291   3.007   3.831
31457WAT     H194613   9.361   3.078   3.823
31457WAT     H294614   9.329   2.928   3.878
31458WAT      O94615   4.211   4.769   7.383
31458WAT     H194616   4.274   4.703   7.341
31458WAT     H294617   4.156   4.723   7.453
31459WAT      O94618   9.073   1.561   7.315
31459WAT     H194619   9.144   1.491   7.330
31459WAT     H294620   8.988   1.532   7.358
31460WAT      O94621   6.034   4.598   8.663
31460WAT     H194622   6.024   4.527   8.594
31460WAT     H294623   6.116   4.651   8.645
31461WAT      O94624   9.251   8.763   3.633
31461WAT     H194625   9.279   8.694   3.700
31461WAT     H294626   9.236   8.719   3.545
31462WAT      O94627   4.366   6.028   5.799
31462WAT     H194628   4.424   6.045   5.879
31462WAT     H294629   4.271   6.019   5.829
31463WAT      O94630   2.127   3.513   7.479
31463WAT     H194631   2.162   3.603   7.456
31463WAT     H294632   2.135   3.452   7.400
31464WAT      O94633   5.972   8.873   0.189
31464WAT     H194634   5.952   8.971   0.192
31464WAT     H294635   5.927   8.832   0.110
31465WAT      O94636   4.073   6.323   6.257
31465WAT     H194637   4.143   6.253   6.267
31465WAT     H294638   4.116   6.414   6.267
31466WAT      O94639   9.519   7.377   5.082
31466WAT     H194640   9.452   7.369   5.009
31466WAT     H294641   9.515   7.469   5.121
31467WAT      O94642   7.376   4.765   0.145
31467WAT     H194643   7.367   4.703   0.223
31467WAT     H294644   7.426   4.847   0.172
31468WAT      O94645   7.892   6.275   1.075
31468WAT     H194646   7.803   6.242   1.108
31468WAT     H294647   7.897   6.374   1.084
31469WAT      O94648   3.506   8.510   1.647
31469WAT     H194649   3.533   8.442   1.579
31469WAT     H294650   3.429   8.474   1.700
31470WAT      O94651   0.656   7.150   2.472
31470WAT     H194652   0.733   7.153   2.407
31470WAT     H294653   0.581   7.204   2.436
31471WAT      O94654   7.720   3.419   3.209
31471WAT     H194655   7.624   3.392   3.201
31471WAT     H294656   7.741   3.489   3.141
31472WAT      O94657   0.438   1.052   8.663
31472WAT     H194658   0.354   1.093   8.627
31472WAT     H294659   0.507   1.049   8.591
31473WAT      O94660   6.977   7.154   3.578
31473WAT     H194661   6.899   7.143   3.517
31473WAT     H294662   7.050   7.093   3.550
31474WAT      O94663   3.064   9.514   5.566
31474WAT     H194664   3.081   9.421   5.532
31474WAT     H294665   3.151   9.557   5.590
31475WAT      O94666   3.843   1.596   5.301
31475WAT     H194667   3.746   1.617   5.298
31475WAT     H294668   3.861   1.533   5.377
31476WAT      O94669   8.765   5.414   0.069
31476WAT     H194670   8.811   5.347   0.128
31476WAT     H294671   8.831   5.450   0.002
31477WAT      O94672   5.765   9.301   0.970
31477WAT     H194673   5.784   9.243   1.049
31477WAT     H294674   5.761   9.397   0.999
31478WAT      O94675   6.605   4.269   2.629
31478WAT     H194676   6.612   4.358   2.674
31478WAT     H294677   6.691   4.220   2.638
31479WAT      O94678   2.300   9.735   4.187
31479WAT     H194679   2.280   9.819   4.239
31479WAT     H294680   2.391   9.702   4.212
31480WAT      O94681   1.891   6.865   6.881
31480WAT     H194682   1.893   6.784   6.822
31480WAT     H294683   1.939   6.940   6.837
31481WAT      O94684   0.313   0.310   0.582
31481WAT     H194685   0.284   0.406   0.583
31481WAT     H294686   0.377   0.294   0.658
31482WAT      O94687   7.129   4.400   3.773
31482WAT     H194688   7.121   4.318   3.829
31482WAT     H294689   7.079   4.475   3.817
31483WAT      O94690   6.091   7.030   0.809
31483WAT     H194691   6.121   6.946   0.853
31483WAT     H294692   6.073   7.100   0.878
31484WAT      O94693   9.442   4.634   3.223
31484WAT     H194694   9.481   4.545   3.199
31484WAT     H294695   9.344   4.635   3.203
31485WAT      O94696   8.695   0.594   2.894
31485WAT     H194697   8.658   0.501   2.889
31485WAT     H294698   8.794   0.590   2.908
31486WAT      O94699   7.038   6.895   0.928
31486WAT     H194700   6.988   6.959   0.986
31486WAT     H294701   7.070   6.818   0.983
31487WAT      O94702   4.480   8.433   8.270
31487WAT     H194703   4.531   8.482   8.340
31487WAT     H294704   4.543   8.402   8.198
31488WAT      O94705   7.005   4.683   1.749
31488WAT     H194706   6.995   4.748   1.674
31488WAT     H294707   6.915   4.649   1.776
31489WAT      O94708   5.735   8.046   8.734
31489WAT     H194709   5.687   7.978   8.679
31489WAT     H294710   5.817   8.077   8.686
31490WAT      O94711   3.334   3.789   5.968
31490WAT     H194712   3.361   3.865   6.026
31490WAT     H294713   3.376   3.799   5.878
31491WAT      O94714   2.742   0.045   9.873
31491WAT     H194715   2.716   0.002   9.786
31491WAT     H294716   2.831   0.009   9.902
31492WAT      O94717   2.703   8.389   0.325
31492WAT     H194718   2.796   8.352   0.330
31492WAT     H294719   2.656   8.349   0.247
31493WAT      O94720   3.048   7.102   7.067
31493WAT     H194721   3.124   7.048   7.105
31493WAT     H294722   3.030   7.073   6.973
31494WAT      O94723   4.442   1.896   0.856
31494WAT     H194724   4.529   1.925   0.897
31494WAT     H294725   4.437   1.930   0.762
31495WAT      O94726   8.298   8.914   6.262
31495WAT     H194727   8.247   8.986   6.309
31495WAT     H294728   8.382   8.894   6.311
31496WAT      O94729   9.885   1.671   9.821
31496WAT     H194730   9.836   1.758   9.817
31496WAT     H294731   9.876   1.624   9.733
31497WAT      O94732   3.164   7.285   4.401
31497WAT     H194733   3.094   7.221   4.371
31497WAT     H294734   3.254   7.251   4.374
31498WAT      O94735   5.673   6.028   1.835
31498WAT     H194736   5.705   6.108   1.887
31498WAT     H294737   5.579   6.045   1.804
31499WAT      O94738   1.115   5.470   4.515
31499WAT     H194739   1.138   5.492   4.420
31499WAT     H294740   1.022   5.432   4.518
31500WAT      O94741   7.904   0.015   4.042
31500WAT     H194742   7.935   0.085   4.106
31500WAT     H294743   7.913   0.049   3.949
31501WAT      O94744   8.091   9.364   6.284
31501WAT     H194745   8.036   9.386   6.364
31501WAT     H294746   8.040   9.389   6.201
31502WAT      O94747   4.435   3.794   7.068
31502WAT     H194748   4.377   3.744   7.004
31502WAT     H294749   4.472   3.876   7.023
31503WAT      O94750   4.168   1.915   9.716
31503WAT     H194751   4.228   1.991   9.690
31503WAT     H294752   4.075   1.934   9.684
31504WAT      O94753   6.830   6.996   1.087
31504WAT     H194754   6.760   7.066   1.076
31504WAT     H294755   6.789   6.905   1.080
31505WAT      O94756   3.048   1.184   7.854
31505WAT     H194757   2.983   1.110   7.835
31505WAT     H294758   3.033   1.219   7.947
31506WAT      O94759   4.435   5.425   1.957
31506WAT     H194760   4.339   5.399   1.967
31506WAT     H294761   4.465   5.476   2.037
31507WAT      O94762   1.892   0.969   7.110
31507WAT     H194763   1.873   1.022   7.028
31507WAT     H294764   1.991   0.967   7.126
31508WAT      O94765   1.614   2.362   3.891
31508WAT     H194766   1.624   2.294   3.818
31508WAT     H294767   1.526   2.408   3.881
31509WAT      O94768   5.936   5.894   6.165
31509WAT     H194769   5.905   5.977   6.210
31509WAT     H294770   5.894   5.887   6.075
31510WAT      O94771   0.369   6.447   3.070
31510WAT     H194772   0.413   6.504   3.000
31510WAT     H294773   0.296   6.499   3.114
31511WAT      O94774   0.096   5.293   3.116
31511WAT     H194775   0.056   5.207   3.085
31511WAT     H294776   0.050   5.323   3.199
31512WAT      O94777   5.437   6.393   8.829
31512WAT     H194778   5.376   6.454   8.879
31512WAT     H294779   5.406   6.299   8.840
31513WAT      O94780   7.848   8.344   3.186
31513WAT     H194781   7.941   8.335   3.220
31513WAT     H294782   7.838   8.292   3.101
31514WAT      O94783   3.079   6.700   3.876
31514WAT     H194784   3.159   6.754   3.901
31514WAT     H294785   3.074   6.692   3.777
31515WAT      O94786   5.164   7.613   5.522
31515WAT     H194787   5.128   7.647   5.609
31515WAT     H294788   5.198   7.519   5.534
31516WAT      O94789   6.047   9.807   3.217
31516WAT     H194790   6.064   9.834   3.312
31516WAT     H294791   6.036   9.708   3.212
31517WAT      O94792   6.383   4.481   5.141
31517WAT     H194793   6.315   4.465   5.212
31517WAT     H294794   6.390   4.401   5.082
31518WAT      O94795   5.181   0.605   8.219
31518WAT     H194796   5.257   0.668   8.203
31518WAT     H294797   5.127   0.596   8.135
31519WAT      O94798   3.391   3.139   8.935
31519WAT     H194799   3.386   3.177   8.843
31519WAT     H294800   3.486   3.119   8.958
31520WAT      O94801   2.925   5.788   6.282
31520WAT     H194802   2.920   5.709   6.221
31520WAT     H294803   2.866   5.860   6.248
31521WAT      O94804   1.091   8.385   3.741
31521WAT     H194805   1.080   8.485   3.746
31521WAT     H294806   1.068   8.353   3.650
31522WAT      O94807   0.156   0.842   1.958
31522WAT     H194808   0.138   0.746   1.979
31522WAT     H294809   0.155   0.895   2.043
31523WAT      O94810   3.941   4.271   9.578
31523WAT     H194811   3.851   4.257   9.537
31523WAT     H294812   4.011   4.234   9.517
31524WAT      O94813   0.258   9.064   2.929
31524WAT     H194814   0.343   9.116   2.919
31524WAT     H294815   0.185   9.125   2.960
31525WAT      O94816   1.544   8.145   5.486
31525WAT     H194817   1.610   8.125   5.413
31525WAT     H294818   1.563   8.086   5.565
31526WAT      O94819   6.756   3.304   2.359
31526WAT     H194820   6.786   3.365   2.432
31526WAT     H294821   6.683   3.245   2.393
31527WAT      O94822   6.035   4.808   6.204
31527WAT     H194823   6.059   4.903   6.223
31527WAT     H294824   6.089   4.748   6.263
31528WAT      O94825   8.105   1.124   2.686
31528WAT     H194826   8.100   1.067   2.768
31528WAT     H294827   8.200   1.132   2.656
31529WAT      O94828   9.350   5.253   1.226
31529WAT     H194829   9.326   5.336   1.277
31529WAT     H294830   9.348   5.174   1.288
31530WAT      O94831   2.979   0.492   3.798
31530WAT     H194832   2.955   0.583   3.764
31530WAT     H294833   2.969   0.491   3.898
31531WAT      O94834   8.776   3.118   3.556
31531WAT     H194835   8.825   3.031   3.550
31531WAT     H294836   8.840   3.190   3.584
31532WAT      O94837   9.359   4.004   1.902
31532WAT     H194838   9.425   3.993   1.975
31532WAT     H294839   9.405   4.000   1.813
31533WAT      O94840   7.946   7.922   7.165
31533WAT     H194841   7.883   7.999   7.180
31533WAT     H294842   7.912   7.866   7.090
31534WAT      O94843   4.102   9.736   1.858
31534WAT     H194844   4.010   9.759   1.892
31534WAT     H294845   4.141   9.816   1.812
31535WAT      O94846   6.470   9.606   9.716
31535WAT     H194847   6.552   9.618   9.660
31535WAT     H294848   6.458   9.509   9.736
31536WAT      O94849   0.146   7.143   4.647
31536WAT     H194850   0.088   7.134   4.728
31536WAT     H294851   0.096   7.113   4.566
31537WAT      O94852   6.538   4.570   3.995
31537WAT     H194853   6.574   4.477   3.994
31537WAT     H294854   6.504   4.593   3.903
31538WAT      O94855   8.652   3.849   1.434
31538WAT     H194856   8.625   3.917   1.502
31538WAT     H294857   8.574   3.826   1.376
31539WAT      O94858   6.368   7.826   7.951
31539WAT     H194859   6.382   7.815   8.049
31539WAT     H294860   6.283   7.876   7.935
31540WAT      O94861   8.283   1.126   6.324
31540WAT     H194862   8.247   1.041   6.285
31540WAT     H294863   8.315   1.109   6.418
31541WAT      O94864   9.359   4.610   5.869
31541WAT     H194865   9.305   4.694   5.855
31541WAT     H294866   9.420   4.596   5.792
31542WAT      O94867   9.566   2.355   6.365
31542WAT     H194868   9.541   2.277   6.422
31542WAT     H294869   9.647   2.400   6.402
31543WAT      O94870   3.327   2.850   8.049
31543WAT     H194871   3.382   2.934   8.045
31543WAT     H294872   3.330   2.803   7.961
31544WAT      O94873   5.651   9.083   5.366
31544WAT     H194874   5.662   9.068   5.268
31544WAT     H294875   5.735   9.121   5.404
31545WAT      O94876   3.682   5.402   9.407
31545WAT     H194877   3.590   5.419   9.442
31545WAT     H294878   3.688   5.310   9.370
31546WAT      O94879   7.940   8.152   6.086
31546WAT     H194880   7.965   8.106   6.000
31546WAT     H294881   7.894   8.238   6.067
31547WAT      O94882   0.191   2.721   2.128
31547WAT     H194883   0.226   2.814   2.115
31547WAT     H294884   0.114   2.705   2.067
31548WAT      O94885   7.457   0.438   3.349
31548WAT     H194886   7.438   0.341   3.360
31548WAT     H294887   7.530   0.451   3.282
31549WAT      O94888   2.840   9.487   8.992
31549WAT     H194889   2.886   9.574   9.005
31549WAT     H294890   2.741   9.501   8.992
31550WAT      O94891   9.546   5.480   2.122
31550WAT     H194892   9.461   5.523   2.153
31550WAT     H294893   9.611   5.478   2.199
31551WAT      O94894   3.546   0.481   4.418
31551WAT     H194895   3.585   0.456   4.506
31551WAT     H294896   3.486   0.560   4.429
31552WAT      O94897   6.122   5.360   2.034
31552WAT     H194898   6.151   5.344   2.128
31552WAT     H294899   6.117   5.459   2.017
31553WAT      O94900   4.118   2.702   8.049
31553WAT     H194901   4.062   2.680   7.969
31553WAT     H294902   4.066   2.758   8.112
31554WAT      O94903   0.417   6.286   2.355
31554WAT     H194904   0.422   6.309   2.452
31554WAT     H294905   0.450   6.193   2.341
31555WAT      O94906   3.757   5.349   4.325
31555WAT     H194907   3.830   5.413   4.301
31555WAT     H294908   3.672   5.399   4.339
31556WAT      O94909   3.381   2.978   2.013
31556WAT     H194910   3.410   2.975   1.918
31556WAT     H294911   3.453   2.940   2.071
31557WAT      O94912   1.891   2.805   8.704
31557WAT     H194913   1.875   2.895   8.743
31557WAT     H294914   1.977   2.768   8.739
31558WAT      O94915   8.110   9.518   8.301
31558WAT     H194916   8.077   9.508   8.208
31558WAT     H294917   8.158   9.434   8.328
31559WAT      O94918   5.752   0.164   8.197
31559WAT     H194919   5.851   0.175   8.206
31559WAT     H294920   5.732   0.110   8.114
31560WAT      O94921   8.912   4.111   6.243
31560WAT     H194922   8.897   4.014   6.226
31560WAT     H294923   8.989   4.143   6.189
31561WAT      O94924   9.012   3.888   8.831
31561WAT     H194925   8.956   3.942   8.768
31561WAT     H294926   9.051   3.948   8.901
31562WAT      O94927   4.591   3.021   5.543
31562WAT     H194928   4.629   3.101   5.588
31562WAT     H294929   4.559   3.046   5.451
31563WAT      O94930   1.222   6.931   2.983
31563WAT     H194931   1.238   7.013   3.039
31563WAT     H294932   1.137   6.942   2.933
31564WAT      O94933   0.461   7.459   1.552
31564WAT     H194934   0.528   7.386   1.565
31564WAT     H294935   0.508   7.548   1.549
31565WAT      O94936   6.283   9.297   2.002
31565WAT     H194937   6.367   9.270   2.049
31565WAT     H294938   6.284   9.259   1.909
31566WAT      O94939   1.536   8.701   9.630
31566WAT     H194940   1.498   8.785   9.591
31566WAT     H294941   1.514   8.697   9.727
31567WAT      O94942   1.071   5.755   7.414
31567WAT     H194943   1.150   5.814   7.395
31567WAT     H294944   0.989   5.796   7.372
31568WAT      O94945   2.496   1.182   5.898
31568WAT     H194946   2.481   1.099   5.951
31568WAT     H294947   2.573   1.169   5.835
31569WAT      O94948   8.021   6.463   7.730
31569WAT     H194949   8.018   6.413   7.644
31569WAT     H294950   7.987   6.405   7.804
31570WAT      O94951   3.516   7.968   7.520
31570WAT     H194952   3.610   7.997   7.538
31570WAT     H294953   3.458   7.992   7.597
31571WAT      O94954   3.379   8.548   7.136
31571WAT     H194955   3.286   8.581   7.153
31571WAT     H294956   3.387   8.453   7.168
31572WAT      O94957   7.848   0.424   1.152
31572WAT     H194958   7.789   0.489   1.105
31572WAT     H294959   7.915   0.473   1.207
31573WAT      O94960   3.454   3.624   6.592
31573WAT     H194961   3.423   3.581   6.677
31573WAT     H294962   3.484   3.553   6.528
31574WAT      O94963   1.397   9.156   8.133
31574WAT     H194964   1.428   9.126   8.043
31574WAT     H294965   1.444   9.241   8.158
31575WAT      O94966   8.909   9.448   4.226
31575WAT     H194967   8.981   9.383   4.253
31575WAT     H294968   8.822   9.398   4.215
31576WAT      O94969   4.890   9.385   7.598
31576WAT     H194970   4.834   9.440   7.661
31576WAT     H294971   4.868   9.289   7.610
31577WAT      O94972   7.052   1.237   5.914
31577WAT     H194973   7.133   1.200   5.959
31577WAT     H294974   7.000   1.292   5.980
31578WAT      O94975   7.536   1.891   4.395
31578WAT     H194976   7.621   1.927   4.434
31578WAT     H294977   7.477   1.967   4.368
31579WAT      O94978   3.624   7.105   8.422
31579WAT     H194979   3.592   7.010   8.416
31579WAT     H294980   3.565   7.163   8.366
31580WAT      O94981   3.305   9.280   5.704
31580WAT     H194982   3.304   9.379   5.720
31580WAT     H294983   3.258   9.260   5.618
31581WAT      O94984   7.323   7.576   3.231
31581WAT     H194985   7.408   7.628   3.218
31581WAT     H294986   7.310   7.514   3.154
31582WAT      O94987   2.161   5.548   9.496
31582WAT     H194988   2.088   5.513   9.437
31582WAT     H294989   2.171   5.647   9.481
31583WAT      O94990   4.910   2.702   1.901
31583WAT     H194991   4.887   2.741   1.990
31583WAT     H294992   4.904   2.773   1.830
31584WAT      O94993   4.475   9.424   4.170
31584WAT     H194994   4.399   9.359   4.167
31584WAT     H294995   4.524   9.421   4.082
31585WAT      O94996   1.813   9.493   2.658
31585WAT     H194997   1.783   9.532   2.571
31585WAT     H294998   1.881   9.422   2.641
31586WAT      O94999   4.069   4.207   7.627
31586WAT     H195000   4.011   4.134   7.661
31586WAT     H295001   4.157   4.168   7.599
31587WAT      O95002   4.349   4.064   7.805
31587WAT     H195003   4.447   4.071   7.792
31587WAT     H295004   4.303   4.062   7.716
31588WAT      O95005   8.461   4.671   3.705
31588WAT     H195006   8.425   4.708   3.619
31588WAT     H295007   8.465   4.571   3.699
31589WAT      O95008   0.794   9.655   0.861
31589WAT     H195009   0.718   9.707   0.820
31589WAT     H295010   0.788   9.662   0.961
31590WAT      O95011   4.433   6.168   8.607
31590WAT     H195012   4.342   6.204   8.589
31590WAT     H295013   4.432   6.112   8.689
31591WAT      O95014   7.614   5.790   9.350
31591WAT     H195015   7.632   5.838   9.437
31591WAT     H295016   7.593   5.694   9.369
31592WAT      O95017   1.568   0.265   0.618
31592WAT     H195018   1.649   0.309   0.578
31592WAT     H295019   1.529   0.326   0.688
31593WAT      O95020   5.434   5.783   8.626
31593WAT     H195021   5.385   5.859   8.583
31593WAT     H295022   5.372   5.732   8.686
31594WAT      O95023   4.983   3.590   6.672
31594WAT     H195024   4.935   3.571   6.758
31594WAT     H295025   4.932   3.660   6.621
31595WAT      O95026   2.212   3.098   1.906
31595WAT     H195027   2.119   3.098   1.943
31595WAT     H295028   2.254   3.187   1.920
31596WAT      O95029   9.254   2.903   4.219
31596WAT     H195030   9.230   2.847   4.299
31596WAT     H295031   9.170   2.944   4.182
31597WAT      O95032   2.862   1.307   0.435
31597WAT     H195033   2.826   1.299   0.342
31597WAT     H295034   2.905   1.397   0.447
31598WAT      O95035   5.409   5.888   7.400
31598WAT     H195036   5.467   5.813   7.368
31598WAT     H295037   5.328   5.896   7.342
31599WAT      O95038   3.329   2.188   1.968
31599WAT     H195039   3.328   2.119   1.896
31599WAT     H295040   3.410   2.175   2.026
31600WAT      O95041   6.826   9.527   4.459
31600WAT     H195042   6.891   9.475   4.515
31600WAT     H295043   6.844   9.625   4.470
31601WAT      O95044   3.476   6.120   6.776
31601WAT     H195045   3.539   6.136   6.700
31601WAT     H295046   3.383   6.145   6.748
31602WAT      O95047   0.813   6.784   9.699
31602WAT     H195048   0.899   6.835   9.692
31602WAT     H295049   0.736   6.846   9.683
31603WAT      O95050   6.556   9.177   0.709
31603WAT     H195051   6.569   9.110   0.782
31603WAT     H295052   6.632   9.243   0.710
31604WAT      O95053   5.558   4.856   0.499
31604WAT     H195054   5.480   4.826   0.443
31604WAT     H295055   5.612   4.777   0.526
31605WAT      O95056   4.007   3.104   5.357
31605WAT     H195057   4.089   3.049   5.377
31605WAT     H295058   3.950   3.109   5.439
31606WAT      O95059   9.786   1.592   3.844
31606WAT     H195060   9.813   1.496   3.839
31606WAT     H295061   9.749   1.612   3.935
31607WAT      O95062   4.316   4.162   3.171
31607WAT     H195063   4.291   4.075   3.128
31607WAT     H295064   4.267   4.237   3.127
31608WAT      O95065   8.129   1.217   7.990
31608WAT     H195066   8.058   1.281   8.019
31608WAT     H295067   8.161   1.164   8.068
31609WAT      O95068   1.246   2.844   7.510
31609WAT     H195069   1.184   2.908   7.555
31609WAT     H295070   1.197   2.761   7.486
31610WAT      O95071   5.403   3.029   3.436
31610WAT     H195072   5.444   3.082   3.510
31610WAT     H295073   5.346   3.088   3.380
31611WAT      O95074   6.503   5.374   7.820
31611WAT     H195075   6.519   5.415   7.910
31611WAT     H295076   6.430   5.424   7.773
31612WAT      O95077   4.699   8.918   2.699
31612WAT     H195078   4.667   9.012   2.708
31612WAT     H295079   4.641   8.858   2.755
31613WAT      O95080   8.496   5.790   3.422
31613WAT     H195081   8.411   5.804   3.471
31613WAT     H295082   8.504   5.694   3.395
31614WAT      O95083   7.001   8.190   9.499
31614WAT     H195084   6.915   8.208   9.547
31614WAT     H295085   6.988   8.115   9.434
31615WAT      O95086   5.077   5.981   1.968
31615WAT     H195087   5.106   5.930   1.887
31615WAT     H295088   5.149   5.976   2.038
31616WAT      O95089   7.362   6.480   4.989
31616WAT     H195090   7.287   6.524   5.039
31616WAT     H295091   7.344   6.488   4.891
31617WAT      O95092   5.655   4.557   5.412
31617WAT     H195093   5.694   4.638   5.457
31617WAT     H295094   5.664   4.566   5.313
31618WAT      O95095   9.135   3.518   2.772
31618WAT     H195096   9.044   3.538   2.810
31618WAT     H295097   9.173   3.439   2.819
31619WAT      O95098   0.081   9.521   3.476
31619WAT     H195099   0.048   9.479   3.391
31619WAT     H295100   0.142   9.597   3.454
31620WAT      O95101   6.370   2.617   4.995
31620WAT     H195102   6.445   2.659   5.046
31620WAT     H295103   6.329   2.686   4.934
31621WAT      O95104   1.420   1.493   0.247
31621WAT     H195105   1.495   1.490   0.313
31621WAT     H295106   1.335   1.461   0.290
31622WAT      O95107   8.073   2.283   4.754
31622WAT     H195108   8.005   2.253   4.821
31622WAT     H295109   8.114   2.203   4.710
31623WAT      O95110   4.208   8.919   4.246
31623WAT     H195111   4.113   8.892   4.231
31623WAT     H295112   4.266   8.838   4.245
31624WAT      O95113   1.113   1.275   4.513
31624WAT     H195114   1.064   1.215   4.577
31624WAT     H295115   1.149   1.220   4.437
31625WAT      O95116   7.244   8.586   4.122
31625WAT     H195117   7.186   8.525   4.175
31625WAT     H295118   7.190   8.663   4.088
31626WAT      O95119   3.673   2.197   1.861
31626WAT     H195120   3.641   2.244   1.944
31626WAT     H295121   3.669   2.260   1.784
31627WAT      O95122   8.303   4.578   1.323
31627WAT     H195123   8.301   4.515   1.400
31627WAT     H295124   8.253   4.661   1.346
31628WAT      O95125   7.514   1.031   4.253
31628WAT     H195126   7.477   1.068   4.168
31628WAT     H295127   7.503   1.098   4.326
31629WAT      O95128   6.223   5.274   9.480
31629WAT     H195129   6.228   5.288   9.579
31629WAT     H295130   6.181   5.353   9.437
31630WAT      O95131   1.874   3.016   1.282
31630WAT     H195132   1.921   2.928   1.269
31630WAT     H295133   1.797   3.022   1.219
31631WAT      O95134   5.359   0.505   6.788
31631WAT     H195135   5.262   0.524   6.770
31631WAT     H295136   5.401   0.586   6.828
31632WAT      O95137   3.875   0.287   4.601
31632WAT     H195138   3.847   0.199   4.562
31632WAT     H295139   3.799   0.327   4.651
31633WAT      O95140   1.577   1.706   5.565
31633WAT     H195141   1.529   1.769   5.626
31633WAT     H295142   1.515   1.675   5.493
31634WAT      O95143   4.759   3.618   9.489
31634WAT     H195144   4.670   3.605   9.446
31634WAT     H295145   4.777   3.716   9.498
31635WAT      O95146   0.930   7.344   0.769
31635WAT     H195147   0.885   7.429   0.795
31635WAT     H295148   0.883   7.304   0.690
31636WAT      O95149   9.121   3.028   1.847
31636WAT     H195150   9.171   3.015   1.932
31636WAT     H295151   9.038   3.081   1.864
31637WAT      O95152   7.427   8.602   8.550
31637WAT     H195153   7.507   8.542   8.547
31637WAT     H295154   7.350   8.554   8.592
31638WAT      O95155   5.044   3.578   3.600
31638WAT     H195156   5.056   3.479   3.594
31638WAT     H295157   5.121   3.618   3.650
31639WAT      O95158   4.587   0.510   0.280
31639WAT     H195159   4.678   0.468   0.291
31639WAT     H295160   4.517   0.445   0.310
31640WAT      O95161   5.181   2.319   9.082
31640WAT     H195162   5.136   2.230   9.074
31640WAT     H295163   5.202   2.337   9.179
31641WAT      O95164   3.631   3.087   6.220
31641WAT     H195165   3.669   3.144   6.148
31641WAT     H295166   3.702   3.024   6.254
31642WAT      O95167   0.445   7.241   4.353
31642WAT     H195168   0.405   7.256   4.443
31642WAT     H295169   0.464   7.329   4.309
31643WAT      O95170   9.750   2.365   5.223
31643WAT     H195171   9.680   2.369   5.294
31643WAT     H295172   9.719   2.306   5.149
31644WAT      O95173   3.856   7.296   5.775
31644WAT     H195174   3.828   7.388   5.801
31644WAT     H295175   3.951   7.296   5.746
31645WAT      O95176   4.790   1.535   8.983
31645WAT     H195177   4.726   1.559   9.056
31645WAT     H295178   4.857   1.608   8.972
31646WAT      O95179   9.243   2.213   9.117
31646WAT     H195180   9.173   2.279   9.143
31646WAT     H295181   9.294   2.185   9.199
31647WAT      O95182   3.493   1.624   9.559
31647WAT     H195183   3.563   1.577   9.612
31647WAT     H295184   3.460   1.703   9.611
31648WAT      O95185   9.275   8.522   7.016
31648WAT     H195186   9.199   8.582   7.039
31648WAT     H295187   9.244   8.427   7.014
31649WAT      O95188   4.640   2.302   5.295
31649WAT     H195189   4.702   2.361   5.347
31649WAT     H295190   4.651   2.321   5.197
31650WAT      O95191   4.069   5.242   8.513
31650WAT     H195192   4.158   5.209   8.544
31650WAT     H295193   4.022   5.287   8.590
31651WAT      O95194   6.153   7.455   7.259
31651WAT     H195195   6.055   7.459   7.276
31651WAT     H295196   6.197   7.404   7.333
31652WAT      O95197   1.360   6.592   5.852
31652WAT     H195198   1.366   6.683   5.891
31652WAT     H295199   1.300   6.535   5.909
31653WAT      O95200   1.158   5.211   3.550
31653WAT     H195201   1.215   5.183   3.473
31653WAT     H295202   1.212   5.265   3.615
31654WAT      O95203   8.920   6.808   6.180
31654WAT     H195204   8.971   6.772   6.102
31654WAT     H295205   8.846   6.744   6.204
31655WAT      O95206   0.344   0.807   2.749
31655WAT     H195207   0.259   0.832   2.703
31655WAT     H295208   0.399   0.889   2.763
31656WAT      O95209   4.721   8.840   0.992
31656WAT     H195210   4.622   8.845   0.980
31656WAT     H295211   4.745   8.751   1.033
31657WAT      O95212   2.460   3.447   6.013
31657WAT     H195213   2.396   3.383   5.970
31657WAT     H295214   2.543   3.398   6.039
31658WAT      O95215   5.110   3.740   8.888
31658WAT     H195216   5.155   3.652   8.903
31658WAT     H295217   5.173   3.814   8.911
31659WAT      O95218   7.373   0.668   8.184
31659WAT     H195219   7.398   0.605   8.111
31659WAT     H295220   7.456   0.702   8.229
31660WAT      O95221   5.764   6.445   6.917
31660WAT     H195222   5.806   6.354   6.924
31660WAT     H295223   5.691   6.453   6.985
31661WAT      O95224   7.936   8.225   1.990
31661WAT     H195225   7.902   8.133   2.009
31661WAT     H295226   8.032   8.219   1.962
31662WAT      O95227   1.556   6.473   6.135
31662WAT     H195228   1.480   6.474   6.200
31662WAT     H295229   1.585   6.379   6.119
31663WAT      O95230   5.034   5.666   7.432
31663WAT     H195231   4.959   5.731   7.427
31663WAT     H295232   5.077   5.672   7.522
31664WAT      O95233   0.335   8.377   8.594
31664WAT     H195234   0.343   8.281   8.565
31664WAT     H295235   0.280   8.382   8.678
31665WAT      O95236   7.288   7.131   7.996
31665WAT     H195237   7.261   7.038   7.969
31665WAT     H295238   7.236   7.159   8.076
31666WAT      O95239   6.213   5.873   6.198
31666WAT     H195240   6.113   5.869   6.207
31666WAT     H295241   6.247   5.782   6.173
31667WAT      O95242   5.893   2.577   2.748
31667WAT     H195243   5.939   2.570   2.659
31667WAT     H295244   5.796   2.594   2.734
31668WAT      O95245   6.791   8.488   3.155
31668WAT     H195246   6.774   8.453   3.063
31668WAT     H295247   6.716   8.550   3.181
31669WAT      O95248   8.097   8.512   9.119
31669WAT     H195249   8.138   8.458   9.046
31669WAT     H295250   8.150   8.501   9.203
31670WAT      O95251   7.107   7.853   8.536
31670WAT     H195252   7.089   7.799   8.618
31670WAT     H295253   7.181   7.918   8.555
31671WAT      O95254   2.691   4.026   0.080
31671WAT     H195255   2.772   4.081   0.100
31671WAT     H295256   2.626   4.036   0.155
31672WAT      O95257   5.220   2.837   1.631
31672WAT     H195258   5.124   2.813   1.618
31672WAT     H295259   5.278   2.758   1.611
31673WAT      O95260   5.895   1.721   2.810
31673WAT     H195261   5.803   1.707   2.773
31673WAT     H295262   5.941   1.793   2.759
31674WAT      O95263   4.676   1.383   4.608
31674WAT     H195264   4.613   1.460   4.618
31674WAT     H295265   4.724   1.368   4.694
31675WAT      O95266   1.128   0.441   7.600
31675WAT     H195267   1.143   0.419   7.696
31675WAT     H295268   1.187   0.518   7.574
31676WAT      O95269   0.479   3.852   9.488
31676WAT     H195270   0.407   3.868   9.421
31676WAT     H295271   0.531   3.936   9.503
31677WAT      O95272   0.127   4.203   8.129
31677WAT     H195273   0.110   4.244   8.219
31677WAT     H295274   0.166   4.272   8.068
31678WAT      O95275   1.127   0.239   5.763
31678WAT     H195276   1.226   0.222   5.766
31678WAT     H295277   1.103   0.307   5.833
31679WAT      O95278   3.161   4.699   9.371
31679WAT     H195279   3.231   4.762   9.338
31679WAT     H295280   3.185   4.667   9.463
31680WAT      O95281   5.881   4.826   7.527
31680WAT     H195282   5.912   4.900   7.467
31680WAT     H295283   5.945   4.749   7.520
31681WAT      O95284   3.171   8.370   3.438
31681WAT     H195285   3.250   8.403   3.489
31681WAT     H295286   3.171   8.411   3.347
31682WAT      O95287   7.859   3.272   4.628
31682WAT     H195288   7.825   3.298   4.537
31682WAT     H295289   7.948   3.229   4.618
31683WAT      O95290   1.663   7.873   8.327
31683WAT     H195291   1.587   7.839   8.383
31683WAT     H295292   1.675   7.815   8.247
31684WAT      O95293   7.139   5.443   0.797
31684WAT     H195294   7.120   5.415   0.703
31684WAT     H295295   7.225   5.493   0.800
31685WAT      O95296   0.975   0.550   0.032
31685WAT     H195297   0.922   0.607   0.096
31685WAT     H295298   0.972   0.455   0.062
31686WAT      O95299   1.887   3.146   2.840
31686WAT     H195300   1.834   3.151   2.755
31686WAT     H295301   1.972   3.096   2.823
31687WAT      O95302   2.188   1.267   4.054
31687WAT     H195303   2.211   1.359   4.020
31687WAT     H295304   2.229   1.254   4.145
31688WAT      O95305   7.171   7.318   5.864
31688WAT     H195306   7.091   7.339   5.808
31688WAT     H295307   7.219   7.402   5.887
31689WAT      O95308   6.582   6.540   0.507
31689WAT     H195309   6.597   6.632   0.469
31689WAT     H295310   6.595   6.543   0.606
31690WAT      O95311   1.732   3.240   9.387
31690WAT     H195312   1.640   3.231   9.351
31690WAT     H295313   1.728   3.281   9.479
31691WAT      O95314   5.490   3.628   7.434
31691WAT     H195315   5.515   3.671   7.348
31691WAT     H295316   5.423   3.685   7.482
31692WAT      O95317   0.372   4.193   1.761
31692WAT     H195318   0.444   4.217   1.826
31692WAT     H295319   0.311   4.272   1.749
31693WAT      O95320   0.928   1.955   4.419
31693WAT     H195321   0.855   1.941   4.353
31693WAT     H295322   0.974   1.869   4.438
31694WAT      O95323   2.224   4.309   2.558
31694WAT     H195324   2.211   4.224   2.609
31694WAT     H295325   2.312   4.306   2.512
31695WAT      O95326   6.804   3.527   4.020
31695WAT     H195327   6.831   3.506   3.926
31695WAT     H295328   6.751   3.451   4.057
31696WAT      O95329   4.243   8.051   4.040
31696WAT     H195330   4.207   7.958   4.030
31696WAT     H295331   4.170   8.111   4.072
31697WAT      O95332   9.619   0.054   3.009
31697WAT     H195333   9.616  -0.046   3.000
31697WAT     H295334   9.650   0.093   2.922
31698WAT      O95335   5.568   5.581   0.015
31698WAT     H195336   5.499   5.590  -0.057
31698WAT     H295337   5.523   5.577   0.104
31699WAT      O95338   9.235   1.305   3.700
31699WAT     H195339   9.234   1.397   3.660
31699WAT     H295340   9.205   1.239   3.631
31700WAT      O95341   5.849   6.228   9.638
31700WAT     H195342   5.802   6.310   9.672
31700WAT     H295343   5.939   6.221   9.680
31701WAT      O95344   6.196   2.654   7.314
31701WAT     H195345   6.291   2.661   7.283
31701WAT     H295346   6.179   2.723   7.384
31702WAT      O95347   1.780   7.314   5.739
31702WAT     H195348   1.839   7.355   5.670
31702WAT     H295349   1.810   7.344   5.830
31703WAT      O95350   1.097   1.164   0.872
31703WAT     H195351   1.101   1.238   0.805
31703WAT     H295352   1.012   1.113   0.861
31704WAT      O95353   2.188   2.063   9.456
31704WAT     H195354   2.244   2.121   9.397
31704WAT     H295355   2.092   2.084   9.443
31705WAT      O95356   5.441   3.250   1.836
31705WAT     H195357   5.373   3.177   1.831
31705WAT     H295358   5.500   3.236   1.915
31706WAT      O95359   7.708   3.130   8.430
31706WAT     H195360   7.794   3.180   8.438
31706WAT     H295361   7.632   3.194   8.434
31707WAT      O95362   9.438   4.619   2.599
31707WAT     H195363   9.364   4.619   2.531
31707WAT     H295364   9.480   4.529   2.603
31708WAT      O95365   1.482   2.852   2.760
31708WAT     H195366   1.410   2.805   2.709
31708WAT     H295367   1.561   2.865   2.700
31709WAT      O95368   0.498   0.440   9.213
31709WAT     H195369   0.524   0.358   9.162
31709WAT     H295370   0.430   0.416   9.283
31710WAT      O95371   6.115   2.130   4.135
31710WAT     H195372   6.175   2.209   4.123
31710WAT     H295373   6.164   2.056   4.181
31711WAT      O95374   1.802   5.086   8.062
31711WAT     H195375   1.820   4.996   8.100
31711WAT     H295376   1.877   5.148   8.084
31712WAT      O95377   4.059   8.809   3.014
31712WAT     H195378   3.989   8.741   3.037
31712WAT     H295379   4.091   8.853   3.097
31713WAT      O95380   1.634   5.543   7.248
31713WAT     H195381   1.584   5.464   7.284
31713WAT     H295382   1.662   5.602   7.323
31714WAT      O95383   5.760   9.514   8.848
31714WAT     H195384   5.751   9.592   8.910
31714WAT     H295385   5.810   9.441   8.893
31715WAT      O95386   7.733   2.349   5.914
31715WAT     H195387   7.745   2.272   5.977
31715WAT     H295388   7.735   2.316   5.820
31716WAT      O95389   0.940   4.681   6.922
31716WAT     H195390   0.883   4.731   6.857
31716WAT     H295391   1.036   4.694   6.899
31717WAT      O95392   0.181   2.034   6.209
31717WAT     H195393   0.101   2.021   6.268
31717WAT     H295394   0.235   2.112   6.243
31718WAT      O95395   1.992   5.464   6.799
31718WAT     H195396   1.980   5.546   6.854
31718WAT     H295397   1.969   5.483   6.704
31719WAT      O95398   1.643   5.507   4.011
31719WAT     H195399   1.714   5.471   3.949
31719WAT     H295400   1.651   5.606   4.016
31720WAT      O95401   2.277   0.086   5.070
31720WAT     H195402   2.314   0.047   5.155
31720WAT     H295403   2.349   0.136   5.022
31721WAT      O95404   8.449   9.539   2.307
31721WAT     H195405   8.489   9.485   2.233
31721WAT     H295406   8.379   9.484   2.354
31722WAT      O95407   0.081   6.147   4.609
31722WAT     H195408   0.030   6.228   4.637
31722WAT     H295409   0.163   6.137   4.666
31723WAT      O95410   6.362   9.347   6.259
31723WAT     H195411   6.458   9.343   6.285
31723WAT     H295412   6.336   9.261   6.215
31724WAT      O95413   4.541   5.925   3.072
31724WAT     H195414   4.558   5.900   2.977
31724WAT     H295415   4.477   6.001   3.076
31725WAT      O95416   8.799   4.471   4.074
31725WAT     H195417   8.792   4.397   4.140
31725WAT     H295418   8.734   4.544   4.098
31726WAT      O95419   3.876   1.542   6.444
31726WAT     H195420   3.781   1.525   6.472
31726WAT     H295421   3.916   1.456   6.412
31727WAT      O95422   6.643   0.757   8.796
31727WAT     H195423   6.727   0.752   8.850
31727WAT     H295424   6.574   0.808   8.848
31728WAT      O95425   4.519   1.037   9.881
31728WAT     H195426   4.480   1.113   9.828
31728WAT     H295427   4.565   1.073   9.962
31729WAT      O95428   9.736   4.803   0.187
31729WAT     H195429   9.682   4.809   0.271
31729WAT     H295430   9.739   4.707   0.157
31730WAT      O95431   9.725   5.663   7.618
31730WAT     H195432   9.673   5.744   7.592
31730WAT     H295433   9.807   5.656   7.561
31731WAT      O95434   8.958   3.648   8.721
31731WAT     H195435   8.923   3.662   8.628
31731WAT     H295436   8.986   3.736   8.759
31732WAT      O95437   3.692   0.619   2.394
31732WAT     H195438   3.696   0.675   2.311
31732WAT     H295439   3.696   0.678   2.475
31733WAT      O95440   5.023   8.845   3.947
31733WAT     H195441   5.040   8.753   3.911
31733WAT     H295442   5.056   8.913   3.881
31734WAT      O95443   4.877   6.636   8.371
31734WAT     H195444   4.952   6.697   8.399
31734WAT     H295445   4.813   6.686   8.314
31735WAT      O95446   1.356   3.471   7.563
31735WAT     H195447   1.285   3.405   7.587
31735WAT     H295448   1.413   3.489   7.643
31736WAT      O95449   6.763   0.499   6.021
31736WAT     H195450   6.838   0.513   5.956
31736WAT     H295451   6.801   0.487   6.113
31737WAT      O95452   8.112   5.088   8.486
31737WAT     H195453   8.142   4.993   8.477
31737WAT     H295454   8.068   5.117   8.400
31738WAT      O95455   9.785   4.902   0.901
31738WAT     H195456   9.876   4.930   0.931
31738WAT     H295457   9.786   4.886   0.802
31739WAT      O95458   7.129   3.142   7.063
31739WAT     H195459   7.189   3.082   7.116
31739WAT     H295460   7.141   3.236   7.092
31740WAT      O95461   3.010   9.186   9.351
31740WAT     H195462   2.956   9.106   9.325
31740WAT     H295463   3.107   9.163   9.348
31741WAT      O95464   3.205   0.711   8.039
31741WAT     H195465   3.129   0.646   8.048
31741WAT     H295466   3.235   0.739   8.130
31742WAT      O95467   2.170   3.285   4.433
31742WAT     H195468   2.234   3.264   4.507
31742WAT     H295469   2.212   3.352   4.371
31743WAT      O95470   3.314   7.014   8.577
31743WAT     H195471   3.340   6.967   8.492
31743WAT     H295472   3.317   7.113   8.562
31744WAT      O95473   9.499   3.855   4.450
31744WAT     H195474   9.510   3.822   4.544
31744WAT     H295475   9.575   3.822   4.394
31745WAT      O95476   4.887   4.636   3.798
31745WAT     H195477   4.861   4.701   3.727
31745WAT     H295478   4.818   4.563   3.803
31746WAT      O95479   8.741   7.523   4.242
31746WAT     H195480   8.680   7.468   4.299
31746WAT     H295481   8.741   7.487   4.149
31747WAT      O95482   9.119   1.760   2.449
31747WAT     H195483   9.138   1.689   2.518
31747WAT     H295484   9.027   1.747   2.413
31748WAT      O95485   5.867   3.776   7.485
31748WAT     H195486   5.878   3.788   7.387
31748WAT     H295487   5.769   3.773   7.507
31749WAT      O95488   9.208   0.497   6.613
31749WAT     H195489   9.177   0.473   6.705
31749WAT     H295490   9.278   0.568   6.619
31750WAT      O95491   4.219   5.314   2.115
31750WAT     H195492   4.263   5.264   2.190
31750WAT     H295493   4.150   5.376   2.151
31751WAT      O95494   9.511   9.050   6.164
31751WAT     H195495   9.537   8.970   6.110
31751WAT     H295496   9.581   9.121   6.154
31752WAT      O95497   8.740   5.733   1.741
31752WAT     H195498   8.751   5.827   1.772
31752WAT     H295499   8.830   5.692   1.727
31753WAT      O95500   6.097   9.760   0.273
31753WAT     H195501   6.038   9.805   0.340
31753WAT     H295502   6.167   9.824   0.242
31754WAT      O95503   5.874   8.140   6.643
31754WAT     H195504   5.892   8.141   6.545
31754WAT     H295505   5.957   8.164   6.693
31755WAT      O95506   6.692   2.933   1.483
31755WAT     H195507   6.674   2.962   1.577
31755WAT     H295508   6.718   3.012   1.428
31756WAT      O95509   1.587   3.587   0.530
31756WAT     H195510   1.501   3.625   0.562
31756WAT     H295511   1.611   3.628   0.442
31757WAT      O95512   1.898   9.113   8.658
31757WAT     H195513   1.824   9.177   8.639
31757WAT     H295514   1.883   9.069   8.747
31758WAT      O95515   0.376   8.634   4.816
31758WAT     H195516   0.431   8.588   4.746
31758WAT     H295517   0.282   8.644   4.784
31759WAT      O95518   4.571   5.413   9.781
31759WAT     H195519   4.636   5.392   9.854
31759WAT     H295520   4.608   5.379   9.694
31760WAT      O95521   7.512   2.966   9.790
31760WAT     H195522   7.479   2.962   9.695
31760WAT     H295523   7.503   2.876   9.832
31761WAT      O95524   0.497   0.053   6.832
31761WAT     H195525   0.449   0.113   6.767
31761WAT     H295526   0.494  -0.041   6.799
31762WAT      O95527   1.098   4.981   1.371
31762WAT     H195528   1.026   4.924   1.410
31762WAT     H295529   1.185   4.959   1.416
31763WAT      O95530   4.135   5.202   1.859
31763WAT     H195531   4.123   5.294   1.895
31763WAT     H295532   4.233   5.182   1.849
31764WAT      O95533   8.106   0.700   5.275
31764WAT     H195534   8.117   0.797   5.255
31764WAT     H295535   8.058   0.655   5.200
31765WAT      O95536   9.099   5.228   7.614
31765WAT     H195537   9.147   5.287   7.548
31765WAT     H295538   9.038   5.166   7.565
31766WAT      O95539   6.408   8.554   0.643
31766WAT     H195540   6.465   8.572   0.563
31766WAT     H295541   6.456   8.492   0.705
31767WAT      O95542   6.762   6.142   1.319
31767WAT     H195543   6.790   6.157   1.224
31767WAT     H295544   6.719   6.051   1.327
31768WAT      O95545   8.260   1.700   8.359
31768WAT     H195546   8.348   1.674   8.398
31768WAT     H295547   8.200   1.620   8.358
31769WAT      O95548   8.932   2.338   1.516
31769WAT     H195549   8.842   2.352   1.559
31769WAT     H295550   8.991   2.288   1.579
31770WAT      O95551   6.234   0.433   1.369
31770WAT     H195552   6.212   0.409   1.275
31770WAT     H295553   6.249   0.532   1.376
31771WAT      O95554   9.606   3.294   5.605
31771WAT     H195555   9.507   3.298   5.591
31771WAT     H295556   9.625   3.293   5.703
31772WAT      O95557   6.846   2.246   8.368
31772WAT     H195558   6.803   2.180   8.430
31772WAT     H295559   6.935   2.211   8.339
31773WAT      O95560   3.378   4.220   8.422
31773WAT     H195561   3.426   4.302   8.454
31773WAT     H295562   3.285   4.220   8.459
31774WAT      O95563   8.788   1.653   8.155
31774WAT     H195564   8.830   1.609   8.234
31774WAT     H295565   8.856   1.667   8.084
31775WAT      O95566   3.396   9.623   3.189
31775WAT     H195567   3.361   9.717   3.190
31775WAT     H295568   3.384   9.585   3.098
31776WAT      O95569   3.340   5.561   0.112
31776WAT     H195570   3.248   5.528   0.134
31776WAT     H295571   3.344   5.660   0.122
31777WAT      O95572   7.398   9.672   6.019
31777WAT     H195573   7.408   9.615   6.101
31777WAT     H295574   7.340   9.626   5.952
31778WAT      O95575   2.728   4.502   3.676
31778WAT     H195576   2.755   4.599   3.675
31778WAT     H295577   2.807   4.446   3.702
31779WAT      O95578   9.617   9.343   4.763
31779WAT     H195579   9.522   9.319   4.746
31779WAT     H295580   9.630   9.357   4.861
31780WAT      O95581   0.773   6.888   4.895
31780WAT     H195582   0.860   6.927   4.864
31780WAT     H295583   0.789   6.796   4.931
31781WAT      O95584   5.270   7.245   2.771
31781WAT     H195585   5.333   7.174   2.801
31781WAT     H295586   5.185   7.202   2.738
31782WAT      O95587   3.760   7.303   3.062
31782WAT     H195588   3.744   7.384   3.006
31782WAT     H295589   3.731   7.221   3.010
31783WAT      O95590   6.943   6.592   1.171
31783WAT     H195591   6.854   6.631   1.193
31783WAT     H295592   7.015   6.659   1.189
31784WAT      O95593   9.824   7.000   3.832
31784WAT     H195594   9.814   7.079   3.892
31784WAT     H295595   9.897   6.941   3.867
31785WAT      O95596   8.929   0.053   5.612
31785WAT     H195597   8.944   0.140   5.660
31785WAT     H295598   8.832   0.044   5.590
31786WAT      O95599   8.696   3.580   5.914
31786WAT     H195600   8.647   3.667   5.917
31786WAT     H295601   8.633   3.507   5.887
31787WAT      O95602   9.532   5.277   0.811
31787WAT     H195603   9.581   5.364   0.816
31787WAT     H295604   9.549   5.224   0.893
31788WAT      O95605   0.237   2.764   9.303
31788WAT     H195606   0.289   2.678   9.305
31788WAT     H295607   0.144   2.747   9.334
31789WAT      O95608   0.750   8.614   5.449
31789WAT     H195609   0.657   8.580   5.433
31789WAT     H295610   0.751   8.667   5.534
31790WAT      O95611   1.044   1.708   4.195
31790WAT     H195612   0.960   1.654   4.190
31790WAT     H295613   1.086   1.695   4.285
31791WAT      O95614   3.213   6.777   3.246
31791WAT     H195615   3.179   6.866   3.276
31791WAT     H295616   3.303   6.788   3.203
31792WAT      O95617   0.665   1.143   0.613
31792WAT     H195618   0.727   1.067   0.593
31792WAT     H295619   0.707   1.203   0.681
31793WAT      O95620   1.481   4.233   6.467
31793WAT     H195621   1.514   4.327   6.461
31793WAT     H295622   1.433   4.209   6.383
31794WAT      O95623   0.693   7.621   6.683
31794WAT     H195624   0.607   7.587   6.721
31794WAT     H295625   0.755   7.544   6.665
31795WAT      O95626   8.255   4.803   0.850
31795WAT     H195627   8.169   4.810   0.901
31795WAT     H295628   8.262   4.711   0.810
31796WAT      O95629   1.454   6.032   1.200
31796WAT     H195630   1.513   5.980   1.262
31796WAT     H295631   1.360   6.030   1.235
31797WAT      O95632   1.911   8.758   6.048
31797WAT     H195633   1.858   8.690   6.099
31797WAT     H295634   1.893   8.849   6.085
31798WAT      O95635   2.733   0.815   3.278
31798WAT     H195636   2.758   0.886   3.212
31798WAT     H295637   2.757   0.726   3.241
31799WAT      O95638   6.060   6.987   7.282
31799WAT     H195639   6.112   6.908   7.247
31799WAT     H295640   6.105   7.023   7.363
31800WAT      O95641   1.000   5.219   0.547
31800WAT     H195642   1.066   5.184   0.613
31800WAT     H295643   0.925   5.154   0.537
31801WAT      O95644   3.308   3.047   7.145
31801WAT     H195645   3.334   2.954   7.170
31801WAT     H295646   3.319   3.059   7.046
31802WAT      O95647   0.889   9.248   8.519
31802WAT     H195648   0.910   9.335   8.564
31802WAT     H295649   0.922   9.251   8.425
31803WAT      O95650   3.966   1.107   9.118
31803WAT     H195651   4.061   1.137   9.118
31803WAT     H295652   3.914   1.160   9.185
31804WAT      O95653   6.771   3.032   4.017
31804WAT     H195654   6.787   2.934   4.032
31804WAT     H295655   6.853   3.073   3.977
31805WAT      O95656   3.614   9.328   1.819
31805WAT     H195657   3.687   9.262   1.798
31805WAT     H295658   3.567   9.352   1.735
31806WAT      O95659   9.201   4.711   5.135
31806WAT     H195660   9.219   4.808   5.119
31806WAT     H295661   9.113   4.700   5.180
31807WAT      O95662   0.101   7.719   3.443
31807WAT     H195663   0.194   7.742   3.413
31807WAT     H295664   0.063   7.649   3.382
31808WAT      O95665   7.476   8.713   6.639
31808WAT     H195666   7.477   8.678   6.732
31808WAT     H295667   7.474   8.637   6.574
31809WAT      O95668   2.483   5.150   4.301
31809WAT     H195669   2.428   5.091   4.359
31809WAT     H295670   2.465   5.246   4.324
31810WAT      O95671   2.959   4.324   4.905
31810WAT     H195672   2.902   4.323   4.987
31810WAT     H295673   2.926   4.254   4.841
31811WAT      O95674   0.285   7.326   6.720
31811WAT     H195675   0.269   7.237   6.678
31811WAT     H295676   0.211   7.348   6.783
31812WAT      O95677   6.863   6.128   6.025
31812WAT     H195678   6.817   6.168   5.946
31812WAT     H295679   6.828   6.171   6.109
31813WAT      O95680   3.045   2.518   9.734
31813WAT     H195681   3.124   2.461   9.711
31813WAT     H295682   3.054   2.607   9.691
31814WAT      O95683   2.535   8.461   4.094
31814WAT     H195684   2.613   8.524   4.089
31814WAT     H295685   2.533   8.405   4.011
31815WAT      O95686   9.458   2.392   8.181
31815WAT     H195687   9.467   2.345   8.093
31815WAT     H295688   9.364   2.423   8.193
31816WAT      O95689   2.045   1.090   2.918
31816WAT     H195690   2.134   1.107   2.959
31816WAT     H295691   2.049   1.008   2.860
31817WAT      O95692   8.722   2.329   5.984
31817WAT     H195693   8.675   2.415   6.005
31817WAT     H295694   8.808   2.325   6.034
31818WAT      O95695   3.716   4.993   2.367
31818WAT     H195696   3.616   4.991   2.366
31818WAT     H295697   3.752   4.902   2.347
31819WAT      O95698   8.349   7.988   4.014
31819WAT     H195699   8.263   8.036   3.998
31819WAT     H295700   8.333   7.911   4.075
31820WAT      O95701   4.560   1.512   5.559
31820WAT     H195702   4.481   1.466   5.519
31820WAT     H295703   4.559   1.500   5.658
31821WAT      O95704   6.402   9.619   5.044
31821WAT     H195705   6.341   9.540   5.050
31821WAT     H295706   6.497   9.589   5.038
31822WAT      O95707   8.411   4.264   5.915
31822WAT     H195708   8.373   4.354   5.933
31822WAT     H295709   8.389   4.203   5.991
31823WAT      O95710   5.674   6.823   6.916
31823WAT     H195711   5.672   6.855   7.011
31823WAT     H295712   5.756   6.768   6.901
31824WAT      O95713   6.539   1.213   4.619
31824WAT     H195714   6.525   1.114   4.617
31824WAT     H295715   6.452   1.258   4.599
31825WAT      O95716   1.088   6.575   3.823
31825WAT     H195717   1.042   6.664   3.826
31825WAT     H295718   1.145   6.570   3.741
31826WAT      O95719   1.976   4.785   0.659
31826WAT     H195720   2.064   4.834   0.662
31826WAT     H295721   1.979   4.716   0.587
31827WAT      O95722   0.264   7.054   8.575
31827WAT     H195723   0.262   6.997   8.493
31827WAT     H295724   0.271   7.150   8.549
31828WAT      O95725   8.673   2.483   7.566
31828WAT     H195726   8.672   2.394   7.612
31828WAT     H295727   8.735   2.545   7.613
31829WAT      O95728   0.567   5.239   1.394
31829WAT     H195729   0.612   5.157   1.361
31829WAT     H295730   0.474   5.217   1.425
31830WAT      O95731   1.869   9.490   8.939
31830WAT     H195732   1.932   9.413   8.933
31830WAT     H295733   1.915   9.568   8.981
31831WAT      O95734   5.672   7.931   2.514
31831WAT     H195735   5.720   7.895   2.434
31831WAT     H295736   5.704   8.024   2.533
31832WAT      O95737   2.272   2.568   3.566
31832WAT     H195738   2.369   2.578   3.541
31832WAT     H295739   2.215   2.582   3.485
31833WAT      O95740   9.695   9.243   2.521
31833WAT     H195741   9.690   9.340   2.542
31833WAT     H295742   9.746   9.228   2.437
31834WAT      O95743   1.743   8.959   6.723
31834WAT     H195744   1.730   8.952   6.821
31834WAT     H295745   1.655   8.979   6.679
31835WAT      O95746   0.306   2.665   2.466
31835WAT     H195747   0.250   2.617   2.533
31835WAT     H295748   0.359   2.598   2.414
31836WAT      O95749   3.761   2.413   1.385
31836WAT     H195750   3.675   2.457   1.411
31836WAT     H295751   3.800   2.459   1.306
31837WAT      O95752   6.757   2.133   0.214
31837WAT     H195753   6.758   2.232   0.209
31837WAT     H295754   6.832   2.102   0.272
31838WAT      O95755   7.051   6.950   7.000
31838WAT     H195756   7.140   6.990   6.980
31838WAT     H295757   6.981   7.021   6.999
31839WAT      O95758   4.547   4.213   2.997
31839WAT     H195759   4.645   4.209   3.021
31839WAT     H295760   4.493   4.180   3.075
31840WAT      O95761   5.430   7.205   8.828
31840WAT     H195762   5.512   7.179   8.776
31840WAT     H295763   5.425   7.149   8.910
31841WAT      O95764   5.532   5.809   5.804
31841WAT     H195765   5.591   5.730   5.821
31841WAT     H295766   5.458   5.783   5.741
31842WAT      O95767   4.912   2.653   0.117
31842WAT     H195768   4.944   2.628   0.026
31842WAT     H295769   4.983   2.633   0.184
31843WAT      O95770   4.320   3.693   6.840
31843WAT     H195771   4.345   3.698   6.743
31843WAT     H295772   4.249   3.624   6.852
31844WAT      O95773   3.467   3.327   1.443
31844WAT     H195774   3.505   3.235   1.447
31844WAT     H295775   3.384   3.332   1.498
31845WAT      O95776   6.567   4.389   4.502
31845WAT     H195777   6.633   4.439   4.446
31845WAT     H295778   6.607   4.301   4.528
31846WAT      O95779   7.648   0.164   5.388
31846WAT     H195780   7.744   0.189   5.374
31846WAT     H295781   7.640   0.100   5.464
31847WAT      O95782   8.825   2.449   6.594
31847WAT     H195783   8.837   2.427   6.497
31847WAT     H295784   8.896   2.404   6.647
31848WAT      O95785   3.602   0.161   4.145
31848WAT     H195786   3.613   0.121   4.055
31848WAT     H295787   3.689   0.202   4.174
31849WAT      O95788   6.926   4.300   8.287
31849WAT     H195789   6.909   4.205   8.260
31849WAT     H295790   6.840   4.342   8.316
31850WAT      O95791   6.480   5.047   3.451
31850WAT     H195792   6.471   4.948   3.463
31850WAT     H295793   6.566   5.067   3.404
31851WAT      O95794   3.685   7.741   7.873
31851WAT     H195795   3.618   7.696   7.814
31851WAT     H295796   3.720   7.676   7.940
31852WAT      O95797   3.155   8.245   6.038
31852WAT     H195798   3.205   8.301   5.972
31852WAT     H295799   3.205   8.242   6.125
31853WAT      O95800   1.970   7.900   4.526
31853WAT     H195801   1.876   7.924   4.550
31853WAT     H295802   1.973   7.868   4.432
31854WAT      O95803   9.474   1.310   5.548
31854WAT     H195804   9.508   1.360   5.628
31854WAT     H295805   9.389   1.352   5.516
31855WAT      O95806   1.230   3.776   7.763
31855WAT     H195807   1.309   3.717   7.781
31855WAT     H295808   1.171   3.732   7.695
31856WAT      O95809   3.474   9.590   4.798
31856WAT     H195810   3.455   9.514   4.859
31856WAT     H295811   3.502   9.555   4.709
31857WAT      O95812   8.672   3.225   6.028
31857WAT     H195813   8.605   3.150   6.027
31857WAT     H295814   8.627   3.310   6.002
31858WAT      O95815   4.512   4.508   3.190
31858WAT     H195816   4.484   4.477   3.099
31858WAT     H295817   4.518   4.429   3.251
31859WAT      O95818   5.539   3.257   0.083
31859WAT     H195819   5.498   3.290   0.168
31859WAT     H295820   5.489   3.176   0.052
31860WAT      O95821   2.629   7.199   7.638
31860WAT     H195822   2.584   7.175   7.724
31860WAT     H295823   2.603   7.132   7.567
31861WAT      O95824   8.439   9.376   8.144
31861WAT     H195825   8.451   9.457   8.202
31861WAT     H295826   8.529   9.337   8.123
31862WAT      O95827   8.563   6.443   4.470
31862WAT     H195828   8.534   6.500   4.392
31862WAT     H295829   8.629   6.374   4.438
31863WAT      O95830   4.307   7.947   7.900
31863WAT     H195831   4.227   7.889   7.914
31863WAT     H295832   4.301   8.027   7.959
31864WAT      O95833   6.196   7.022   9.321
31864WAT     H195834   6.147   6.954   9.376
31864WAT     H295835   6.259   7.073   9.381
31865WAT      O95836   4.102   1.442   5.867
31865WAT     H195837   4.164   1.402   5.800
31865WAT     H295838   4.142   1.435   5.959
31866WAT      O95839   1.065   2.482   8.197
31866WAT     H195840   1.138   2.534   8.154
31866WAT     H295841   1.054   2.394   8.150
31867WAT      O95842   1.794   1.427   7.359
31867WAT     H195843   1.724   1.484   7.316
31867WAT     H295844   1.881   1.476   7.361
31868WAT      O95845   1.155   1.539   8.722
31868WAT     H195846   1.069   1.572   8.761
31868WAT     H295847   1.227   1.605   8.740
31869WAT      O95848   6.015   1.768   2.439
31869WAT     H195849   6.035   1.676   2.404
31869WAT     H295850   6.038   1.836   2.369
31870WAT      O95851   2.951   6.400   1.606
31870WAT     H195852   2.942   6.301   1.615
31870WAT     H295853   3.003   6.436   1.683
31871WAT      O95854   6.083   2.452   8.616
31871WAT     H195855   6.129   2.379   8.566
31871WAT     H295856   6.015   2.495   8.558
31872WAT      O95857   6.813   4.399   2.202
31872WAT     H195858   6.814   4.301   2.180
31872WAT     H295859   6.752   4.414   2.280
31873WAT      O95860   3.299   9.449   7.584
31873WAT     H195861   3.342   9.373   7.535
31873WAT     H295862   3.231   9.493   7.525
31874WAT      O95863   8.698   6.117   6.299
31874WAT     H195864   8.747   6.055   6.362
31874WAT     H295865   8.764   6.178   6.255
31875WAT      O95866   9.309   6.796   9.308
31875WAT     H195867   9.318   6.712   9.361
31875WAT     H295868   9.380   6.799   9.237
31876WAT      O95869   2.229   6.605   2.019
31876WAT     H195870   2.305   6.661   2.051
31876WAT     H295871   2.201   6.541   2.091
31877WAT      O95872   1.754   5.379   7.955
31877WAT     H195873   1.665   5.334   7.945
31877WAT     H295874   1.810   5.329   8.022
31878WAT      O95875   9.708   8.438   2.784
31878WAT     H195876   9.615   8.474   2.775
31878WAT     H295877   9.774   8.512   2.776
31879WAT      O95878   7.846   5.490   3.494
31879WAT     H195879   7.911   5.526   3.428
31879WAT     H295880   7.890   5.483   3.584
31880WAT      O95881   5.839   2.299   1.312
31880WAT     H195882   5.873   2.262   1.225
31880WAT     H295883   5.910   2.357   1.352
31881WAT      O95884   5.928   0.966   0.461
31881WAT     H195885   6.021   0.952   0.427
31881WAT     H295886   5.929   1.028   0.539
31882WAT      O95887   9.395   8.907   7.645
31882WAT     H195888   9.463   8.978   7.629
31882WAT     H295889   9.346   8.927   7.730
31883WAT      O95890   5.154   0.093   1.860
31883WAT     H195891   5.231   0.058   1.912
31883WAT     H295892   5.123   0.179   1.899
31884WAT      O95893   6.209   8.505   3.962
31884WAT     H195894   6.274   8.435   3.991
31884WAT     H295895   6.127   8.461   3.924
31885WAT      O95896   7.650   2.004   6.712
31885WAT     H195897   7.567   2.036   6.666
31885WAT     H295898   7.640   2.015   6.811
31886WAT      O95899   9.529   4.838   8.185
31886WAT     H195900   9.620   4.830   8.143
31886WAT     H295901   9.520   4.929   8.226
31887WAT      O95902   8.528   0.182   0.310
31887WAT     H195903   8.592   0.119   0.267
31887WAT     H295904   8.520   0.161   0.407
31888WAT      O95905   5.889   5.059   1.765
31888WAT     H195906   5.946   5.141   1.765
31888WAT     H295907   5.820   5.067   1.837
31889WAT      O95908   4.797   1.987   5.623
31889WAT     H195909   4.728   1.916   5.636
31889WAT     H295910   4.815   2.031   5.711
31890WAT      O95911   7.496   1.871   7.279
31890WAT     H195912   7.505   1.809   7.202
31890WAT     H295913   7.580   1.871   7.333
31891WAT      O95914   4.943   0.009   1.649
31891WAT     H195915   4.995   0.058   1.720
31891WAT     H295916   4.994   0.013   1.563
31892WAT      O95917   4.344   9.188   6.377
31892WAT     H195918   4.419   9.124   6.362
31892WAT     H295919   4.282   9.150   6.447
31893WAT      O95920   3.090   7.738   7.457
31893WAT     H195921   3.061   7.745   7.553
31893WAT     H295922   3.084   7.828   7.414
31894WAT      O95923   0.954   4.499   8.331
31894WAT     H195924   1.000   4.586   8.346
31894WAT     H295925   0.926   4.491   8.235
31895WAT      O95926   0.488   8.204   1.874
31895WAT     H195927   0.511   8.107   1.886
31895WAT     H295928   0.406   8.225   1.928
31896WAT      O95929   4.457   0.101   8.087
31896WAT     H195930   4.556   0.116   8.086
31896WAT     H295931   4.437   0.008   8.056
31897WAT      O95932   8.743   5.555   0.890
31897WAT     H195933   8.746   5.630   0.824
31897WAT     H295934   8.652   5.514   0.890
31898WAT      O95935   6.408   1.007   1.022
31898WAT     H195936   6.397   1.088   1.079
31898WAT     H295937   6.321   0.985   0.978
31899WAT      O95938   0.044   6.459   3.543
31899WAT     H195939   0.036   6.457   3.643
31899WAT     H295940   0.037   6.553   3.511
   9.88928    9.84380    9.89279 
